Title
81310
    1CHL1    C3    1   1.241   3.909  10.455  0.7734  0.5836  0.3914
    1CHL1    H3    2   1.216   4.017  10.441  1.3304  0.4993 -1.6412
    1CHL1    O3    3   1.215   3.877  10.591 -0.9490  0.6098 -0.2033
    1CHL1   H3'    4   1.207   3.782  10.603  1.7962  0.6118  3.2392
    1CHL1    C4    5   1.155   3.826  10.367 -0.1580 -0.2589 -0.1872
    1CHL1   H4A    6   1.170   3.718  10.390  2.5836  0.4124  1.7496
    1CHL1   H4B    7   1.046   3.841  10.384 -0.6253 -2.4975 -0.9028
    1CHL1    C5    8   1.189   3.846  10.225 -0.5103  0.4902  0.2796
    1CHL1    C6    9   1.106   3.875  10.125  0.4100  0.4799  0.0416
    1CHL1    H6   10   0.998   3.881  10.139  0.4051  0.3767  0.0462
    1CHL1    C7   11   1.138   3.895   9.976 -0.2954 -0.5371 -0.3455
    1CHL1   H7A   12   1.060   3.849   9.912 -0.5573  0.9061 -1.1070
    1CHL1   H7B   13   1.135   4.005   9.957  1.5517 -0.5152 -0.6175
    1CHL1    C8   14   1.274   3.832   9.946  0.2043  0.0911 -0.1750
    1CHL1    H8   15   1.261   3.722   9.948 -0.2378  0.1506  0.3108
    1CHL1   C14   16   1.318   3.880   9.805  0.1260 -0.3809  0.0257
    1CHL1   H14   17   1.325   3.991   9.807 -0.0114 -0.3406 -1.1311
    1CHL1   C15   18   1.220   3.847   9.693  0.8149  0.5712 -0.4456
    1CHL1  H15A   19   1.203   3.737   9.701 -2.9808  1.0553 -0.1523
    1CHL1  H15B   20   1.123   3.898   9.710  0.0327 -0.9077 -0.2910
    1CHL1   C16   21   1.299   3.870   9.564 -0.0868 -0.7220  0.2236
    1CHL1  H16A   22   1.306   3.778   9.503  1.1919 -1.5399  1.5308
    1CHL1  H16B   23   1.259   3.955   9.505 -0.6727 -0.0816  1.5023
    1CHL1   C17   24   1.447   3.904   9.611 -0.3172  0.2175 -0.2495
    1CHL1   H17   25   1.461   4.014   9.605 -3.3245  0.7284  0.5290
    1CHL1   C13   26   1.457   3.847   9.758 -0.7808  0.1555 -0.2118
    1CHL1   C18   27   1.472   3.694   9.750 -0.2997  0.8123  0.0956
    1CHL1  H18A   28   1.462   3.645   9.850  2.0798 -1.4472 -0.6403
    1CHL1  H18B   29   1.395   3.641   9.690 -0.6263 -0.5831  1.6501
    1CHL1  H18C   30   1.576   3.672   9.718 -0.9057 -1.7639 -0.3763
    1CHL1   C12   31   1.554   3.904   9.862  0.0054 -0.4304 -0.0552
    1CHL1  H12A   32   1.655   3.877   9.826 -0.6408 -1.0688 -1.4462
    1CHL1  H12B   33   1.545   4.015   9.858 -0.6990 -0.4782  0.0034
    1CHL1   C11   34   1.519   3.862  10.004 -0.0571 -0.0939 -0.0876
    1CHL1  H11A   35   1.544   3.753  10.006  2.0082  0.2873  3.8685
    1CHL1  H11B   36   1.581   3.920  10.076 -0.7550  0.9636 -0.3259
    1CHL1    C9   37   1.372   3.888  10.050  0.1075  0.0592  0.7602
    1CHL1    H9   38   1.352   3.997  10.054  0.3801  0.0894  1.4116
    1CHL1   C10   39   1.338   3.829  10.191 -0.4558  0.9514 -0.2536
    1CHL1   C19   40   1.389   3.682  10.200 -0.3133  0.3950 -0.1664
    1CHL1  H19A   41   1.339   3.621  10.122  1.8425  0.2232 -1.5029
    1CHL1  H19B   42   1.500   3.676  10.189 -0.4090 -0.5336 -0.7369
    1CHL1  H19C   43   1.355   3.631  10.292  2.3211 -1.4333 -0.0900
    1CHL1    C1   44   1.428   3.912  10.294 -0.5603 -0.2201  0.2189
    1CHL1   H1A   45   1.533   3.875  10.288 -1.4624 -2.8879 -0.8249
    1CHL1   H1B   46   1.406   4.020  10.282 -0.9924 -0.1762  1.3001
    1CHL1    C2   47   1.390   3.885  10.442  0.2001  0.0981 -0.0738
    1CHL1   H2A   48   1.442   3.964  10.501 -1.3721  1.3899 -0.3452
    1CHL1   H2B   49   1.428   3.784  10.470  0.3431 -0.1534 -1.1582
    1CHL1   C20   50   1.547   3.851   9.501  0.6766  0.1215 -0.4821
    1CHL1   H20   51   1.533   3.741   9.508  1.4096  0.0396 -0.1541
    1CHL1   C21   52   1.698   3.867   9.538  0.4604 -0.1076  0.7872
    1CHL1  H21A   53   1.726   3.974   9.535  0.1728 -0.0417  0.0113
    1CHL1  H21B   54   1.769   3.817   9.469 -0.9933  1.7345 -2.2729
    1CHL1  H21C   55   1.708   3.824   9.640  0.8145 -0.0071  0.7939
    1CHL1   C22   56   1.518   3.916   9.367 -0.4735  0.5088 -0.2839
    1CHL1  H22A   57   1.411   3.913   9.336 -0.6426  0.4047  0.2889
    1CHL1  H22B   58   1.547   4.023   9.382 -0.6023  0.6348 -0.9134
    1CHL1   C23   59   1.603   3.869   9.252  0.9273  0.5785 -0.0897
    1CHL1  H23A   60   1.562   3.912   9.158  1.0153  3.5063  1.1067
    1CHL1  H23B   61   1.706   3.908   9.263  1.3078 -0.5758  0.5588
    1CHL1   C24   62   1.611   3.716   9.243 -0.4945 -1.1269 -0.6680
    1CHL1  H24A   63   1.659   3.671   9.332 -1.0488 -0.1014  0.1784
    1CHL1  H24B   64   1.512   3.668   9.228  0.2285 -2.8445 -0.2081
    1CHL1   C25   65   1.695   3.669   9.124 -0.3825 -0.3823 -0.3552
    1CHL1   H25   66   1.659   3.727   9.036 -1.3402  0.3564  0.5127
    1CHL1   C26   67   1.849   3.695   9.124  0.5880  0.3390 -0.1104
    1CHL1  H26A   68   1.899   3.617   9.063 -0.1307  0.6403 -1.1097
    1CHL1  H26B   69   1.884   3.796   9.094 -0.7711  0.9208  0.1733
    1CHL1  H26C   70   1.867   3.677   9.232 -0.7850 -1.1735 -0.1021
    1CHL1   C27   71   1.665   3.522   9.096  0.0383  0.3329 -0.2403
    1CHL1  H27A   72   1.740   3.464   9.155  0.4331 -0.6510 -1.6342
    1CHL1  H27B   73   1.567   3.494   9.140  0.7838 -0.9706  0.6667
    1CHL1  H27C   74   1.679   3.510   8.986 -0.5541  1.4097 -0.4443
    2CHL1    C3   75   3.091   1.711  10.192 -0.4052  0.1802 -0.9496
    2CHL1    H3   76   3.171   1.668  10.128 -0.8064 -0.7990 -0.8151
    2CHL1    O3   77   3.112   1.647  10.319  0.3667  0.1534  0.4849
    2CHL1   H3'   78   3.041   1.685  10.372  0.3784  0.2929  0.4018
    2CHL1    C4   79   3.118   1.862  10.205  0.7147  0.2051  0.3988
    2CHL1   H4A   80   3.030   1.892  10.266 -0.0405 -0.3950 -0.3615
    2CHL1   H4B   81   3.203   1.882  10.273 -0.4577  1.8484  1.4684
    2CHL1    C5   82   3.095   1.925  10.065  0.1667  0.8669  0.2724
    2CHL1    C6   83   3.188   2.007  10.012  0.2412  0.4201 -0.2983
    2CHL1    H6   84   3.286   2.025  10.057 -0.3424  1.2968  0.6668
    2CHL1    C7   85   3.171   2.088   9.889 -0.2225  0.8966  0.5235
    2CHL1   H7A   86   3.197   2.195   9.905 -2.2390  1.5062 -0.0330
    2CHL1   H7B   87   3.244   2.054   9.813  0.4912 -0.3202  1.6995
    2CHL1    C8   88   3.037   2.085   9.835  0.9109 -0.1470 -0.1579
    2CHL1    H8   89   2.978   2.151   9.902 -0.8700 -0.1867 -1.6168
    2CHL1   C14   90   3.026   2.140   9.691 -0.6160 -0.1233  0.8482
    2CHL1   H14   91   3.087   2.066   9.634  1.6576  1.0557  1.6139
    2CHL1   C15   92   3.086   2.277   9.657 -0.5416  0.3435 -0.0729
    2CHL1  H15A   93   3.063   2.351   9.737 -1.7370  0.4128 -0.4610
    2CHL1  H15B   94   3.196   2.270   9.654 -0.5755  0.2681 -2.2719
    2CHL1   C16   95   3.035   2.310   9.518 -0.1047 -0.9672  0.8170
    2CHL1  H16A   96   2.996   2.414   9.521 -1.2098 -1.3953  2.2206
    2CHL1  H16B   97   3.121   2.299   9.449  0.3535  0.2061  1.1681
    2CHL1   C17   98   2.924   2.205   9.485  0.5239 -0.3637  0.6626
    2CHL1   H17   99   2.974   2.127   9.424  0.3751 -0.4612  0.6660
    2CHL1   C13  100   2.889   2.143   9.624  0.2603  0.6114 -0.7427
    2CHL1   C18  101   2.803   2.241   9.710 -0.3276 -0.1687 -0.2765
    2CHL1  H18A  102   2.804   2.218   9.819 -0.7420  0.8243 -0.0547
    2CHL1  H18B  103   2.839   2.346   9.703  2.7863 -0.9816  1.5618
    2CHL1  H18C  104   2.699   2.237   9.672 -0.1489 -0.8759 -0.7153
    2CHL1   C12  105   2.827   1.999   9.624 -0.3910 -0.0973  0.3536
    2CHL1  H12A  106   2.731   1.995   9.568 -1.4308  1.7247  1.8948
    2CHL1  H12B  107   2.888   1.933   9.559 -2.5343 -1.5799 -0.2677
    2CHL1   C11  108   2.821   1.933   9.765  0.7149 -0.2185  0.3446
    2CHL1  H11A  109   2.757   1.998   9.829  0.5691 -1.9887  2.0676
    2CHL1  H11B  110   2.787   1.827   9.761  1.3777 -0.4045 -0.3996
    2CHL1    C9  111   2.960   1.949   9.841  0.2391  0.0065  0.1199
    2CHL1    H9  112   3.024   1.892   9.770 -2.0870  0.1679 -2.2742
    2CHL1   C10  113   2.956   1.900   9.989 -0.8223 -0.0268  0.2864
    2CHL1   C19  114   2.844   1.971  10.063 -0.2416  0.1876 -0.2849
    2CHL1  H19A  115   2.829   1.917  10.159  0.7111 -3.1550 -1.8756
    2CHL1  H19B  116   2.868   2.079  10.071  2.4953 -0.4346  1.5180
    2CHL1  H19C  117   2.741   1.964  10.024 -0.6954 -1.4039  1.0502
    2CHL1    C1  118   2.940   1.746   9.990 -0.4151 -0.1754 -0.3029
    2CHL1   H1A  119   2.836   1.723   9.961  0.0149 -2.6753 -0.0926
    2CHL1   H1B  120   3.005   1.703   9.910 -1.4106  0.0958 -1.2781
    2CHL1    C2  121   2.951   1.685  10.132 -0.1573 -0.3563  0.7364
    2CHL1   H2A  122   2.942   1.574  10.126 -0.7579 -0.2491 -1.0189
    2CHL1   H2B  123   2.875   1.724  10.202 -0.5232 -0.8739  0.6390
    2CHL1   C20  124   2.815   2.276   9.399 -0.3133 -0.0104  0.8136
    2CHL1   H20  125   2.763   2.349   9.464  0.6609  3.2325 -1.7700
    2CHL1   C21  126   2.705   2.176   9.362 -0.0847  0.2035 -0.5825
    2CHL1  H21A  127   2.652   2.211   9.271 -2.8675  0.0013  0.8698
    2CHL1  H21B  128   2.633   2.174   9.447 -1.1577 -3.2534 -1.4105
    2CHL1  H21C  129   2.753   2.079   9.335  0.1514 -0.6854  2.6552
    2CHL1   C22  130   2.874   2.347   9.271  0.0919  0.0945  0.0866
    2CHL1  H22A  131   2.954   2.416   9.305  0.0241  0.2179 -0.0066
    2CHL1  H22B  132   2.930   2.274   9.208  2.4860  2.2220 -0.3816
    2CHL1   C23  133   2.787   2.444   9.186  0.4354  0.2170  0.8031
    2CHL1  H23A  134   2.705   2.385   9.140  1.3357  0.3569 -1.0814
    2CHL1  H23B  135   2.741   2.527   9.244  0.0120  0.3663  0.2609
    2CHL1   C24  136   2.868   2.493   9.057 -0.3249  0.3105  0.4482
    2CHL1  H24A  137   2.951   2.559   9.092 -0.3032  0.1062  0.7769
    2CHL1  H24B  138   2.918   2.409   9.003 -0.2091  1.3532 -1.1390
    2CHL1   C25  139   2.785   2.578   8.964 -0.2610  0.8035  0.1602
    2CHL1   H25  140   2.725   2.649   9.024  0.9475  2.2028 -0.2423
    2CHL1   C26  141   2.876   2.659   8.878  0.1769  0.3483  0.1298
    2CHL1  H26A  142   2.822   2.697   8.789  1.1059  1.7854  0.1487
    2CHL1  H26B  143   2.913   2.748   8.932  1.7852 -0.1925 -0.0200
    2CHL1  H26C  144   2.963   2.598   8.845 -0.1002 -2.1225  3.4450
    2CHL1   C27  145   2.698   2.492   8.882  0.0539 -0.7536 -0.2707
    2CHL1  H27A  146   2.622   2.431   8.936 -0.2103 -0.0348  0.1800
    2CHL1  H27B  147   2.634   2.553   8.814  0.2504  0.3592  0.5184
    2CHL1  H27C  148   2.758   2.424   8.818  2.8350 -0.1337  1.5019
    3CHL1    C3  149   3.873   1.408  10.349  0.0448 -0.0030  0.5355
    3CHL1    H3  150   3.969   1.413  10.292  0.3998  1.8199  1.2192
    3CHL1    O3  151   3.883   1.350  10.482  0.0540 -0.3632  0.4255
    3CHL1   H3'  152   3.821   1.400  10.535 -2.3212 -2.1245 -0.4877
    3CHL1    C4  153   3.813   1.551  10.348 -0.3873 -0.8830  0.0329
    3CHL1   H4A  154   3.715   1.547  10.400 -0.4566  3.1152  0.5586
    3CHL1   H4B  155   3.873   1.617  10.413 -1.9217 -0.5855  1.2114
    3CHL1    C5  156   3.797   1.613  10.214 -0.6579  0.3236  0.0811
    3CHL1    C6  157   3.854   1.735  10.192  0.3691  0.5023  0.6702
    3CHL1    H6  158   3.905   1.791  10.271 -0.0688  0.9665  0.6285
    3CHL1    C7  159   3.832   1.807  10.060  0.3679 -0.7760  0.2806
    3CHL1   H7A  160   3.787   1.905  10.088  0.0136 -0.2100 -2.0199
    3CHL1   H7B  161   3.926   1.846  10.015 -0.5610 -0.0300 -1.0870
    3CHL1    C8  162   3.730   1.745   9.957 -0.6789 -0.1146 -1.0062
    3CHL1    H8  163   3.626   1.771   9.985 -1.2786 -1.8766 -1.5210
    3CHL1   C14  164   3.761   1.797   9.822  0.5489 -0.3693  0.5017
    3CHL1   H14  165   3.862   1.757   9.800  1.0320 -0.3439  2.4682
    3CHL1   C15  166   3.774   1.956   9.800  0.1315 -0.0544 -0.9215
    3CHL1  H15A  167   3.698   2.013   9.857 -2.3388 -1.4681 -2.6314
    3CHL1  H15B  168   3.878   1.975   9.834 -0.4849 -0.3424  1.2311
    3CHL1   C16  169   3.756   1.969   9.648  0.1717  0.1122 -0.0665
    3CHL1  H16A  170   3.680   2.047   9.624  1.2355  1.1877 -0.0569
    3CHL1  H16B  171   3.852   2.004   9.605  1.7832 -2.5421  1.1397
    3CHL1   C17  172   3.704   1.832   9.594  0.2259 -0.0655 -0.4870
    3CHL1   H17  173   3.796   1.778   9.560 -0.1079 -0.4609 -0.7742
    3CHL1   C13  174   3.655   1.750   9.717  0.4587 -0.1629 -0.7966
    3CHL1   C18  175   3.516   1.792   9.749  0.1854  0.5039 -0.2943
    3CHL1  H18A  176   3.446   1.765   9.668 -0.2533 -2.6330  0.9737
    3CHL1  H18B  177   3.476   1.743   9.840  0.5026 -1.5587 -1.1959
    3CHL1  H18C  178   3.506   1.903   9.749  3.0486  0.9228  2.2844
    3CHL1   C12  179   3.666   1.600   9.709 -0.0846  0.3683 -0.7033
    3CHL1  H12A  180   3.597   1.540   9.646 -0.3076 -0.8049  0.5921
    3CHL1  H12B  181   3.765   1.563   9.675 -0.4930 -1.0434 -0.4237
    3CHL1   C11  182   3.639   1.530   9.844  0.5677  0.1128  0.4103
    3CHL1  H11A  183   3.534   1.539   9.879 -0.2846 -1.0907 -1.7040
    3CHL1  H11B  184   3.667   1.423   9.837 -2.0573 -0.7299  1.4899
    3CHL1    C9  185   3.727   1.587   9.960  0.3427  0.3299 -0.4539
    3CHL1    H9  186   3.828   1.551   9.929  0.3740  1.4673 -1.7630
    3CHL1   C10  187   3.709   1.537  10.113  0.7472  0.4873  0.3256
    3CHL1   C19  188   3.566   1.540  10.151  1.1195 -0.2336 -0.0623
    3CHL1  H19A  189   3.523   1.642  10.158  1.0502 -0.3050  0.6825
    3CHL1  H19B  190   3.507   1.465  10.095  1.0279 -0.6637  0.5937
    3CHL1  H19C  191   3.560   1.512  10.259  0.1441  1.9720  0.5052
    3CHL1    C1  192   3.758   1.384  10.118  0.2592 -0.3071  0.3210
    3CHL1   H1A  193   3.682   1.334  10.054 -1.1193  0.0639  1.6045
    3CHL1   H1B  194   3.857   1.383  10.068  0.7668  1.7621  1.1791
    3CHL1    C2  195   3.778   1.320  10.260  0.0853 -0.7772  0.9087
    3CHL1   H2A  196   3.819   1.219  10.242  0.0825 -0.5768 -0.3720
    3CHL1   H2B  197   3.677   1.310  10.304 -0.2807  0.5512  0.4377
    3CHL1   C20  198   3.610   1.857   9.481  1.1850 -0.1188  0.4336
    3CHL1   H20  199   3.510   1.899   9.506  1.4600  0.8340 -0.0259
    3CHL1   C21  200   3.574   1.720   9.414  0.4072  0.0349  0.3595
    3CHL1  H21A  201   3.672   1.681   9.379  1.2081  1.7868  0.5144
    3CHL1  H21B  202   3.513   1.740   9.323  0.7092 -0.8368 -0.0499
    3CHL1  H21C  203   3.520   1.645   9.475  0.9145 -0.0997  0.6490
    3CHL1   C22  204   3.686   1.949   9.376 -0.4833  0.8282 -0.1664
    3CHL1  H22A  205   3.687   2.052   9.416 -2.4510  0.6161  0.5303
    3CHL1  H22B  206   3.785   1.906   9.350 -0.7559  1.1154 -1.8321
    3CHL1   C23  207   3.627   1.968   9.237  0.3641 -0.1553 -0.0763
    3CHL1  H23A  208   3.612   1.865   9.199  0.9355  0.5752 -2.4577
    3CHL1  H23B  209   3.525   2.012   9.245  0.4397 -0.0577  0.3889
    3CHL1   C24  210   3.713   2.046   9.136  0.2662 -0.2176 -0.0884
    3CHL1  H24A  211   3.719   2.148   9.179 -0.3774 -0.7522  1.3311
    3CHL1  H24B  212   3.814   1.999   9.136  1.1614  1.6057  0.4593
    3CHL1   C25  213   3.641   2.058   8.994  0.1526 -0.0538  0.3629
    3CHL1   H25  214   3.541   2.104   9.011 -0.6336 -1.2058 -0.9315
    3CHL1   C26  215   3.714   2.157   8.899  0.6291  0.5098 -0.1359
    3CHL1  H26A  216   3.806   2.117   8.851 -0.4855  1.2360 -3.1029
    3CHL1  H26B  217   3.648   2.185   8.814  1.7751  0.5454 -1.0338
    3CHL1  H26C  218   3.745   2.249   8.953 -0.7250 -0.6246  2.8099
    3CHL1   C27  219   3.619   1.918   8.928 -0.5876 -0.4614  0.0006
    3CHL1  H27A  220   3.583   1.842   9.000  1.2745  0.5142  2.0915
    3CHL1  H27B  221   3.547   1.915   8.844 -0.6562 -1.6484  0.0862
    3CHL1  H27C  222   3.714   1.877   8.888 -0.2862  0.5061 -0.3064
    4CHL1    C3  223   3.571   3.540  10.723  0.2806 -0.4313 -0.2754
    4CHL1    H3  224   3.629   3.635  10.728 -0.0746 -0.2655  1.0552
    4CHL1    O3  225   3.568   3.492  10.856 -0.2375  0.1977  0.1811
    4CHL1   H3'  226   3.632   3.538  10.911 -1.4682  1.2324  0.7824
    4CHL1    C4  227   3.431   3.543  10.675  0.8200 -0.3385  0.3277
    4CHL1   H4A  228   3.390   3.441  10.694 -0.1398 -0.1679 -0.7491
    4CHL1   H4B  229   3.375   3.619  10.734 -1.9469 -0.8958 -1.3950
    4CHL1    C5  230   3.403   3.564  10.528  0.1729 -0.0749 -0.4102
    4CHL1    C6  231   3.308   3.649  10.479 -0.2084  0.3032 -0.4376
    4CHL1    H6  232   3.245   3.713  10.543 -1.0263 -0.7653 -0.1447
    4CHL1    C7  233   3.279   3.672  10.333 -0.7883 -0.2171 -0.5341
    4CHL1   H7A  234   3.171   3.646  10.334 -1.1139  0.7718  3.1752
    4CHL1   H7B  235   3.298   3.778  10.307  2.1015 -0.4171  0.3621
    4CHL1    C8  236   3.363   3.580  10.236  0.4411  0.0793 -0.7261
    4CHL1    H8  237   3.305   3.486  10.226 -0.5159  0.6208 -0.3036
    4CHL1   C14  238   3.371   3.644  10.096 -0.4796  0.1771  0.1751
    4CHL1   H14  239   3.434   3.733  10.121 -2.6227  1.4392  1.4704
    4CHL1   C15  240   3.250   3.694  10.023  0.2137 -0.9708 -0.0757
    4CHL1  H15A  241   3.176   3.611  10.024 -0.7958 -0.1687  3.0695
    4CHL1  H15B  242   3.192   3.776  10.069 -1.3775 -1.3592 -1.2885
    4CHL1   C16  243   3.289   3.707   9.876 -0.0507 -0.0451 -0.5327
    4CHL1  H16A  244   3.225   3.657   9.799  0.4328  0.5827 -1.3544
    4CHL1  H16B  245   3.303   3.816   9.865  0.5818 -0.0190  0.4321
    4CHL1   C17  246   3.429   3.642   9.856  0.4287 -0.9857 -0.2794
    4CHL1   H17  247   3.497   3.729   9.861 -2.6871  1.7865 -1.8968
    4CHL1   C13  248   3.447   3.561   9.990  0.4184 -0.0412  0.2819
    4CHL1   C18  249   3.379   3.424   9.964  0.2390  0.1948  0.1570
    4CHL1  H18A  250   3.275   3.429   9.927  0.3931 -1.4961 -0.5484
    4CHL1  H18B  251   3.441   3.373   9.888  1.9075  0.1750  1.4739
    4CHL1  H18C  252   3.378   3.369  10.060 -1.5796  1.0591  0.6744
    4CHL1   C12  253   3.588   3.533  10.051  0.2456 -0.4060  0.6892
    4CHL1  H12A  254   3.643   3.471   9.977  1.1011 -1.4449  2.1368
    4CHL1  H12B  255   3.625   3.637  10.040  0.4520 -0.7444 -3.7119
    4CHL1   C11  256   3.593   3.472  10.189 -0.0563  0.0659  0.1023
    4CHL1  H11A  257   3.541   3.374  10.177  1.6795 -0.9565  0.6368
    4CHL1  H11B  258   3.697   3.464  10.228 -0.4385  1.2240  1.4532
    4CHL1    C9  259   3.504   3.546  10.291 -1.1410 -0.1276 -0.7693
    4CHL1    H9  260   3.547   3.647  10.306  1.2740 -1.0922 -0.6696
    4CHL1   C10  261   3.496   3.486  10.430  0.5906  0.6283  0.2603
    4CHL1   C19  262   3.430   3.340  10.420 -0.8404  0.3139 -0.2291
    4CHL1  H19A  263   3.415   3.297  10.521 -0.6306  1.2165  0.1998
    4CHL1  H19B  264   3.330   3.332  10.373 -1.0407 -2.5059  0.4976
    4CHL1  H19C  265   3.492   3.271  10.359 -0.6532  0.5674 -0.3285
    4CHL1    C1  266   3.639   3.484  10.492 -0.3505 -0.0342 -0.2340
    4CHL1   H1A  267   3.713   3.429  10.430  2.4867  1.5837  1.4958
    4CHL1   H1B  268   3.683   3.586  10.493 -0.2286 -0.0759 -1.0018
    4CHL1    C2  269   3.654   3.439  10.640  0.0145  0.5265 -0.0007
    4CHL1   H2A  270   3.762   3.435  10.665 -0.1054  0.6338  0.5480
    4CHL1   H2B  271   3.616   3.335  10.655 -1.5456  1.3228  2.1290
    4CHL1   C20  272   3.443   3.579   9.718  0.2904 -0.7544 -0.4460
    4CHL1   H20  273   3.378   3.489   9.711 -1.3592  0.4410 -1.3953
    4CHL1   C21  274   3.583   3.532   9.711  0.7592  0.1758 -0.5420
    4CHL1  H21A  275   3.650   3.602   9.765  1.0049  0.1224 -0.7767
    4CHL1  H21B  276   3.622   3.512   9.609 -0.2555 -1.1081 -0.7016
    4CHL1  H21C  277   3.604   3.453   9.786  1.8383  0.4094 -0.5720
    4CHL1   C22  278   3.410   3.673   9.600 -0.3602  0.0032  0.9582
    4CHL1  H22A  279   3.300   3.685   9.588 -0.0431  0.7252 -2.1897
    4CHL1  H22B  280   3.459   3.772   9.606 -1.1491  0.5331 -0.6987
    4CHL1   C23  281   3.462   3.641   9.452  0.0972  0.5602  0.3721
    4CHL1  H23A  282   3.573   3.639   9.458  0.0737 -0.1557  0.7389
    4CHL1  H23B  283   3.425   3.539   9.430  0.4389 -0.4608  3.8098
    4CHL1   C24  284   3.402   3.732   9.344 -0.0093  0.3828  0.4937
    4CHL1  H24A  285   3.295   3.703   9.337  0.1328 -0.0517  0.0701
    4CHL1  H24B  286   3.422   3.837   9.373 -0.0677  0.2845  0.8940
    4CHL1   C25  287   3.459   3.706   9.200 -0.3199  0.0663 -0.6057
    4CHL1   H25  288   3.471   3.598   9.177  2.0831  0.8037 -3.5385
    4CHL1   C26  289   3.362   3.756   9.095  0.3154  0.4454 -0.0538
    4CHL1  H26A  290   3.350   3.866   9.108  0.7858  0.5518 -0.4678
    4CHL1  H26B  291   3.405   3.744   8.993  1.9841 -0.1973  0.6796
    4CHL1  H26C  292   3.262   3.711   9.106  0.6365 -0.1711  0.4138
    4CHL1   C27  293   3.603   3.750   9.174 -0.1999  0.0534  0.3151
    4CHL1  H27A  294   3.612   3.736   9.064  0.1507 -2.6491  0.6113
    4CHL1  H27B  295   3.618   3.859   9.186 -1.1408  0.2219  0.1172
    4CHL1  H27C  296   3.674   3.691   9.236 -2.4756 -0.1355  2.9590
    5CHL1    C3  297   4.835   1.316  10.473 -0.5870  1.0155 -0.0965
    5CHL1    H3  298   4.781   1.413  10.476 -3.0373 -0.2768  0.5098
    5CHL1    O3  299   4.862   1.266  10.600 -0.1938 -0.2585  0.0474
    5CHL1   H3'  300   4.782   1.294  10.645 -0.7133  0.4604 -1.2878
    5CHL1    C4  301   4.730   1.220  10.410  0.5812 -0.9824 -0.0019
    5CHL1   H4A  302   4.767   1.116  10.422 -0.8122 -1.4870  0.1240
    5CHL1   H4B  303   4.637   1.232  10.470 -0.2444 -2.1189 -0.9892
    5CHL1    C5  304   4.698   1.250  10.271  0.5430 -0.1074 -0.1648
    5CHL1    C6  305   4.576   1.269  10.219 -0.0571 -0.4569 -0.2400
    5CHL1    H6  306   4.488   1.258  10.284 -0.6429 -1.4707 -1.1651
    5CHL1    C7  307   4.547   1.270  10.070 -0.6455 -0.1533  0.6719
    5CHL1   H7A  308   4.478   1.185  10.051  0.8069 -1.1769 -0.1713
    5CHL1   H7B  309   4.495   1.363  10.038  1.6741  1.2235  0.6749
    5CHL1    C8  310   4.672   1.245   9.986  1.1440  0.2245  0.3592
    5CHL1    H8  311   4.691   1.136   9.975  0.7150  0.0319  1.3815
    5CHL1   C14  312   4.647   1.309   9.849  0.1867 -0.3399  0.1523
    5CHL1   H14  313   4.629   1.416   9.872  0.1311 -0.1932 -0.5256
    5CHL1   C15  314   4.511   1.274   9.776 -0.1723 -0.6199 -0.7183
    5CHL1  H15A  315   4.490   1.165   9.789  2.2046 -1.1774 -1.0248
    5CHL1  H15B  316   4.428   1.331   9.823  1.1196 -0.3985  1.4068
    5CHL1   C16  317   4.525   1.327   9.637  0.0944  0.3088  0.2756
    5CHL1  H16A  318   4.534   1.248   9.559 -0.0649  0.0800  0.4887
    5CHL1  H16B  319   4.433   1.387   9.621  1.2752  2.3864  0.9448
    5CHL1   C17  320   4.663   1.404   9.633 -0.0233  0.2942 -0.7610
    5CHL1   H17  321   4.639   1.503   9.677 -1.1794  0.2214 -1.1892
    5CHL1   C13  322   4.746   1.328   9.744 -0.3497 -0.0734 -0.0166
    5CHL1   C18  323   4.777   1.192   9.679  0.0335  0.4843  0.2660
    5CHL1  H18A  324   4.693   1.142   9.626  0.8648 -1.1189  0.3888
    5CHL1  H18B  325   4.859   1.210   9.606 -0.3946 -0.0507 -0.3602
    5CHL1  H18C  326   4.808   1.117   9.755 -2.1878  1.2029  1.9988
    5CHL1   C12  327   4.861   1.396   9.811  0.0368  0.3503  0.7054
    5CHL1  H12A  328   4.940   1.413   9.736 -0.1188  1.4963  0.7788
    5CHL1  H12B  329   4.839   1.502   9.838  2.4955  1.7660 -2.2040
    5CHL1   C11  330   4.911   1.316   9.939  0.5170 -0.9601 -0.2087
    5CHL1  H11A  331   4.948   1.220   9.898  3.3883  0.1656 -0.4817
    5CHL1  H11B  332   5.001   1.371   9.974  0.0149 -0.3507  0.1522
    5CHL1    C9  333   4.798   1.312  10.045  0.7954 -0.3290 -0.3906
    5CHL1    H9  334   4.771   1.418  10.060  1.7499 -0.3188  1.4680
    5CHL1   C10  335   4.830   1.253  10.181 -0.1058 -0.1015 -0.3459
    5CHL1   C19  336   4.882   1.104  10.170  0.6136 -0.6595 -0.4133
    5CHL1  H19A  337   4.799   1.031  10.176 -0.6891  0.8556  0.5139
    5CHL1  H19B  338   4.942   1.090  10.077  2.1517  1.8205  0.1272
    5CHL1  H19C  339   4.940   1.078  10.261 -0.5395  1.1415  0.8881
    5CHL1    C1  340   4.943   1.344  10.244  0.5820  1.3461  0.4515
    5CHL1   H1A  341   5.036   1.324  10.186  1.0064 -0.4763  1.6749
    5CHL1   H1B  342   4.918   1.452  10.234  2.5665  1.6350 -3.2367
    5CHL1    C2  343   4.967   1.310  10.393 -0.1408 -0.6235  0.8243
    5CHL1   H2A  344   5.042   1.386  10.425  1.7514 -1.4840 -1.2996
    5CHL1   H2B  345   5.028   1.219  10.415  2.1449  1.2868  3.0376
    5CHL1   C20  346   4.711   1.417   9.488 -0.0838  0.4943  0.5794
    5CHL1   H20  347   4.716   1.314   9.446 -1.4181  1.1813 -1.3840
    5CHL1   C21  348   4.839   1.489   9.456 -0.1961  0.3581 -0.5746
    5CHL1  H21A  349   4.830   1.581   9.518 -3.1000  0.3167 -0.7976
    5CHL1  H21B  350   4.873   1.501   9.351  0.8652 -1.2382 -0.4464
    5CHL1  H21C  351   4.925   1.435   9.500 -0.0711 -0.7922 -2.1449
    5CHL1   C22  352   4.598   1.481   9.387 -1.0433 -0.4084 -0.7420
    5CHL1  H22A  353   4.497   1.462   9.429 -0.1806 -1.5933  0.9830
    5CHL1  H22B  354   4.629   1.588   9.386  2.9137 -1.3592  0.6326
    5CHL1   C23  355   4.603   1.418   9.254 -0.1099  0.5010  1.2057
    5CHL1  H23A  356   4.692   1.452   9.196 -0.3119 -1.1778 -0.1794
    5CHL1  H23B  357   4.617   1.308   9.263  1.5476  0.5646 -0.1513
    5CHL1   C24  358   4.482   1.452   9.168  0.1445 -0.5845 -0.4838
    5CHL1  H24A  359   4.396   1.410   9.223 -0.0338  1.4376  0.8901
    5CHL1  H24B  360   4.461   1.561   9.162  0.0278 -0.4402  1.6788
    5CHL1   C25  361   4.494   1.404   9.017  0.1664  0.2820 -0.0798
    5CHL1   H25  362   4.593   1.435   8.979  0.8204 -1.5033  0.1107
    5CHL1   C26  363   4.493   1.252   9.009  0.7086 -0.2305 -0.4387
    5CHL1  H26A  364   4.550   1.204   9.091  2.6496  0.6603 -1.1885
    5CHL1  H26B  365   4.394   1.205   9.027  0.9732 -1.0026 -0.9692
    5CHL1  H26C  366   4.543   1.215   8.917  2.9438  1.5671 -0.0403
    5CHL1   C27  367   4.375   1.446   8.935  0.9372  0.3164  0.0779
    5CHL1  H27A  368   4.388   1.394   8.838 -0.7895 -1.8336  0.9142
    5CHL1  H27B  369   4.279   1.417   8.983  1.0522  0.8983  0.6718
    5CHL1  H27C  370   4.359   1.552   8.909 -2.0176 -0.1286 -0.2497
    6CHL1    C3  371   0.358   5.292  10.535  0.1891 -0.7326  0.0885
    6CHL1    H3  372   0.365   5.191  10.581 -3.7069 -1.4492 -0.4999
    6CHL1    O3  373   0.314   5.376  10.642  0.0048 -0.1713 -0.0698
    6CHL1   H3'  374   0.308   5.462  10.600 -0.0262 -1.3101 -2.5706
    6CHL1    C4  375   0.476   5.346  10.465  0.1113  0.6227 -0.0039
    6CHL1   H4A  376   0.466   5.452  10.434  0.8829  1.2973  1.8767
    6CHL1   H4B  377   0.567   5.352  10.529  0.9527  0.0067 -1.1035
    6CHL1    C5  378   0.511   5.264  10.340  0.0197 -0.5563  0.2756
    6CHL1    C6  379   0.630   5.209  10.327 -0.0631 -0.1529  0.3798
    6CHL1    H6  380   0.700   5.229  10.409  1.4409 -0.0849 -0.8659
    6CHL1    C7  381   0.677   5.133  10.203  0.5923 -0.3605 -0.3790
    6CHL1   H7A  382   0.783   5.157  10.177  1.6403 -3.1009  0.9751
    6CHL1   H7B  383   0.676   5.026  10.234 -0.4261  0.1043  1.3167
    6CHL1    C8  384   0.576   5.160  10.076  0.5947 -0.3204 -0.3311
    6CHL1    H8  385   0.600   5.263  10.043  1.6953 -0.0851  1.0629
    6CHL1   C14  386   0.593   5.056   9.967 -0.1451  0.0893  0.2202
    6CHL1   H14  387   0.567   4.959  10.014  1.7660  0.1862  1.5947
    6CHL1   C15  388   0.735   5.044   9.912  0.2535 -0.3384  0.0244
    6CHL1  H15A  389   0.777   5.147   9.904 -1.0976  0.1784 -0.7211
    6CHL1  H15B  390   0.807   4.984   9.971  1.4633  0.8278 -0.1949
    6CHL1   C16  391   0.726   4.977   9.774  1.3809  0.4643  0.5898
    6CHL1  H16A  392   0.752   5.048   9.693 -0.1289  0.3979  0.0156
    6CHL1  H16B  393   0.785   4.884   9.757  0.3146 -0.0296 -0.5318
    6CHL1   C17  394   0.572   4.965   9.751 -0.9753  0.7758  0.6009
    6CHL1   H17  395   0.536   4.865   9.781 -1.1937  0.4710 -0.6289
    6CHL1   C13  396   0.504   5.072   9.841 -0.0764 -0.5801 -0.1383
    6CHL1   C18  397   0.514   5.208   9.768  1.0610  0.4443 -0.6753
    6CHL1  H18A  398   0.451   5.205   9.677  0.3925 -0.7096 -0.1968
    6CHL1  H18B  399   0.513   5.297   9.835  3.3569 -0.2549  0.4198
    6CHL1  H18C  400   0.618   5.231   9.736  1.1285  1.0563 -0.0448
    6CHL1   C12  401   0.362   5.059   9.888  0.1261  0.2607  0.5701
    6CHL1  H12A  402   0.289   5.068   9.805  2.9842  1.9594 -1.9500
    6CHL1  H12B  403   0.345   4.959   9.933 -1.0296  1.0667  2.0746
    6CHL1   C11  404   0.328   5.159  10.003  0.4638  0.0529  0.2246
    6CHL1  H11A  405   0.324   5.256   9.949  0.2384  1.1042  2.0495
    6CHL1  H11B  406   0.224   5.141  10.038 -0.4889  1.3600 -1.7556
    6CHL1    C9  407   0.429   5.155  10.122 -0.3682  0.0189 -0.4408
    6CHL1    H9  408   0.427   5.055  10.170  3.6467 -1.1950 -2.3287
    6CHL1   C10  409   0.395   5.254  10.234 -0.2360  0.4795  0.5995
    6CHL1   C19  410   0.364   5.387  10.159 -0.3898  0.5182 -0.6646
    6CHL1  H19A  411   0.381   5.469  10.232  1.1568 -0.9265  0.6772
    6CHL1  H19B  412   0.428   5.396  10.069  2.3290 -0.6178  1.0244
    6CHL1  H19C  413   0.256   5.381  10.132 -0.8913  0.4084  1.2256
    6CHL1    C1  414   0.270   5.199  10.315 -0.7677 -0.5641  0.3479
    6CHL1   H1A  415   0.180   5.195  10.250 -0.9077 -1.5210  0.5731
    6CHL1   H1B  416   0.281   5.092  10.346 -0.5721 -0.5436  0.3483
    6CHL1    C2  417   0.236   5.286  10.436 -0.4019 -0.4277  0.5229
    6CHL1   H2A  418   0.156   5.246  10.502  1.6646 -2.0218  2.1866
    6CHL1   H2B  419   0.223   5.392  10.405 -0.4705 -0.9978 -1.6196
    6CHL1   C20  420   0.545   4.957   9.595 -0.4015 -0.1819 -0.4436
    6CHL1   H20  421   0.576   5.054   9.552  0.3204  0.8262  2.1817
    6CHL1   C21  422   0.391   4.939   9.573 -0.1778 -0.9062  1.0419
    6CHL1  H21A  423   0.369   4.843   9.624  0.1633 -1.6275 -0.1157
    6CHL1  H21B  424   0.360   4.927   9.466  3.6923  0.6318 -0.4197
    6CHL1  H21C  425   0.339   5.023   9.624  1.1489  0.2654  0.5186
    6CHL1   C22  426   0.626   4.842   9.534 -0.3464  0.2425 -0.6460
    6CHL1  H22A  427   0.736   4.853   9.551 -0.2926  0.0053 -0.8371
    6CHL1  H22B  428   0.592   4.752   9.589 -1.4975  0.7594 -0.4941
    6CHL1   C23  429   0.617   4.812   9.387 -0.3653  0.0890  0.0014
    6CHL1  H23A  430   0.645   4.705   9.381  0.2970  0.2994 -0.7627
    6CHL1  H23B  431   0.511   4.810   9.354 -0.7626 -2.2231  1.2526
    6CHL1   C24  432   0.691   4.891   9.287 -0.0123 -0.2003  0.7712
    6CHL1  H24A  433   0.798   4.904   9.313 -0.0348 -1.1837  1.4105
    6CHL1  H24B  434   0.672   4.841   9.190 -0.0941 -2.0646  1.6951
    6CHL1   C25  435   0.634   5.039   9.280  0.4297  0.0756 -0.1562
    6CHL1   H25  436   0.639   5.090   9.379 -2.5171  0.2565 -0.0091
    6CHL1   C26  437   0.724   5.123   9.197  0.3014  0.4477 -0.5115
    6CHL1  H26A  438   0.825   5.110   9.239 -0.1421  0.0526  0.4594
    6CHL1  H26B  439   0.727   5.084   9.093  0.2149 -0.2147 -0.2679
    6CHL1  H26C  440   0.690   5.229   9.207 -0.1822  0.2429  0.0350
    6CHL1   C27  441   0.486   5.048   9.222 -0.4336 -0.3023 -0.1889
    6CHL1  H27A  442   0.449   5.149   9.250 -0.6326 -0.7808  1.3958
    6CHL1  H27B  443   0.488   5.043   9.111 -0.5800 -1.8992 -0.1444
    6CHL1  H27C  444   0.424   4.960   9.253  1.0915 -1.0909  0.7368
    7CHL1    C3  445   6.019   1.925  10.481  0.6047  0.2233  0.0508
    7CHL1    H3  446   6.092   1.868  10.419 -1.3785 -1.3286 -0.9810
    7CHL1    O3  447   6.045   1.912  10.623 -0.2540  0.0139 -0.2126
    7CHL1   H3'  448   5.957   1.910  10.660  1.0183 -0.9930  3.1059
    7CHL1    C4  449   6.021   2.071  10.437  0.6382  0.6190  0.7056
    7CHL1   H4A  450   5.937   2.118  10.493 -1.0843 -2.0933  0.5340
    7CHL1   H4B  451   6.113   2.129  10.462  0.7841  0.5783  0.2669
    7CHL1    C5  452   5.988   2.076  10.289  0.8562 -0.3404 -0.0179
    7CHL1    C6  453   6.067   2.133  10.197 -0.1654  0.1946  0.4234
    7CHL1    H6  454   6.164   2.173  10.232  0.6086 -1.0132 -0.2523
    7CHL1    C7  455   6.039   2.144  10.052 -0.6288 -0.0439 -0.1359
    7CHL1   H7A  456   6.075   2.239  10.008 -0.0314 -0.0711  0.2913
    7CHL1   H7B  457   6.087   2.058   9.999 -1.0905 -2.1096  2.5556
    7CHL1    C8  458   5.887   2.125  10.021 -0.2994 -0.0592  0.4561
    7CHL1    H8  459   5.848   2.222  10.058  1.6513  0.5040  1.1452
    7CHL1   C14  460   5.870   2.106   9.873 -0.2709  0.0669  0.0998
    7CHL1   H14  461   5.929   2.013   9.862  3.2955  2.0495  0.8221
    7CHL1   C15  462   5.931   2.211   9.774  0.0149 -0.0329 -0.2388
    7CHL1  H15A  463   5.909   2.312   9.815 -2.4137 -0.3492 -0.5969
    7CHL1  H15B  464   6.039   2.186   9.768 -0.6332 -2.8449 -2.1950
    7CHL1   C16  465   5.858   2.179   9.644 -0.2741  0.0148  0.2087
    7CHL1  H16A  466   5.813   2.280   9.628  3.1031  1.4013 -1.3602
    7CHL1  H16B  467   5.922   2.167   9.555  0.0787  3.2875 -0.1176
    7CHL1   C17  468   5.752   2.075   9.676 -0.8208 -0.4117  0.4919
    7CHL1   H17  469   5.808   1.983   9.651  2.5048  1.5206  0.2108
    7CHL1   C13  470   5.730   2.086   9.824 -0.7127 -0.0986 -0.2736
    7CHL1   C18  471   5.636   2.205   9.865 -0.4185 -0.3317  0.1185
    7CHL1  H18A  472   5.641   2.239   9.970 -2.2237  4.0503 -0.9916
    7CHL1  H18B  473   5.655   2.293   9.799  1.9519 -0.8401  0.0142
    7CHL1  H18C  474   5.536   2.159   9.853 -0.6545 -0.0608  0.9983
    7CHL1   C12  475   5.691   1.947   9.887 -0.6679  0.4580 -0.0954
    7CHL1  H12A  476   5.584   1.925   9.865 -0.7236  1.8582 -1.3847
    7CHL1  H12B  477   5.757   1.866   9.849 -3.2552 -1.9507  0.1945
    7CHL1   C11  478   5.704   1.953  10.038  0.8703  0.7332  0.5156
    7CHL1  H11A  479   5.623   2.020  10.073 -0.6166  0.7244 -2.6586
    7CHL1  H11B  480   5.693   1.848  10.074  2.9898  0.8911  1.8446
    7CHL1    C9  481   5.838   2.000  10.092  0.3512 -0.6457 -1.0425
    7CHL1    H9  482   5.914   1.920  10.079  0.6544 -0.4903 -0.2441
    7CHL1   C10  483   5.852   2.004  10.250 -0.2706 -0.5715 -0.7713
    7CHL1   C19  484   5.742   2.095  10.301 -0.0491  1.3821 -0.0077
    7CHL1  H19A  485   5.638   2.058  10.285  0.4964  0.2563 -1.1172
    7CHL1  H19B  486   5.747   2.109  10.411  1.4090 -4.1955  0.9743
    7CHL1  H19C  487   5.761   2.193  10.253  1.7271  0.4798 -1.2690
    7CHL1    C1  488   5.838   1.863  10.304  0.1417  0.1296  0.1785
    7CHL1   H1A  489   5.734   1.825  10.301  0.6717 -1.4578  1.0034
    7CHL1   H1B  490   5.886   1.776  10.254 -2.2244 -1.9924  1.3701
    7CHL1    C2  491   5.880   1.861  10.447 -0.5687  0.2374 -0.1116
    7CHL1   H2A  492   5.879   1.756  10.484 -1.0336  0.0095 -0.7580
    7CHL1   H2B  493   5.795   1.900  10.507  0.3976 -1.2886  2.4322
    7CHL1   C20  494   5.637   2.072   9.571  0.2474  0.1594 -0.0071
    7CHL1   H20  495   5.574   2.157   9.606  0.7963  0.4097  0.3778
    7CHL1   C21  496   5.551   1.950   9.599 -0.1032  0.0800 -0.4370
    7CHL1  H21A  497   5.475   1.940   9.518 -2.3266  2.3220  1.2220
    7CHL1  H21B  498   5.498   1.972   9.694 -1.0528 -0.9641 -0.7029
    7CHL1  H21C  499   5.614   1.861   9.618  1.0190  0.8270 -0.5572
    7CHL1   C22  500   5.682   2.096   9.420 -0.8484 -0.1261 -0.3026
    7CHL1  H22A  501   5.737   2.192   9.424  1.4726 -1.4324  0.8082
    7CHL1  H22B  502   5.746   2.011   9.388 -1.4556 -0.2220 -1.3445
    7CHL1   C23  503   5.565   2.133   9.329  0.1998 -0.0826  0.2250
    7CHL1  H23A  504   5.500   2.047   9.301 -0.3353 -0.0051  1.1712
    7CHL1  H23B  505   5.510   2.208   9.390 -0.6994  0.5059 -1.2298
    7CHL1   C24  506   5.611   2.209   9.202  0.5472  0.2430 -0.1919
    7CHL1  H24A  507   5.681   2.292   9.227 -0.5118  0.5914  1.8110
    7CHL1  H24B  508   5.671   2.133   9.148  0.0876 -0.0607 -0.2780
    7CHL1   C25  509   5.492   2.260   9.118  1.0478  0.0959 -0.4890
    7CHL1   H25  510   5.423   2.175   9.102  2.0840 -0.8392 -0.1315
    7CHL1   C26  511   5.399   2.367   9.182  0.5694  0.6625  0.9113
    7CHL1  H26A  512   5.313   2.384   9.114  1.2830  0.1680 -0.1360
    7CHL1  H26B  513   5.369   2.344   9.287  2.2939  1.3153  1.5846
    7CHL1  H26C  514   5.454   2.463   9.191  0.9259  0.3243  2.7660
    7CHL1   C27  515   5.547   2.315   8.987  0.5390 -0.6211 -0.8409
    7CHL1  H27A  516   5.472   2.314   8.905 -0.6075  1.0824  0.1217
    7CHL1  H27B  517   5.594   2.415   8.997 -2.0002  0.8495 -2.4668
    7CHL1  H27C  518   5.636   2.257   8.953  0.1123 -0.5666 -2.1208
    8CHL1    C3  519   4.091   3.561  10.574 -0.4379  0.2665 -0.8171
    8CHL1    H3  520   4.057   3.459  10.543 -2.8721  0.6019  0.4897
    8CHL1    O3  521   4.107   3.559  10.718 -0.2533  0.2746 -0.3028
    8CHL1   H3'  522   4.178   3.496  10.734 -0.4877 -0.0313 -0.4449
    8CHL1    C4  523   4.220   3.586  10.493 -0.1015  0.5393  0.9606
    8CHL1   H4A  524   4.258   3.687  10.519  0.1369  0.2124  1.9125
    8CHL1   H4B  525   4.296   3.506  10.503 -0.9245 -0.3860  0.0524
    8CHL1    C5  526   4.186   3.588  10.343  0.1569  0.2467  0.0200
    8CHL1    C6  527   4.260   3.516  10.256  0.5229  0.2768 -0.4697
    8CHL1    H6  528   4.340   3.446  10.283 -0.6962 -0.4373  1.4963
    8CHL1    C7  529   4.241   3.527  10.106  0.6437  0.6096  0.3554
    8CHL1   H7A  530   4.341   3.533  10.058  0.7186 -1.4248  0.1659
    8CHL1   H7B  531   4.187   3.435  10.074 -0.2486  1.1039  0.4188
    8CHL1    C8  532   4.155   3.649  10.066 -0.3790  0.8009  0.8651
    8CHL1    H8  533   4.206   3.747  10.079 -0.8397  0.9154  1.9735
    8CHL1   C14  534   4.117   3.646   9.917 -0.0430 -0.4943  0.2525
    8CHL1   H14  535   4.060   3.550   9.915  0.6317 -0.8975 -0.1983
    8CHL1   C15  536   4.230   3.634   9.818  0.9401 -0.6174  0.3346
    8CHL1  H15A  537   4.286   3.728   9.837 -2.3492  1.5436 -0.0018
    8CHL1  H15B  538   4.295   3.544   9.829 -0.7128 -2.2403 -2.1466
    8CHL1   C16  539   4.167   3.666   9.679  0.0556 -0.1740 -0.2125
    8CHL1  H16A  540   4.221   3.755   9.641  2.8015 -1.0967  1.2231
    8CHL1  H16B  541   4.191   3.579   9.614  1.5435 -0.7817  1.0990
    8CHL1   C17  542   4.015   3.705   9.708  0.2567  0.6192  0.1828
    8CHL1   H17  543   3.954   3.613   9.702 -0.1197  0.6731  2.4490
    8CHL1   C13  544   4.019   3.755   9.855  0.0309  0.8822  0.1190
    8CHL1   C18  545   4.075   3.894   9.864 -0.4876 -0.1039  0.4967
    8CHL1  H18A  546   4.154   3.935   9.798 -0.8155  1.6926  1.1697
    8CHL1  H18B  547   3.986   3.959   9.854  0.3747  1.0578  0.1156
    8CHL1  H18C  548   4.110   3.911   9.968  0.8987 -0.8097  0.1743
    8CHL1   C12  549   3.893   3.735   9.943  0.3699  0.1831 -0.6603
    8CHL1  H12A  550   3.812   3.809   9.926 -0.0922 -0.4450 -1.1981
    8CHL1  H12B  551   3.841   3.640   9.921 -0.0047  0.2918 -0.2681
    8CHL1   C11  552   3.922   3.755  10.094  0.2478 -0.0680 -0.0095
    8CHL1  H11A  553   3.953   3.862  10.100 -0.2693  0.1628 -1.0819
    8CHL1  H11B  554   3.830   3.732  10.152 -0.8425 -0.2939 -1.7536
    8CHL1    C9  555   4.033   3.661  10.153 -0.1918 -0.9766  0.0348
    8CHL1    H9  556   3.990   3.559  10.150 -0.7409 -0.7717  0.7959
    8CHL1   C10  557   4.070   3.681  10.306 -0.0809  0.3942  0.7399
    8CHL1   C19  558   4.110   3.830  10.322  0.4658  0.0033  0.3439
    8CHL1  H19A  559   4.156   3.853  10.421  2.5380 -1.7374 -0.1335
    8CHL1  H19B  560   4.192   3.849  10.249 -0.5737 -1.6612 -1.3412
    8CHL1  H19C  561   4.022   3.897  10.316  0.0197 -0.3690  2.1486
    8CHL1    C1  562   3.942   3.652  10.389  0.2563  0.7865  0.3851
    8CHL1   H1A  563   3.874   3.736  10.364  1.6323  2.2347  1.3211
    8CHL1   H1B  564   3.881   3.562  10.369  1.3292 -0.4238  2.2501
    8CHL1    C2  565   3.968   3.653  10.541 -1.0056  0.5917 -0.0006
    8CHL1   H2A  566   3.878   3.623  10.599  0.2203 -1.6340  0.8819
    8CHL1   H2B  567   3.988   3.758  10.570 -0.2038  0.7314 -0.9898
    8CHL1   C20  568   3.962   3.799   9.594  1.1929  0.5064  0.1400
    8CHL1   H20  569   4.023   3.889   9.615 -0.6874  1.3945  2.1973
    8CHL1   C21  570   3.810   3.827   9.611 -0.0486  0.2045 -0.3312
    8CHL1  H21A  571   3.753   3.741   9.571  2.9054 -2.8384  1.4669
    8CHL1  H21B  572   3.777   3.919   9.558  0.4589 -0.2007 -1.3859
    8CHL1  H21C  573   3.781   3.829   9.718 -1.0054 -1.0761 -0.5382
    8CHL1   C22  574   3.988   3.743   9.450 -0.5017 -0.4182 -0.2529
    8CHL1  H22A  575   4.098   3.728   9.448 -0.2207  0.2598  3.3583
    8CHL1  H22B  576   3.936   3.645   9.444  0.0423 -0.7377  0.1497
    8CHL1   C23  577   3.943   3.844   9.338  0.4272 -0.2554 -0.4994
    8CHL1  H23A  578   3.836   3.859   9.365  0.8279  0.5340  0.7042
    8CHL1  H23B  579   3.994   3.940   9.360  2.4054 -1.3498 -0.1202
    8CHL1   C24  580   3.974   3.798   9.200 -0.1035 -0.8113 -0.3665
    8CHL1  H24A  581   3.940   3.694   9.180 -1.7314 -0.1791 -1.0120
    8CHL1  H24B  582   3.914   3.864   9.134 -0.5936 -0.8140  0.0691
    8CHL1   C25  583   4.122   3.805   9.166 -0.2279 -0.0364 -0.2057
    8CHL1   H25  584   4.182   3.750   9.241  1.2870 -0.8629 -1.9424
    8CHL1   C26  585   4.142   3.733   9.032  0.2335  0.2000  0.3896
    8CHL1  H26A  586   4.056   3.761   8.968  0.9266  1.8335  0.1009
    8CHL1  H26B  587   4.236   3.767   8.983  1.3732 -2.0188  0.8911
    8CHL1  H26C  588   4.142   3.622   9.040 -1.8897  0.0194 -1.4103
    8CHL1   C27  589   4.169   3.949   9.164  0.5512 -0.3382  0.5463
    8CHL1  H27A  590   4.257   3.955   9.097 -0.6645  1.2938 -0.9779
    8CHL1  H27B  591   4.094   4.017   9.120 -0.7608 -1.9163  0.2361
    8CHL1  H27C  592   4.193   3.992   9.263  1.7429 -0.7426  0.4507
    9CHL1    C3  593   1.446   0.207  10.344 -0.0956  0.2880 -0.0410
    9CHL1    H3  594   1.450   0.098  10.325 -0.3808  0.6510 -2.4005
    9CHL1    O3  595   1.486   0.227  10.482 -0.4819  0.3497  0.0165
    9CHL1   H3'  596   1.484   0.322  10.493  3.1181  0.5829 -0.0506
    9CHL1    C4  597   1.561   0.268  10.256  0.0041  0.7670 -0.4723
    9CHL1   H4A  598   1.559   0.378  10.275 -1.2955  1.0615 -2.0959
    9CHL1   H4B  599   1.654   0.220  10.292 -0.1958  0.6055 -0.1659
    9CHL1    C5  600   1.531   0.248  10.110  0.2339  0.0515  0.4906
    9CHL1    C6  601   1.620   0.184  10.030  0.1170 -0.1349 -0.5512
    9CHL1    H6  602   1.716   0.156  10.076 -0.8853 -1.5107  0.8032
    9CHL1    C7  603   1.600   0.152   9.889 -0.1210 -0.4790  0.1127
    9CHL1   H7A  604   1.695   0.162   9.831  0.6540  2.2421  1.6709
    9CHL1   H7B  605   1.570   0.047   9.867  1.3717 -0.9803  0.3291
    9CHL1    C8  606   1.480   0.236   9.832 -1.2528  0.4151  0.2955
    9CHL1    H8  607   1.509   0.343   9.823 -0.6921  0.7214  4.0780
    9CHL1   C14  608   1.450   0.188   9.685  0.0301  0.8918 -0.2912
    9CHL1   H14  609   1.419   0.083   9.705  1.2344  0.3728 -1.0588
    9CHL1   C15  610   1.561   0.179   9.574 -0.3914  0.2639  0.2775
    9CHL1  H15A  611   1.632   0.263   9.588 -1.0028  0.8581 -0.1232
    9CHL1  H15B  612   1.616   0.083   9.589  0.4085  0.9509  2.0167
    9CHL1   C16  613   1.496   0.164   9.439  0.1956 -0.3272  0.4143
    9CHL1  H16A  614   1.532   0.255   9.385 -0.2287 -0.3729  0.0524
    9CHL1  H16B  615   1.518   0.075   9.377  2.1858  0.5441 -0.2315
    9CHL1   C17  616   1.339   0.181   9.471 -0.0522 -0.0621  0.1461
    9CHL1   H17  617   1.295   0.081   9.490  1.8971 -0.8993  0.5120
    9CHL1   C13  618   1.334   0.252   9.613 -0.2211 -0.5101  0.3278
    9CHL1   C18  619   1.372   0.404   9.595  0.2091 -0.7535 -0.2364
    9CHL1  H18A  620   1.283   0.457   9.553  1.0132  0.5872 -0.2987
    9CHL1  H18B  621   1.394   0.454   9.692 -0.5192 -1.8676  0.5226
    9CHL1  H18C  622   1.461   0.418   9.531 -0.6034  0.8840 -1.0997
    9CHL1   C12  623   1.211   0.223   9.701  0.2273 -0.4741  0.1572
    9CHL1  H12A  624   1.123   0.280   9.665 -0.6826 -2.0368 -0.1922
    9CHL1  H12B  625   1.176   0.118   9.709  0.0906 -0.6213 -1.8496
    9CHL1   C11  626   1.228   0.274   9.848 -0.1735 -0.3759  0.4429
    9CHL1  H11A  627   1.230   0.385   9.839 -0.4217 -0.4727 -1.0405
    9CHL1  H11B  628   1.143   0.249   9.914 -1.2845  1.3376 -0.2806
    9CHL1    C9  629   1.361   0.226   9.921 -0.0752  0.0275 -0.1229
    9CHL1    H9  630   1.336   0.119   9.939  3.2044 -0.7700  0.4300
    9CHL1   C10  631   1.387   0.283  10.063 -0.0033 -0.7454 -0.5862
    9CHL1   C19  632   1.383   0.438  10.051 -0.2849  0.1367  0.4146
    9CHL1  H19A  633   1.459   0.480   9.981  1.0044 -1.1352  1.0065
    9CHL1  H19B  634   1.283   0.476  10.023 -0.7509 -0.3656  1.3807
    9CHL1  H19C  635   1.409   0.483  10.149 -1.5365  0.7839  0.4715
    9CHL1    C1  636   1.280   0.235  10.164 -0.7972  0.7467  0.6397
    9CHL1   H1A  637   1.183   0.287  10.148 -0.6550  1.6083  2.3290
    9CHL1   H1B  638   1.256   0.128  10.147  1.6746  0.3962 -1.0943
    9CHL1    C2  639   1.311   0.259  10.312 -0.7324 -0.5904 -0.4652
    9CHL1   H2A  640   1.242   0.201  10.377  0.4827 -0.3528  1.0962
    9CHL1   H2B  641   1.309   0.367  10.339  2.1896 -0.2957 -1.1076
    9CHL1   C20  642   1.272   0.251   9.348 -0.3857  0.5693  1.1776
    9CHL1   H20  643   1.310   0.355   9.339  1.0867 -0.0625 -0.3924
    9CHL1   C21  644   1.124   0.264   9.380 -0.1957  0.9891  0.4835
    9CHL1  H21A  645   1.086   0.161   9.397 -2.3302  1.8314  1.0676
    9CHL1  H21B  646   1.077   0.291   9.282  0.8650 -0.6877 -0.5329
    9CHL1  H21C  647   1.085   0.322   9.466 -4.3148 -2.7007  1.4869
    9CHL1   C22  648   1.302   0.171   9.211  0.2571 -0.5738  0.3776
    9CHL1  H22A  649   1.400   0.119   9.211  1.3876  1.4577  1.2834
    9CHL1  H22B  650   1.213   0.106   9.200 -2.2450  2.8206 -1.5177
    9CHL1   C23  651   1.290   0.256   9.089 -0.0730  0.0148  0.3782
    9CHL1  H23A  652   1.291   0.192   8.998  1.6975 -1.6664  1.4820
    9CHL1  H23B  653   1.196   0.314   9.097 -2.0572 -2.6615 -1.4739
    9CHL1   C24  654   1.398   0.361   9.076 -0.3933 -0.6078  0.1230
    9CHL1  H24A  655   1.408   0.426   9.165 -0.4545 -1.5196  0.8149
    9CHL1  H24B  656   1.497   0.311   9.064  0.7938  1.9465 -1.5531
    9CHL1   C25  657   1.384   0.447   8.943 -0.1631 -0.1033  0.7549
    9CHL1   H25  658   1.341   0.390   8.857  1.6633  0.0903 -0.3446
    9CHL1   C26  659   1.293   0.575   8.957  0.6713  0.2517  0.0253
    9CHL1  H26A  660   1.297   0.634   8.864 -1.7296  1.9264  0.8920
    9CHL1  H26B  661   1.188   0.540   8.966  0.1266  2.2436  2.6968
    9CHL1  H26C  662   1.321   0.639   9.044  1.7609 -0.1107 -0.0413
    9CHL1   C27  663   1.521   0.508   8.898  0.1103  0.2721  0.9118
    9CHL1  H27A  664   1.594   0.434   8.859  0.8137  1.6420 -0.4902
    9CHL1  H27B  665   1.499   0.566   8.806 -0.3024  0.3542  1.0603
    9CHL1  H27C  666   1.551   0.582   8.976 -1.1970  0.0924  1.6281
   10CHL1    C3  667   5.393   4.100  10.233 -0.1712 -0.2478  0.1602
   10CHL1    H3  668   5.336   4.008  10.208  0.3107 -0.2227 -1.1451
   10CHL1    O3  669   5.391   4.124  10.372  0.2930  0.1748 -0.3211
   10CHL1   H3'  670   5.475   4.168  10.389  0.4615 -0.0193 -0.6365
   10CHL1    C4  671   5.536   4.090  10.184  0.1320 -0.5421  0.1267
   10CHL1   H4A  672   5.599   4.172  10.224  1.1031 -1.8123  1.3262
   10CHL1   H4B  673   5.583   3.996  10.221  1.3797 -0.0406 -0.1311
   10CHL1    C5  674   5.553   4.089  10.031 -0.1276  0.0278  0.0506
   10CHL1    C6  675   5.615   3.993   9.955 -0.0807 -0.5184  0.0128
   10CHL1    H6  676   5.656   3.902  10.000  0.7262 -1.4680 -2.4721
   10CHL1    C7  677   5.620   4.006   9.808  0.1146  0.3474 -0.0505
   10CHL1   H7A  678   5.727   3.989   9.783  0.2672 -0.7015  1.2492
   10CHL1   H7B  679   5.559   3.929   9.756 -0.0700 -0.1454  0.8738
   10CHL1    C8  680   5.587   4.146   9.753  0.1795 -0.2418 -1.1004
   10CHL1    H8  681   5.674   4.208   9.785 -0.2801 -1.7564  4.1717
   10CHL1   C14  682   5.566   4.132   9.602 -0.1322  0.2658  0.6225
   10CHL1   H14  683   5.476   4.073   9.575 -0.0916  1.3833 -2.2189
   10CHL1   C15  684   5.687   4.064   9.527  0.3884  0.2014  0.3947
   10CHL1  H15A  685   5.781   4.091   9.580  0.7595  1.6037 -0.9076
   10CHL1  H15B  686   5.677   3.954   9.533  0.0216  0.1649 -0.6615
   10CHL1   C16  687   5.675   4.115   9.384  1.1084 -0.3581  0.3556
   10CHL1  H16A  688   5.772   4.163   9.359  0.3416  1.4769  0.7243
   10CHL1  H16B  689   5.656   4.034   9.310  3.3263 -0.2212 -0.4563
   10CHL1   C17  690   5.560   4.228   9.383 -0.4402  0.0865  0.2282
   10CHL1   H17  691   5.465   4.185   9.345 -0.7663  0.6193  0.4260
   10CHL1   C13  692   5.539   4.265   9.532 -0.4931 -0.2688 -0.4365
   10CHL1   C18  693   5.643   4.378   9.573 -0.9154  0.2335  0.1537
   10CHL1  H18A  694   5.649   4.395   9.683  2.2709 -1.3141  0.3342
   10CHL1  H18B  695   5.745   4.344   9.544 -0.6966 -0.5296  1.7022
   10CHL1  H18C  696   5.620   4.477   9.528  1.4859  0.5141 -0.6173
   10CHL1   C12  697   5.403   4.313   9.577  0.4199 -0.4268  0.4781
   10CHL1  H12A  698   5.386   4.416   9.540  0.2746 -1.2381 -1.9230
   10CHL1  H12B  699   5.324   4.240   9.548  1.9130 -1.5711 -0.9820
   10CHL1   C11  700   5.401   4.317   9.737 -0.5156  0.5932  0.4631
   10CHL1  H11A  701   5.448   4.414   9.766  0.6119  0.0877  0.3759
   10CHL1  H11B  702   5.297   4.327   9.774 -1.3572 -1.6210 -1.0639
   10CHL1    C9  703   5.462   4.199   9.814  0.7734 -0.1803 -0.3255
   10CHL1    H9  704   5.392   4.114   9.798  0.0215  0.3363  0.1109
   10CHL1   C10  705   5.481   4.216   9.969  0.3322  0.8190  0.1134
   10CHL1   C19  706   5.563   4.342  10.000 -0.2674 -0.0261 -0.2736
   10CHL1  H19A  707   5.506   4.432   9.968  0.7293  1.7382  2.5354
   10CHL1  H19B  708   5.569   4.342  10.111 -1.2073  1.4747 -0.1936
   10CHL1  H19C  709   5.668   4.337   9.964 -0.3729 -0.5016 -0.5240
   10CHL1    C1  710   5.337   4.238  10.029  0.5372 -0.1896  0.0704
   10CHL1   H1A  711   5.300   4.341  10.011  0.5610 -0.2002 -0.0395
   10CHL1   H1B  712   5.269   4.166   9.980 -0.9377  0.6892  0.7765
   10CHL1    C2  713   5.315   4.219  10.174 -1.0015 -0.3820 -0.4633
   10CHL1   H2A  714   5.205   4.203  10.183 -1.0293 -0.6916 -1.2811
   10CHL1   H2B  715   5.335   4.317  10.221  2.8308 -1.7639  1.1899
   10CHL1   C20  716   5.592   4.343   9.278  0.0143  0.3556  0.2298
   10CHL1   H20  717   5.686   4.401   9.295  0.0249  0.7652 -1.1163
   10CHL1   C21  718   5.476   4.445   9.275  0.3078  0.0876  0.3977
   10CHL1  H21A  719   5.475   4.507   9.368  1.4093  0.9273 -0.1368
   10CHL1  H21B  720   5.386   4.380   9.264  1.9185 -1.8833 -2.0534
   10CHL1  H21C  721   5.487   4.514   9.189 -0.0977 -0.5409 -0.1671
   10CHL1   C22  722   5.611   4.280   9.135 -0.8854  0.3853 -0.1411
   10CHL1  H22A  723   5.666   4.185   9.143 -0.1170  0.8926  0.7674
   10CHL1  H22B  724   5.514   4.252   9.088 -3.0412  0.2947  3.9330
   10CHL1   C23  725   5.693   4.372   9.036  0.7851  0.6410  0.2723
   10CHL1  H23A  726   5.652   4.473   9.058  0.5902  0.7317 -0.4896
   10CHL1  H23B  727   5.798   4.373   9.072  0.0828 -0.9370  2.6161
   10CHL1   C24  728   5.695   4.332   8.888  0.0337  0.6451 -0.0323
   10CHL1  H24A  729   5.709   4.222   8.895 -0.2226  0.5198 -1.3192
   10CHL1  H24B  730   5.592   4.347   8.852  0.8096  2.2822 -1.7188
   10CHL1   C25  731   5.788   4.409   8.787 -0.0777  1.0711  0.5183
   10CHL1   H25  732   5.894   4.380   8.806 -0.2715 -0.7195 -0.8411
   10CHL1   C26  733   5.762   4.361   8.644  0.2852 -0.1463  0.4426
   10CHL1  H26A  734   5.800   4.257   8.634  0.1070  0.0174 -3.2625
   10CHL1  H26B  735   5.655   4.367   8.613  0.9772 -0.0483 -2.1805
   10CHL1  H26C  736   5.830   4.419   8.578  3.3336 -3.7326  0.1319
   10CHL1   C27  737   5.769   4.555   8.802 -0.7606  0.2960 -0.7163
   10CHL1  H27A  738   5.825   4.574   8.896  0.4693  0.8841 -1.5414
   10CHL1  H27B  739   5.818   4.603   8.715  0.7403 -1.7489 -1.0775
   10CHL1  H27C  740   5.663   4.588   8.810 -0.4216  1.0526  1.6073
   11CHL1    C3  741   2.547   0.360  10.142 -0.1407 -0.0201 -0.2195
   11CHL1    H3  742   2.629   0.285  10.148 -0.7672 -0.8207 -1.3436
   11CHL1    O3  743   2.501   0.386  10.275 -0.7132 -0.1546  0.3125
   11CHL1   H3'  744   2.468   0.303  10.312  2.0073 -0.9174  1.2762
   11CHL1    C4  745   2.599   0.490  10.075 -0.1743 -0.4080  0.1587
   11CHL1   H4A  746   2.531   0.574  10.098  0.2656 -0.3911  1.4969
   11CHL1   H4B  747   2.693   0.507  10.131 -0.8394 -0.5921  1.3684
   11CHL1    C5  748   2.635   0.469   9.929  0.4684  0.0151 -0.4491
   11CHL1    C6  749   2.757   0.496   9.883  0.3340  0.2239  0.5484
   11CHL1    H6  750   2.823   0.553   9.950 -0.2547  1.2162  0.3110
   11CHL1    C7  751   2.810   0.471   9.745 -0.2780 -0.1127  0.3106
   11CHL1   H7A  752   2.869   0.556   9.705  0.3915 -0.2359  1.0199
   11CHL1   H7B  753   2.880   0.387   9.761  0.9336  0.8934  0.4571
   11CHL1    C8  754   2.687   0.449   9.645  0.6479  0.4807 -0.0127
   11CHL1    H8  755   2.638   0.548   9.633 -0.7471 -0.1869 -0.0677
   11CHL1   C14  756   2.726   0.398   9.508  0.1714 -0.2888  0.6562
   11CHL1   H14  757   2.748   0.289   9.518  1.0976 -0.3180 -1.2518
   11CHL1   C15  758   2.850   0.462   9.436 -0.0085  0.3408  0.7128
   11CHL1  H15A  759   2.857   0.573   9.435  1.8204  0.2699 -0.7043
   11CHL1  H15B  760   2.943   0.424   9.483  0.1017 -0.0662  0.1752
   11CHL1   C16  761   2.827   0.412   9.290  0.0385 -0.5748  0.6312
   11CHL1  H16A  762   2.807   0.502   9.229  1.6545  0.1384  1.0940
   11CHL1  H16B  763   2.917   0.358   9.254 -0.6565 -1.2902 -0.0620
   11CHL1   C17  764   2.697   0.330   9.284  0.1386 -0.3389  0.5958
   11CHL1   H17  765   2.725   0.226   9.313  1.3296  0.2205  1.5444
   11CHL1   C13  766   2.614   0.380   9.403 -0.2983 -0.3744  0.0371
   11CHL1   C18  767   2.553   0.523   9.359 -0.1671  0.7210 -0.2194
   11CHL1  H18A  768   2.620   0.592   9.305 -2.7431  1.5693 -2.5732
   11CHL1  H18B  769   2.469   0.500   9.289 -0.1970 -1.0080  0.3455
   11CHL1  H18C  770   2.516   0.571   9.452 -2.4674 -0.5701 -0.3879
   11CHL1   C12  771   2.512   0.280   9.458 -0.4622 -0.2983  0.2699
   11CHL1  H12A  772   2.420   0.269   9.396 -0.7939  1.7862  0.2987
   11CHL1  H12B  773   2.570   0.186   9.460 -0.8665 -0.5668  3.2182
   11CHL1   C11  774   2.458   0.325   9.592 -0.2203 -0.1531 -0.3891
   11CHL1  H11A  775   2.390   0.410   9.575 -0.2933 -0.0150  0.5070
   11CHL1  H11B  776   2.394   0.247   9.638  0.1090 -0.1598  0.0676
   11CHL1    C9  777   2.573   0.348   9.694 -0.3146 -0.1939 -1.0720
   11CHL1    H9  778   2.614   0.245   9.699 -1.4461 -0.7401 -2.2534
   11CHL1   C10  779   2.531   0.396   9.846  0.2444 -0.1778  0.4518
   11CHL1   C19  780   2.410   0.496   9.833  0.1170  0.3888  0.3761
   11CHL1  H19A  781   2.443   0.580   9.769  2.4122 -1.2597 -0.7601
   11CHL1  H19B  782   2.321   0.452   9.783  1.7979 -2.2155 -0.5194
   11CHL1  H19C  783   2.386   0.542   9.932  1.1866  0.0151  0.8246
   11CHL1    C1  784   2.478   0.271   9.922  0.4141  0.2501  0.2641
   11CHL1   H1A  785   2.388   0.240   9.864  0.4740 -1.8025  1.1980
   11CHL1   H1B  786   2.552   0.189   9.916  1.1562  0.9334 -0.0314
   11CHL1    C2  787   2.435   0.299  10.066 -0.7831 -0.4274  0.4088
   11CHL1   H2A  788   2.405   0.208  10.121 -0.1446  0.6421  2.6743
   11CHL1   H2B  789   2.351   0.372  10.064 -0.5803 -0.1603  1.2476
   11CHL1   C20  790   2.627   0.317   9.143  0.4501  0.2450  0.1821
   11CHL1   H20  791   2.566   0.408   9.125  0.5490  0.8617  2.6602
   11CHL1   C21  792   2.530   0.197   9.147 -0.0843  0.5498  0.5780
   11CHL1  H21A  793   2.436   0.210   9.205 -0.8719 -3.1573  0.3960
   11CHL1  H21B  794   2.574   0.110   9.201 -0.7566 -1.7487 -2.2939
   11CHL1  H21C  795   2.509   0.155   9.047  0.6264 -0.5926  0.8857
   11CHL1   C22  796   2.717   0.306   9.019 -0.7210 -0.5632 -1.1550
   11CHL1  H22A  797   2.792   0.387   9.035 -0.3478 -0.9995 -0.6661
   11CHL1  H22B  798   2.778   0.214   9.025  0.8702  0.5272  0.7392
   11CHL1   C23  799   2.662   0.331   8.875  0.0384  1.0312 -0.6504
   11CHL1  H23A  800   2.588   0.251   8.852  0.1455  0.3089  1.3163
   11CHL1  H23B  801   2.612   0.430   8.867  0.8297  1.7738  2.4570
   11CHL1   C24  802   2.779   0.318   8.770  0.3301 -0.3848  0.0423
   11CHL1  H24A  803   2.865   0.388   8.784  0.1584 -0.0999 -0.2893
   11CHL1  H24B  804   2.821   0.219   8.797 -1.6082 -1.1037  0.5483
   11CHL1   C25  805   2.749   0.336   8.621 -0.0036  1.1294 -0.1336
   11CHL1   H25  806   2.843   0.311   8.568  0.1272  1.7850 -0.2273
   11CHL1   C26  807   2.644   0.241   8.566  0.5336  0.1190  0.1466
   11CHL1  H26A  808   2.647   0.267   8.458 -0.9371  1.3345  0.3662
   11CHL1  H26B  809   2.658   0.131   8.580 -2.4063 -0.4862 -0.7905
   11CHL1  H26C  810   2.537   0.249   8.597  0.1497 -1.7276 -0.5303
   11CHL1   C27  811   2.714   0.478   8.594 -0.3711  0.3013 -0.2510
   11CHL1  H27A  812   2.789   0.554   8.625  0.5187 -1.8789  3.5251
   11CHL1  H27B  813   2.694   0.506   8.488  1.0731  0.9223 -0.3821
   11CHL1  H27C  814   2.625   0.509   8.654  0.6260 -1.0946  2.0645
   12CHL1    C3  815   4.360   2.550  10.487 -0.1155  0.3023 -0.8282
   12CHL1    H3  816   4.356   2.442  10.461  0.5814  0.2072 -0.5557
   12CHL1    O3  817   4.330   2.562  10.625  0.2577  0.2339  0.5112
   12CHL1   H3'  818   4.244   2.605  10.619  0.5136  0.6869 -0.0556
   12CHL1    C4  819   4.503   2.592  10.447  0.1684  0.0535  0.3774
   12CHL1   H4A  820   4.497   2.701  10.468 -1.6305  0.0138  0.2073
   12CHL1   H4B  821   4.572   2.542  10.519 -0.4806  1.0828  1.7669
   12CHL1    C5  822   4.528   2.564  10.294 -0.3245  0.0375  0.1930
   12CHL1    C6  823   4.631   2.493  10.250  0.2744 -0.5982 -0.2270
   12CHL1    H6  824   4.713   2.466  10.318  0.2918 -0.3330 -0.1442
   12CHL1    C7  825   4.660   2.461  10.109 -0.4710 -0.3306  0.3661
   12CHL1   H7A  826   4.769   2.481  10.095 -0.2339 -1.4671  0.5233
   12CHL1   H7B  827   4.645   2.354  10.085 -3.6096 -0.3604  1.9530
   12CHL1    C8  828   4.578   2.541  10.002  0.4856 -0.2722  0.6067
   12CHL1    H8  829   4.623   2.643   9.995  2.0238 -0.9853 -0.2989
   12CHL1   C14  830   4.584   2.476   9.864  0.2781  0.5711 -0.3094
   12CHL1   H14  831   4.541   2.376   9.884  3.0130 -0.3145  1.7404
   12CHL1   C15  832   4.722   2.437   9.802  0.5902  0.2098  1.0565
   12CHL1  H15A  833   4.792   2.523   9.798  3.8927 -2.3107  0.1027
   12CHL1  H15B  834   4.774   2.356   9.857  3.4361  1.1164 -0.0724
   12CHL1   C16  835   4.687   2.412   9.663 -0.3714  0.6300  0.6787
   12CHL1  H16A  836   4.753   2.464   9.590 -0.2315  2.0240  1.7704
   12CHL1  H16B  837   4.706   2.308   9.627  1.6595  0.7920  1.1614
   12CHL1   C17  838   4.536   2.451   9.635  0.1839 -0.3310  0.1534
   12CHL1   H17  839   4.481   2.357   9.654  0.3836 -0.1699  1.7158
   12CHL1   C13  840   4.498   2.537   9.756 -0.1849  0.0924 -0.2538
   12CHL1   C18  841   4.549   2.689   9.729  0.1262  0.5584  0.0627
   12CHL1  H18A  842   4.550   2.755   9.819 -0.9391  0.3890  0.2018
   12CHL1  H18B  843   4.650   2.694   9.681 -0.2474  2.1450 -0.6328
   12CHL1  H18C  844   4.488   2.748   9.657  1.2096  0.0470 -1.3316
   12CHL1   C12  845   4.353   2.542   9.800 -0.1798  0.2274  0.3901
   12CHL1  H12A  846   4.295   2.608   9.732  0.6205 -0.1434 -0.6754
   12CHL1  H12B  847   4.312   2.438   9.796 -1.4333  0.7384 -1.4224
   12CHL1   C11  848   4.335   2.611   9.934  0.3112  0.4816 -1.1277
   12CHL1  H11A  849   4.352   2.720   9.922  0.5480  0.2968 -2.5701
   12CHL1  H11B  850   4.228   2.601   9.961  0.2096  1.4492 -1.1454
   12CHL1    C9  851   4.432   2.545  10.051 -0.2690  0.2301 -0.4965
   12CHL1    H9  852   4.400   2.439  10.066  0.6360  0.3266  2.9305
   12CHL1   C10  853   4.415   2.621  10.196  0.0221  0.5623  0.4386
   12CHL1   C19  854   4.448   2.770  10.185  0.1436  0.0292  0.1493
   12CHL1  H19A  855   4.363   2.834  10.155 -0.3514 -0.6314  0.1224
   12CHL1  H19B  856   4.473   2.822  10.279 -4.4218  3.3555 -0.1980
   12CHL1  H19C  857   4.530   2.802  10.116 -0.7431  2.0790 -0.0076
   12CHL1    C1  858   4.268   2.606  10.246 -0.4428 -0.4764  0.2731
   12CHL1   H1A  859   4.191   2.664  10.191  0.2814  1.7839  1.5040
   12CHL1   H1B  860   4.234   2.502  10.228 -2.3748 -0.0002  0.9341
   12CHL1    C2  861   4.259   2.634  10.399 -0.2032 -0.2117 -0.2723
   12CHL1   H2A  862   4.158   2.599  10.429 -0.2514 -1.2776 -1.5462
   12CHL1   H2B  863   4.251   2.743  10.413 -2.7684 -0.1375 -1.5793
   12CHL1   C20  864   4.512   2.504   9.495 -0.3776  0.3042 -0.0090
   12CHL1   H20  865   4.569   2.598   9.476 -0.2575  0.6230  1.6919
   12CHL1   C21  866   4.363   2.536   9.473  0.3017  0.4952 -0.4470
   12CHL1  H21A  867   4.344   2.562   9.367 -2.1371 -1.6477 -0.6349
   12CHL1  H21B  868   4.320   2.609   9.546 -1.6770 -1.2913  0.3044
   12CHL1  H21C  869   4.303   2.444   9.489 -0.5194  1.0051 -0.5204
   12CHL1   C22  870   4.566   2.410   9.387 -0.0139  0.5109  0.7102
   12CHL1  H22A  871   4.661   2.362   9.418  1.0517  1.0951 -1.4490
   12CHL1  H22B  872   4.488   2.334   9.370 -0.6548  1.5313 -1.2514
   12CHL1   C23  873   4.594   2.477   9.252 -0.4479  0.1027 -0.0648
   12CHL1  H23A  874   4.496   2.485   9.200  0.0387 -0.2592 -1.0789
   12CHL1  H23B  875   4.638   2.579   9.262  0.3959  0.0674 -2.6519
   12CHL1   C24  876   4.668   2.381   9.157 -0.0384 -0.6532 -0.4984
   12CHL1  H24A  877   4.773   2.379   9.192  0.3395  2.5180 -1.1953
   12CHL1  H24B  878   4.621   2.280   9.163 -0.5297 -0.3779  0.6506
   12CHL1   C25  879   4.674   2.441   9.014 -0.7295 -0.0581 -0.0073
   12CHL1   H25  880   4.569   2.461   8.985 -0.9743  0.5712  1.2627
   12CHL1   C26  881   4.739   2.583   9.006 -0.0170  0.0241  0.8734
   12CHL1  H26A  882   4.817   2.598   9.083  0.2251  2.6903  0.1837
   12CHL1  H26B  883   4.794   2.602   8.911  1.2943  1.2797  1.8382
   12CHL1  H26C  884   4.666   2.662   9.032  0.8429  1.0160  0.3574
   12CHL1   C27  885   4.750   2.350   8.918  0.2128  0.5767 -0.1210
   12CHL1  H27A  886   4.710   2.247   8.928 -0.7883  1.1170  1.8306
   12CHL1  H27B  887   4.746   2.376   8.810  0.0975 -2.1334 -0.8472
   12CHL1  H27C  888   4.858   2.357   8.944 -0.1585  3.3089  0.9885
   13CHL1    C3  889   4.830   5.970   9.956  0.5534 -0.3810 -0.8858
   13CHL1    H3  890   4.887   5.875   9.946 -0.5497 -1.3288  1.1648
   13CHL1    O3  891   4.798   5.992  10.092  0.4540 -0.1885  0.3239
   13CHL1   H3'  892   4.867   5.956  10.149 -0.4124 -0.0156  1.5148
   13CHL1    C4  893   4.916   6.088   9.909  0.8011  0.3674 -0.0324
   13CHL1   H4A  894   4.870   6.181   9.950 -0.9065 -1.1454  1.6815
   13CHL1   H4B  895   5.018   6.087   9.952  0.9668 -1.9792 -0.3641
   13CHL1    C5  896   4.922   6.093   9.750 -0.4679 -0.2151  0.1317
   13CHL1    C6  897   5.041   6.124   9.689  0.1738 -0.0337 -0.5802
   13CHL1    H6  898   5.125   6.141   9.758 -1.0999  1.1514  0.7587
   13CHL1    C7  899   5.048   6.139   9.538  0.3415  0.0537 -0.2261
   13CHL1   H7A  900   5.108   6.229   9.512  1.8776 -0.3856  1.5405
   13CHL1   H7B  901   5.106   6.051   9.504 -1.0040 -0.6009 -0.8700
   13CHL1    C8  902   4.909   6.148   9.467  0.5655  1.1171  0.6190
   13CHL1    H8  903   4.872   6.253   9.468 -1.2716  0.5124  0.1084
   13CHL1   C14  904   4.932   6.121   9.314 -0.3851 -0.2761 -0.2675
   13CHL1   H14  905   4.967   6.015   9.313  2.1654  0.4512 -3.0797
   13CHL1   C15  906   5.040   6.201   9.237 -0.0148 -0.0933 -0.3990
   13CHL1  H15A  907   5.039   6.311   9.254  3.1354 -0.0727  0.2580
   13CHL1  H15B  908   5.141   6.155   9.242  0.5848  1.3317  1.8842
   13CHL1   C16  909   5.001   6.183   9.087 -0.0038  0.0274  0.5232
   13CHL1  H16A  910   4.979   6.284   9.047 -0.3757  0.4420  1.7306
   13CHL1  H16B  911   5.093   6.153   9.032  1.4617  0.1728  2.7457
   13CHL1   C17  912   4.878   6.087   9.083 -0.4136 -0.0802 -0.3490
   13CHL1   H17  913   4.922   5.985   9.092  0.6725  0.3487 -0.6538
   13CHL1   C13  914   4.805   6.114   9.217  0.0070  0.1374  0.3956
   13CHL1   C18  915   4.748   6.257   9.218  0.0924 -0.3057  0.5959
   13CHL1  H18A  916   4.660   6.262   9.150  0.0728  3.3235  0.6998
   13CHL1  H18B  917   4.716   6.304   9.313  0.7718  1.1616  0.1121
   13CHL1  H18C  918   4.815   6.325   9.162 -1.0126 -0.7808 -1.4056
   13CHL1   C12  919   4.702   6.007   9.281 -0.2401  0.3713 -0.6881
   13CHL1  H12A  920   4.607   6.013   9.225  1.7793  0.1136 -4.4102
   13CHL1  H12B  921   4.741   5.904   9.263  0.0651  0.6535 -1.7081
   13CHL1   C11  922   4.678   6.032   9.434  0.0772  0.0810 -0.2314
   13CHL1  H11A  923   4.615   6.123   9.445  5.0395  3.9471 -0.2848
   13CHL1  H11B  924   4.619   5.950   9.479  0.3422 -0.0190 -0.0611
   13CHL1    C9  925   4.809   6.049   9.518  0.1337 -0.7302 -0.2051
   13CHL1    H9  926   4.853   5.949   9.499  1.5442  0.0522 -1.2265
   13CHL1   C10  927   4.790   6.065   9.675  0.0269 -0.7099  0.4309
   13CHL1   C19  928   4.696   6.191   9.701  0.2329 -0.5014  0.9587
   13CHL1  H19A  929   4.682   6.202   9.810 -2.6065 -3.2062  1.0142
   13CHL1  H19B  930   4.751   6.277   9.658  0.3084 -0.1252  1.7979
   13CHL1  H19C  931   4.598   6.172   9.652  1.0616 -1.3374 -0.4468
   13CHL1    C1  932   4.726   5.940   9.731 -0.3278  0.5760  1.1019
   13CHL1   H1A  933   4.631   5.912   9.680  0.3425 -1.7304  0.9925
   13CHL1   H1B  934   4.776   5.843   9.709  0.4644  1.4902 -1.4714
   13CHL1    C2  935   4.702   5.946   9.879  0.2544 -0.7647  0.0035
   13CHL1   H2A  936   4.651   5.857   9.922 -1.9798  0.0493 -0.8305
   13CHL1   H2B  937   4.620   6.019   9.897  1.3303 -0.1555  2.9570
   13CHL1   C20  938   4.792   6.099   8.956  0.4110 -0.0383  0.4826
   13CHL1   H20  939   4.745   6.199   8.952  1.6792  0.5616 -1.5568
   13CHL1   C21  940   4.675   5.995   8.952  0.6784  0.3615  0.4301
   13CHL1  H21A  941   4.591   6.025   9.020  0.9014 -1.0154  1.3417
   13CHL1  H21B  942   4.721   5.901   8.989  1.5397  0.8516  0.6243
   13CHL1  H21C  943   4.634   5.970   8.852  0.6070 -2.5967  1.1065
   13CHL1   C22  944   4.875   6.079   8.821 -0.1638 -0.5093  0.0266
   13CHL1  H22A  945   4.978   6.117   8.838  0.0416 -1.3806  0.8183
   13CHL1  H22B  946   4.896   5.971   8.805  0.3650 -0.5300  0.8040
   13CHL1   C23  947   4.818   6.148   8.696  0.8656  0.3428  0.0091
   13CHL1  H23A  948   4.734   6.203   8.743 -0.1881 -1.5572  0.4317
   13CHL1  H23B  949   4.898   6.222   8.675 -0.1536  2.0776  1.8603
   13CHL1   C24  950   4.774   6.050   8.584  0.0179  0.0271  0.3845
   13CHL1  H24A  951   4.735   5.958   8.632  1.7719 -1.4670 -0.9317
   13CHL1  H24B  952   4.686   6.092   8.529 -1.2733 -1.6897  1.0773
   13CHL1   C25  953   4.881   6.003   8.483 -0.9738  0.1715  0.3663
   13CHL1   H25  954   4.973   5.982   8.542 -0.8978  0.6390  0.4146
   13CHL1   C26  955   4.848   5.879   8.398  0.1709  0.2305 -0.3859
   13CHL1  H26A  956   4.815   5.791   8.457 -0.4969  0.5843 -0.2186
   13CHL1  H26B  957   4.758   5.891   8.335 -0.1710  0.9605  0.2327
   13CHL1  H26C  958   4.935   5.856   8.332 -0.0632 -1.7690 -0.0697
   13CHL1   C27  959   4.907   6.118   8.381  0.1296  0.3186 -0.2489
   13CHL1  H27A  960   4.985   6.097   8.305 -0.4265 -1.5533 -0.3715
   13CHL1  H27B  961   4.813   6.137   8.324 -0.4848  0.6563  0.8491
   13CHL1  H27C  962   4.939   6.208   8.437  1.2748  1.2330 -2.2813
   14CHL1    C3  963   5.946   0.715  10.460  0.6832 -0.8227 -0.1334
   14CHL1    H3  964   6.031   0.786  10.448  1.0760 -0.8210  2.1590
   14CHL1    O3  965   5.940   0.670  10.590 -0.0942 -0.0444  0.0707
   14CHL1   H3'  966   5.862   0.614  10.595  1.0413 -1.6188  1.4285
   14CHL1    C4  967   5.811   0.777  10.426 -0.0277  0.3504 -0.0403
   14CHL1   H4A  968   5.732   0.699  10.428  0.6849 -0.4389 -1.5449
   14CHL1   H4B  969   5.771   0.847  10.503  0.0669 -0.4822  0.7895
   14CHL1    C5  970   5.821   0.829  10.282  0.1612 -0.2499 -0.8676
   14CHL1    C6  971   5.799   0.953  10.253 -0.8267  0.3786 -0.1709
   14CHL1    H6  972   5.767   1.021  10.334  1.2348  1.0325  0.1674
   14CHL1    C7  973   5.794   1.006  10.107 -0.4730  0.2214 -0.1756
   14CHL1   H7A  974   5.694   1.055  10.097 -0.8468 -0.6377 -0.7686
   14CHL1   H7B  975   5.872   1.084  10.091 -0.7412  0.2970 -1.1623
   14CHL1    C8  976   5.811   0.895   9.998  0.5408 -1.1096 -0.1449
   14CHL1    H8  977   5.712   0.849   9.983  0.5842 -1.2562  0.0116
   14CHL1   C14  978   5.872   0.963   9.880  0.9017 -0.2114 -0.9166
   14CHL1   H14  979   5.973   0.999   9.909  0.4836 -0.6428  1.2601
   14CHL1   C15  980   5.802   1.086   9.829  0.2122 -0.5078  0.2336
   14CHL1  H15A  981   5.693   1.068   9.814  0.4056  0.0172 -2.2938
   14CHL1  H15B  982   5.826   1.175   9.891  0.0449  1.2154 -2.0693
   14CHL1   C16  983   5.861   1.111   9.695 -0.4228  0.8433  0.3810
   14CHL1  H16A  984   5.781   1.135   9.622 -1.4814  0.5920  1.4427
   14CHL1  H16B  985   5.939   1.191   9.701  0.6136  0.0085 -1.3288
   14CHL1   C17  986   5.940   0.974   9.661  0.2672 -0.0744  0.0322
   14CHL1   H17  987   6.046   0.996   9.684  0.3675 -0.4090 -0.0988
   14CHL1   C13  988   5.901   0.872   9.767  0.3823 -0.1852  0.0981
   14CHL1   C18  989   5.765   0.812   9.714 -0.1977  0.6215 -0.0853
   14CHL1  H18A  990   5.704   0.773   9.798  0.9064  0.3777  0.6340
   14CHL1  H18B  991   5.706   0.883   9.652  0.7302  0.7433 -0.8532
   14CHL1  H18C  992   5.786   0.729   9.643 -0.4249  0.8386 -0.4086
   14CHL1   C12  993   6.000   0.750   9.810  0.1106  0.1535  0.3090
   14CHL1  H12A  994   5.985   0.680   9.725 -2.3154 -1.5898  2.0093
   14CHL1  H12B  995   6.101   0.790   9.831 -0.4279  2.3206 -0.9511
   14CHL1   C11  996   5.933   0.683   9.933  0.3243  0.0404  0.2490
   14CHL1  H11A  997   5.846   0.621   9.899  1.2048 -0.6917 -0.7582
   14CHL1  H11B  998   6.011   0.614   9.971 -0.1960 -0.4649  0.4309
   14CHL1    C9  999   5.905   0.786  10.046 -0.2111 -0.3363  0.6654
   14CHL1    H9 1000   5.999   0.840  10.070 -0.0784 -0.6271  0.8142
   14CHL1   C10 1001   5.866   0.724  10.179 -0.0817 -0.2163 -0.4702
   14CHL1   C19 1002   5.748   0.630  10.160  0.2057  0.3550  0.0079
   14CHL1  H19A 1003   5.661   0.683  10.115 -1.8201 -2.1423  0.7481
   14CHL1  H19B 1004   5.765   0.545  10.091  1.9074  0.6194  0.0490
   14CHL1  H19C 1005   5.722   0.579  10.256 -0.5659 -0.5034 -0.6415
   14CHL1    C1 1006   5.989   0.642  10.229 -0.6191  0.0159  0.0294
   14CHL1   H1A 1007   6.011   0.552  10.167 -0.7260 -0.3877  0.5734
   14CHL1   H1B 1008   6.081   0.704  10.218 -1.2303  0.9963  0.2985
   14CHL1    C2 1009   5.985   0.597  10.372  0.5859 -0.5097 -0.5576
   14CHL1   H2A 1010   6.087   0.565  10.402  1.4115  0.9063 -1.7106
   14CHL1   H2B 1011   5.918   0.509  10.377 -1.2049  0.8297 -0.1325
   14CHL1   C20 1012   5.924   0.944   9.510 -0.6686  0.0319  0.2687
   14CHL1   H20 1013   5.818   0.943   9.477 -0.5952 -1.3955  0.0443
   14CHL1   C21 1014   5.984   0.805   9.473 -0.1155  1.4380  0.3913
   14CHL1  H21A 1015   5.927   0.722   9.520  2.1569 -0.7034 -0.3874
   14CHL1  H21B 1016   6.086   0.791   9.513  0.8527  2.3552 -1.6002
   14CHL1  H21C 1017   5.979   0.778   9.365  2.5317 -1.8901  0.9209
   14CHL1   C22 1018   5.988   1.055   9.424  0.5924  0.3942 -0.4528
   14CHL1  H22A 1019   5.963   1.154   9.466  0.1535  0.0066  0.2202
   14CHL1  H22B 1020   6.099   1.051   9.418  0.7852  2.1970  1.1415
   14CHL1   C23 1021   5.934   1.070   9.278  0.1360  0.7320  0.0174
   14CHL1  H23A 1022   5.990   1.154   9.232 -1.1266  2.5937  1.6736
   14CHL1  H23B 1023   5.952   0.974   9.226  0.0572  0.7933 -0.1225
   14CHL1   C24 1024   5.785   1.106   9.281 -0.8403  0.2924  0.2840
   14CHL1  H24A 1025   5.726   1.021   9.322 -0.4055  0.7646  1.9494
   14CHL1  H24B 1026   5.771   1.192   9.349  2.2080  0.1431  1.2209
   14CHL1   C25 1027   5.723   1.157   9.151 -0.0830  0.4392  0.3203
   14CHL1   H25 1028   5.612   1.154   9.155 -0.1559 -0.7242 -1.4093
   14CHL1   C26 1029   5.766   1.306   9.125 -0.1265  0.8408  0.1649
   14CHL1  H26A 1030   5.766   1.365   9.219  1.9780 -0.9581  1.3906
   14CHL1  H26B 1031   5.866   1.307   9.078 -0.4688  0.7360 -0.5767
   14CHL1  H26C 1032   5.686   1.346   9.059 -0.7648 -0.0256  0.3939
   14CHL1   C27 1033   5.769   1.078   9.028 -0.4302  0.3171  0.7044
   14CHL1  H27A 1034   5.730   0.974   9.018 -0.7547  0.2736  2.2563
   14CHL1  H27B 1035   5.747   1.132   8.933  1.8818  0.4304  0.1686
   14CHL1  H27C 1036   5.879   1.070   9.032 -0.4081 -0.8168 -0.8598
   15CHL1    C3 1037   4.142   6.197  10.180  0.4841  0.8422  0.6475
   15CHL1    H3 1038   4.077   6.282  10.149  0.9021  1.1295  0.5473
   15CHL1    O3 1039   4.142   6.173  10.318 -0.4767 -0.0244 -0.2405
   15CHL1   H3' 1040   4.221   6.219  10.345 -1.1080  0.7205  0.4009
   15CHL1    C4 1041   4.083   6.065  10.116 -0.2259  0.5392  0.2931
   15CHL1   H4A 1042   4.150   5.979  10.141  1.2998  2.2657  2.5875
   15CHL1   H4B 1043   3.983   6.031  10.150 -1.3736 -0.2701 -3.4576
   15CHL1    C5 1044   4.087   6.079   9.969  0.2795  0.2934  0.4220
   15CHL1    C6 1045   3.968   6.074   9.905  0.6066 -0.4658 -0.8717
   15CHL1    H6 1046   3.879   6.061   9.969  1.6325  0.4627  0.8432
   15CHL1    C7 1047   3.936   6.095   9.758 -0.3787  0.1689  0.2978
   15CHL1   H7A 1048   3.867   6.020   9.715  0.4034 -1.1319  1.2236
   15CHL1   H7B 1049   3.897   6.195   9.731 -1.1044 -0.2894 -0.4000
   15CHL1    C8 1050   4.067   6.079   9.679 -0.3433  0.4401  0.5653
   15CHL1    H8 1051   4.089   5.970   9.678 -1.2500  0.2374 -0.5737
   15CHL1   C14 1052   4.042   6.132   9.533  0.1645 -0.0795  0.1485
   15CHL1   H14 1053   4.015   6.240   9.541 -0.7385 -0.4148  2.5310
   15CHL1   C15 1054   3.935   6.070   9.444  0.7000  1.1699 -0.4795
   15CHL1  H15A 1055   3.911   5.966   9.476 -2.3424  2.3024  1.3309
   15CHL1  H15B 1056   3.841   6.129   9.443 -0.1618 -0.1499 -2.0912
   15CHL1   C16 1057   3.987   6.059   9.296 -0.1863 -0.5917 -0.2408
   15CHL1  H16A 1058   4.022   5.956   9.279  1.0040 -0.3135  0.4054
   15CHL1  H16B 1059   3.908   6.103   9.231  0.7637  1.1539 -0.2840
   15CHL1   C17 1060   4.116   6.148   9.300  0.3298  0.4442 -0.7541
   15CHL1   H17 1061   4.088   6.255   9.303 -0.9835  0.1200 -1.0359
   15CHL1   C13 1062   4.170   6.128   9.442  0.0696  0.5475 -0.4235
   15CHL1   C18 1063   4.236   5.991   9.450  0.2128  0.5721  0.1314
   15CHL1  H18A 1064   4.173   5.913   9.403  0.7628  1.1989 -1.7544
   15CHL1  H18B 1065   4.326   5.991   9.386  0.4607 -0.2753  0.4639
   15CHL1  H18C 1066   4.258   5.966   9.556 -0.9361 -0.5665  0.1280
   15CHL1   C12 1067   4.265   6.237   9.506 -0.0939 -0.1638  0.1071
   15CHL1  H12A 1068   4.362   6.246   9.453  0.5721 -2.2189  0.8861
   15CHL1  H12B 1069   4.209   6.333   9.501 -2.8079 -1.6936 -0.4143
   15CHL1   C11 1070   4.293   6.208   9.652  0.7547 -0.2341 -0.1159
   15CHL1  H11A 1071   4.369   6.127   9.657 -0.2334 -1.3164 -1.7197
   15CHL1  H11B 1072   4.345   6.295   9.699  0.7207  0.3876 -1.1977
   15CHL1    C9 1073   4.172   6.169   9.747 -0.2519 -0.0662 -0.2191
   15CHL1    H9 1074   4.121   6.267   9.760 -1.6993 -1.1473  3.4440
   15CHL1   C10 1075   4.211   6.121   9.891  0.2692 -0.3153 -0.6792
   15CHL1   C19 1076   4.312   5.999   9.884  0.0828 -0.5775 -0.6676
   15CHL1  H19A 1077   4.258   5.912   9.841  1.2127 -0.6419 -2.0023
   15CHL1  H19B 1078   4.399   6.033   9.825  0.7408 -0.1097  0.5365
   15CHL1  H19C 1079   4.353   5.963   9.981  1.5975 -0.0630 -1.0875
   15CHL1    C1 1080   4.290   6.231   9.971 -0.3035  0.4782 -0.6788
   15CHL1   H1A 1081   4.396   6.233   9.938  0.0575  2.1286  0.4695
   15CHL1   H1B 1082   4.252   6.334   9.951  2.1081  1.7879  1.0083
   15CHL1    C2 1083   4.289   6.213  10.126 -0.0164  0.2822 -0.7135
   15CHL1   H2A 1084   4.325   6.305  10.177  0.5410 -0.9218  1.1493
   15CHL1   H2B 1085   4.361   6.138  10.165  0.2755  1.5423  1.2737
   15CHL1   C20 1086   4.208   6.132   9.172 -0.7939  0.2502  0.1731
   15CHL1   H20 1087   4.221   6.023   9.156  0.6168  0.2352  1.2227
   15CHL1   C21 1088   4.344   6.202   9.186  0.7059 -0.0346  0.3882
   15CHL1  H21A 1089   4.339   6.313   9.193  0.4337 -0.0726  0.8806
   15CHL1  H21B 1090   4.401   6.177   9.095 -0.5978 -1.6052 -0.0414
   15CHL1  H21C 1091   4.391   6.168   9.281  0.9596  1.9653  1.0310
   15CHL1   C22 1092   4.139   6.175   9.042  0.5635  0.3651  0.0075
   15CHL1  H22A 1093   4.216   6.177   8.962 -1.7186  0.9175 -2.2903
   15CHL1  H22B 1094   4.064   6.098   9.014  1.7583 -1.5832  1.8309
   15CHL1   C23 1095   4.092   6.320   9.028 -0.7038 -0.2184  0.4082
   15CHL1  H23A 1096   4.019   6.349   9.107  1.2876  3.6724  1.0733
   15CHL1  H23B 1097   4.178   6.387   9.051  1.4041 -1.9758 -1.8855
   15CHL1   C24 1098   4.030   6.347   8.882 -0.0402 -0.0423 -0.3026
   15CHL1  H24A 1099   4.113   6.308   8.820  0.4358 -0.9016  0.8323
   15CHL1  H24B 1100   3.943   6.281   8.861 -2.3338  2.5603  0.3573
   15CHL1   C25 1101   3.984   6.487   8.848  0.0574  0.1047  0.5824
   15CHL1   H25 1102   3.943   6.530   8.942 -0.1022 -0.2064  0.6541
   15CHL1   C26 1103   4.102   6.570   8.804  0.1409 -0.0856  0.5262
   15CHL1  H26A 1104   4.071   6.675   8.785 -0.5498 -0.5058 -0.7829
   15CHL1  H26B 1105   4.190   6.564   8.872  1.8102 -0.2713 -1.5461
   15CHL1  H26C 1106   4.138   6.530   8.707  1.9374  0.1824  1.0257
   15CHL1   C27 1107   3.876   6.482   8.736 -0.2193  0.1665  0.1843
   15CHL1  H27A 1108   3.801   6.405   8.763  1.2743 -1.7029 -0.8198
   15CHL1  H27B 1109   3.822   6.579   8.750 -1.5203 -0.2675 -1.4852
   15CHL1  H27C 1110   3.908   6.460   8.633 -1.6489  0.5369 -0.3623
   16CHL1    C3 1111   6.447   0.357  10.454  0.7684 -0.1824 -0.6456
   16CHL1    H3 1112   6.417   0.464  10.457 -2.1962 -0.9391  0.5860
   16CHL1    O3 1113   6.431   0.307  10.592  0.3711  0.6294 -0.4062
   16CHL1   H3' 1114   6.463   0.217  10.584  1.1878  0.9767 -1.1639
   16CHL1    C4 1115   6.364   0.269  10.360  0.2470  0.8599  0.2856
   16CHL1   H4A 1116   6.366   0.160  10.384 -2.5767  0.1214 -2.2708
   16CHL1   H4B 1117   6.260   0.295  10.388 -1.1514 -2.2758 -1.4403
   16CHL1    C5 1118   6.398   0.279  10.215  0.2483 -0.1039 -0.1022
   16CHL1    C6 1119   6.293   0.317  10.133 -0.2391 -0.2922  0.5693
   16CHL1    H6 1120   6.188   0.329  10.164 -0.5619  0.8065 -0.8663
   16CHL1    C7 1121   6.318   0.329   9.986  0.6543  0.2757  0.6715
   16CHL1   H7A 1122   6.248   0.270   9.923  0.3021 -0.0079  1.3142
   16CHL1   H7B 1123   6.303   0.435   9.957  1.1959  0.2483  0.2898
   16CHL1    C8 1124   6.455   0.274   9.931 -0.1172  0.2413  0.5169
   16CHL1    H8 1125   6.454   0.163   9.930 -0.2450  0.2454  0.1454
   16CHL1   C14 1126   6.485   0.327   9.794 -0.3357 -0.2045  1.2023
   16CHL1   H14 1127   6.495   0.437   9.802  4.0073 -0.5291  2.6975
   16CHL1   C15 1128   6.372   0.320   9.687 -1.2457 -1.0479  0.1622
   16CHL1  H15A 1129   6.311   0.227   9.693 -3.3011  0.2166 -0.1679
   16CHL1  H15B 1130   6.315   0.414   9.703  1.3118  0.7798 -0.8262
   16CHL1   C16 1131   6.448   0.323   9.553 -0.0947 -1.1351  0.1921
   16CHL1  H16A 1132   6.439   0.219   9.514 -1.9112 -1.1596  0.5618
   16CHL1  H16B 1133   6.410   0.400   9.483  1.9806  1.3294  1.6179
   16CHL1   C17 1134   6.599   0.358   9.592  0.6372 -0.0722 -0.3875
   16CHL1   H17 1135   6.596   0.469   9.599  0.2745 -0.0652 -0.6410
   16CHL1   C13 1136   6.623   0.295   9.730 -0.4210 -0.8287  0.2058
   16CHL1   C18 1137   6.640   0.138   9.730 -0.1316 -0.1307 -0.0886
   16CHL1  H18A 1138   6.557   0.087   9.677 -0.7268  1.1828 -0.4566
   16CHL1  H18B 1139   6.737   0.121   9.679 -0.8615 -2.2060 -0.9206
   16CHL1  H18C 1140   6.640   0.091   9.831  0.2841  0.9802  0.4373
   16CHL1   C12 1141   6.730   0.361   9.822  0.4254 -0.4588 -0.1607
   16CHL1  H12A 1142   6.829   0.342   9.776 -0.2260 -2.1634 -0.9278
   16CHL1  H12B 1143   6.701   0.468   9.812 -0.2417 -0.8518 -4.4292
   16CHL1   C11 1144   6.716   0.317   9.971 -0.1996 -0.4846  0.8266
   16CHL1  H11A 1145   6.747   0.210   9.971 -0.0003 -0.4333  0.0727
   16CHL1  H11B 1146   6.793   0.362  10.038 -0.3323  2.0875 -0.6498
   16CHL1    C9 1147   6.571   0.333  10.027 -0.5464  0.8584 -0.5233
   16CHL1    H9 1148   6.555   0.443  10.017  1.9790  1.2664 -0.7263
   16CHL1   C10 1149   6.546   0.271  10.171  0.1799 -0.2804  0.0689
   16CHL1   C19 1150   6.591   0.121  10.169  0.1100 -0.0055 -0.3938
   16CHL1  H19A 1151   6.566   0.086  10.272 -1.3944  0.8495 -0.4390
   16CHL1  H19B 1152   6.524   0.062  10.103 -2.0380  0.3051  1.3654
   16CHL1  H19C 1153   6.697   0.103  10.141 -0.3349 -0.4229 -1.9119
   16CHL1    C1 1154   6.630   0.361  10.263 -0.0163  0.2882 -0.4695
   16CHL1   H1A 1155   6.738   0.343  10.244 -0.2995  1.0858 -3.4094
   16CHL1   H1B 1156   6.612   0.464  10.223 -0.7826 -0.7824 -3.1234
   16CHL1    C2 1157   6.595   0.350  10.413 -0.4610 -0.4393 -0.3588
   16CHL1   H2A 1158   6.649   0.431  10.464 -0.9312 -1.2966  1.6014
   16CHL1   H2B 1159   6.626   0.252  10.455  3.2687  0.9284  0.4545
   16CHL1   C20 1160   6.712   0.328   9.490  0.2873 -0.2987  0.1646
   16CHL1   H20 1161   6.804   0.305   9.548  0.8812  0.2241 -0.5668
   16CHL1   C21 1162   6.735   0.459   9.410 -0.6958  0.9794  0.8213
   16CHL1  H21A 1163   6.806   0.450   9.326 -0.8241 -1.0796  0.8796
   16CHL1  H21B 1164   6.773   0.549   9.463  1.6196  0.5999 -0.0861
   16CHL1  H21C 1165   6.643   0.498   9.361 -0.4584 -0.1132 -0.5423
   16CHL1   C22 1166   6.695   0.200   9.412  0.3998  0.2265  0.0043
   16CHL1  H22A 1167   6.631   0.135   9.475 -1.9761  0.5597 -1.9089
   16CHL1  H22B 1168   6.622   0.217   9.330 -2.9427 -1.2364  2.4537
   16CHL1   C23 1169   6.824   0.122   9.386 -0.4947 -0.2136  0.2346
   16CHL1  H23A 1170   6.886   0.085   9.470 -0.2397  1.0185  0.6025
   16CHL1  H23B 1171   6.787   0.036   9.326 -0.7630  0.9600 -1.3673
   16CHL1   C24 1172   6.923   0.208   9.296  0.5305  0.5074 -0.1463
   16CHL1  H24A 1173   6.876   0.288   9.236 -1.7163 -0.0062  0.8071
   16CHL1  H24B 1174   6.990   0.273   9.357  0.9694  0.6533 -0.7713
   16CHL1   C25 1175   7.009   0.121   9.201  0.1167 -0.4049 -0.1735
   16CHL1   H25 1176   6.945   0.064   9.130  0.7890  0.4123 -1.4851
   16CHL1   C26 1177   7.116   0.201   9.123  0.0507  0.1662  0.3828
   16CHL1  H26A 1178   7.184   0.120   9.090 -0.7431 -0.6554  0.7222
   16CHL1  H26B 1179   7.075   0.262   9.039  0.1426 -1.1191 -0.6289
   16CHL1  H26C 1180   7.168   0.272   9.191 -0.2373 -0.1387  0.9287
   16CHL1   C27 1181   7.083   0.016   9.275 -0.5279 -0.2527  0.3114
   16CHL1  H27A 1182   7.009  -0.049   9.327 -1.7809  1.4445  0.7187
   16CHL1  H27B 1183   7.130  -0.057   9.205  2.0738 -0.0441  1.7245
   16CHL1  H27C 1184   7.159   0.058   9.345  0.1423 -0.5030 -0.2569
   17CHL1    C3 1185   2.148   4.932  10.552  0.0104  0.2091 -0.3914
   17CHL1    H3 1186   2.162   5.041  10.568  1.4244 -0.0493  0.2494
   17CHL1    O3 1187   2.138   4.866  10.676 -0.0825 -0.1749  0.0378
   17CHL1   H3' 1188   2.059   4.904  10.714  0.2974  0.4035  0.2639
   17CHL1    C4 1189   2.023   4.910  10.478  0.0639 -0.3472 -0.0113
   17CHL1   H4A 1190   2.007   4.803  10.456 -2.0090 -0.0723 -0.0545
   17CHL1   H4B 1191   1.947   4.957  10.544  1.1371  1.4209  0.0191
   17CHL1    C5 1192   2.031   4.987  10.343  0.6338  0.7127 -0.4135
   17CHL1    C6 1193   1.933   5.078  10.313 -0.0403 -0.0629  0.3922
   17CHL1    H6 1194   1.850   5.099  10.383 -0.9747  1.7457 -1.1827
   17CHL1    C7 1195   1.918   5.138  10.175  0.0082 -0.0638  0.0715
   17CHL1   H7A 1196   1.811   5.141  10.144 -1.2694 -0.3203  3.9574
   17CHL1   H7B 1197   1.944   5.246  10.178  0.3878 -0.0332 -2.5169
   17CHL1    C8 1198   2.009   5.060  10.070  0.5258 -0.6739  0.2184
   17CHL1    H8 1199   1.963   4.960  10.052 -0.9266 -0.1792  0.9845
   17CHL1   C14 1200   2.005   5.128   9.934  0.0621  0.4831 -0.0627
   17CHL1   H14 1201   2.048   5.230   9.948  0.5270  0.3624 -0.5565
   17CHL1   C15 1202   1.873   5.151   9.854  0.3695  1.1338 -1.0411
   17CHL1  H15A 1203   1.816   5.056   9.849 -0.8849  1.8424 -0.5909
   17CHL1  H15B 1204   1.806   5.231   9.891  0.3212 -0.3540  2.4894
   17CHL1   C16 1205   1.928   5.169   9.709 -0.3952 -0.5733 -0.0878
   17CHL1  H16A 1206   1.872   5.104   9.639 -0.7641  2.2912 -2.6483
   17CHL1  H16B 1207   1.903   5.271   9.672 -1.4508 -1.1949 -1.1443
   17CHL1   C17 1208   2.080   5.148   9.708 -0.6847  0.4218  0.0394
   17CHL1   H17 1209   2.139   5.236   9.742  1.8199 -0.5092 -1.5697
   17CHL1   C13 1210   2.105   5.058   9.832  0.6756 -0.3974  0.2164
   17CHL1   C18 1211   2.063   4.913   9.798  0.6086  0.0704 -0.6518
   17CHL1  H18A 1212   2.011   4.870   9.887 -0.2233  1.1552 -0.5910
   17CHL1  H18B 1213   1.984   4.915   9.720 -0.7569  0.4725  0.6851
   17CHL1  H18C 1214   2.156   4.861   9.766  1.0648  1.4014 -1.5863
   17CHL1   C12 1215   2.244   5.072   9.886  0.0631  0.9390  0.0454
   17CHL1  H12A 1216   2.317   5.030   9.814 -0.1382 -1.4978  1.1646
   17CHL1  H12B 1217   2.264   5.181   9.897 -2.3448  1.2807  1.9438
   17CHL1   C11 1218   2.264   5.012  10.026  0.4041  0.5495  0.0522
   17CHL1  H11A 1219   2.260   4.905   9.995  1.1565  0.7242 -0.6671
   17CHL1  H11B 1220   2.364   5.029  10.071 -0.0596  0.2850  1.2068
   17CHL1    C9 1221   2.151   5.046  10.127  0.0250 -0.4241  0.5920
   17CHL1    H9 1222   2.183   5.145  10.164  0.8718 -0.6971  0.6107
   17CHL1   C10 1223   2.149   4.947  10.249 -0.0463 -0.7275 -0.5905
   17CHL1   C19 1224   2.138   4.801  10.190  0.0166 -0.6065 -0.1096
   17CHL1  H19A 1225   2.114   4.718  10.261  1.6191 -1.8266 -0.9085
   17CHL1  H19B 1226   2.060   4.796  10.112  0.2741  0.4480 -0.4519
   17CHL1  H19C 1227   2.241   4.786  10.151 -0.3939 -2.7251 -0.5046
   17CHL1    C1 1228   2.271   4.962  10.340 -0.2878  0.1796 -0.4673
   17CHL1   H1A 1229   2.361   4.941  10.278 -0.3786  2.4399 -1.4484
   17CHL1   H1B 1230   2.275   5.068  10.371 -2.0576  0.0521  0.2874
   17CHL1    C2 1231   2.269   4.875  10.463  0.3919 -0.2410 -0.2879
   17CHL1   H2A 1232   2.357   4.889  10.529 -0.0099 -3.4530  1.1391
   17CHL1   H2B 1233   2.262   4.766  10.443 -0.9315  0.0091 -1.3299
   17CHL1   C20 1234   2.129   5.102   9.564  0.6040 -0.4508  0.1279
   17CHL1   H20 1235   2.075   5.007   9.549  0.1241 -0.4590  1.7637
   17CHL1   C21 1236   2.276   5.076   9.559  0.2177 -0.2291  0.3791
   17CHL1  H21A 1237   2.330   5.161   9.605 -0.6779  0.7090 -0.2489
   17CHL1  H21B 1238   2.323   5.058   9.460 -0.3504 -1.0249  0.2373
   17CHL1  H21C 1239   2.282   4.979   9.614 -1.3374 -0.4511  0.2281
   17CHL1   C22 1240   2.080   5.202   9.451 -0.3314 -0.1731  0.2377
   17CHL1  H22A 1241   1.971   5.217   9.467 -0.0862 -0.1362  2.0177
   17CHL1  H22B 1242   2.149   5.284   9.480  1.6437 -1.7597  0.2805
   17CHL1   C23 1243   2.104   5.146   9.311  0.0417 -0.5028 -0.1603
   17CHL1  H23A 1244   2.207   5.103   9.311 -0.1948 -1.0896 -0.3199
   17CHL1  H23B 1245   2.030   5.064   9.299 -0.6417  0.0226  0.3888
   17CHL1   C24 1246   2.091   5.251   9.198  0.3905 -0.0637 -0.1008
   17CHL1  H24A 1247   1.984   5.272   9.177  0.5040  1.8359  1.0833
   17CHL1  H24B 1248   2.139   5.342   9.240  0.0087 -0.3151  0.9187
   17CHL1   C25 1249   2.158   5.215   9.060 -0.0848  0.0346  0.3798
   17CHL1   H25 1250   2.264   5.191   9.082 -0.6270 -1.5334  1.4904
   17CHL1   C26 1251   2.090   5.095   9.001  0.8752  0.0245  0.2246
   17CHL1  H26A 1252   2.105   5.083   8.892 -1.3325 -0.9043 -0.0206
   17CHL1  H26B 1253   2.133   5.009   9.058  0.7033 -0.3571 -0.2210
   17CHL1  H26C 1254   1.981   5.096   9.020  0.1025 -5.4283 -2.0715
   17CHL1   C27 1255   2.144   5.334   8.961 -0.2084 -0.0576  0.0092
   17CHL1  H27A 1256   2.189   5.312   8.862  0.8635  2.7866 -0.2499
   17CHL1  H27B 1257   2.037   5.364   8.957 -0.2682 -0.1739  0.6627
   17CHL1  H27C 1258   2.196   5.424   9.001  0.7055 -0.6938  0.2655
   18CHL1    C3 1259   5.857   3.820  10.339  0.4755 -0.5050  0.0474
   18CHL1    H3 1260   5.766   3.867  10.295  0.1570 -1.1609 -0.0057
   18CHL1    O3 1261   5.864   3.856  10.480  0.1582  0.7693  0.0026
   18CHL1   H3' 1262   5.959   3.850  10.490  0.1975  1.5556  0.1801
   18CHL1    C4 1263   5.861   3.672  10.308 -0.3264 -0.1743 -0.1164
   18CHL1   H4A 1264   5.959   3.627  10.338  0.1618 -0.4662 -2.0301
   18CHL1   H4B 1265   5.776   3.626  10.363 -0.2190  1.2818  1.3844
   18CHL1    C5 1266   5.857   3.653  10.158 -0.3380 -0.5197  0.2319
   18CHL1    C6 1267   5.760   3.572  10.107 -0.7914  0.8755 -0.9936
   18CHL1    H6 1268   5.688   3.523  10.175 -1.2408  2.4270 -0.3123
   18CHL1    C7 1269   5.754   3.529   9.962  0.2405  0.0199 -0.4075
   18CHL1   H7A 1270   5.735   3.420   9.949  3.0768 -0.6908  0.5517
   18CHL1   H7B 1271   5.672   3.592   9.922  1.8467  2.6562  0.2059
   18CHL1    C8 1272   5.881   3.566   9.878 -0.6045 -0.7266  0.5030
   18CHL1    H8 1273   5.961   3.489   9.882  1.0457  0.9061  0.2241
   18CHL1   C14 1274   5.837   3.571   9.731 -0.6508 -0.8459  0.8005
   18CHL1   H14 1275   5.757   3.647   9.723 -0.7066 -0.6744  2.5373
   18CHL1   C15 1276   5.762   3.455   9.660 -0.0872  0.1371 -0.4624
   18CHL1  H15A 1277   5.829   3.368   9.678 -1.3381 -1.2413 -2.1368
   18CHL1  H15B 1278   5.663   3.431   9.704  0.7521 -1.4714  0.6626
   18CHL1   C16 1279   5.755   3.504   9.516  0.7039 -0.2395 -0.0938
   18CHL1  H16A 1280   5.761   3.422   9.441 -2.4333 -1.0389  0.4165
   18CHL1  H16B 1281   5.651   3.539   9.506  0.3662 -0.9457  0.8121
   18CHL1   C17 1282   5.860   3.626   9.499  0.1364 -0.1980  0.3865
   18CHL1   H17 1283   5.803   3.720   9.521  1.5399  0.3957  1.6479
   18CHL1   C13 1284   5.947   3.614   9.633  0.1936 -0.3250  0.3937
   18CHL1   C18 1285   6.056   3.512   9.605 -0.5054  0.4892 -0.8442
   18CHL1  H18A 1286   6.018   3.433   9.536 -0.4334  1.2391 -1.7567
   18CHL1  H18B 1287   6.137   3.558   9.543 -1.1265 -0.3768 -2.3694
   18CHL1  H18C 1288   6.101   3.467   9.696 -0.6970 -0.7311 -1.3275
   18CHL1   C12 1289   6.001   3.752   9.678 -0.0396 -0.0166  0.5270
   18CHL1  H12A 1290   6.070   3.787   9.598  1.0977  2.2527  2.3810
   18CHL1  H12B 1291   5.922   3.829   9.667 -0.8524 -0.9927 -0.7093
   18CHL1   C11 1292   6.048   3.751   9.824  0.6236 -0.7441  0.2547
   18CHL1  H11A 1293   6.134   3.682   9.837  1.1160 -0.0312  0.8278
   18CHL1  H11B 1294   6.072   3.854   9.856 -3.8006  0.5786 -0.0883
   18CHL1    C9 1295   5.935   3.707   9.920 -0.3783 -0.1264  0.3350
   18CHL1    H9 1296   5.852   3.779   9.903 -0.1382  0.8300  2.8171
   18CHL1   C10 1297   5.967   3.726  10.071  0.5486 -0.0754  0.2510
   18CHL1   C19 1298   6.105   3.659  10.097  0.3841 -0.0494 -0.7014
   18CHL1  H19A 1299   6.095   3.555  10.059  0.4076 -0.2323 -0.2253
   18CHL1  H19B 1300   6.198   3.699  10.052  0.8758 -2.2596 -1.7873
   18CHL1  H19C 1301   6.127   3.632  10.203  0.7831  0.9418 -0.5248
   18CHL1    C1 1302   5.972   3.874  10.119  0.2424 -0.2544 -0.3248
   18CHL1   H1A 1303   6.059   3.923  10.071 -0.1463  0.6484 -0.1271
   18CHL1   H1B 1304   5.888   3.940  10.087  0.2348  0.0320  0.2685
   18CHL1    C2 1305   5.981   3.883  10.270 -0.1325  0.0193 -0.3210
   18CHL1   H2A 1306   5.983   3.989  10.306  1.4489 -0.6295  1.6910
   18CHL1   H2B 1307   6.066   3.826  10.312  1.2963  1.9405 -0.4661
   18CHL1   C20 1308   5.926   3.623   9.362 -0.6080 -0.5122 -0.6958
   18CHL1   H20 1309   5.981   3.527   9.358  0.4872  0.1051 -1.0159
   18CHL1   C21 1310   6.017   3.745   9.345  0.3355 -0.6720  0.0223
   18CHL1  H21A 1311   6.114   3.733   9.397 -0.5043  4.2599  3.4256
   18CHL1  H21B 1312   5.974   3.842   9.376  2.8619 -0.1418  2.1897
   18CHL1  H21C 1313   6.061   3.732   9.243  2.7644 -2.2937  1.1825
   18CHL1   C22 1314   5.826   3.613   9.243  0.2213  0.7684  0.0755
   18CHL1  H22A 1315   5.746   3.539   9.260  2.1921 -1.5652 -0.2583
   18CHL1  H22B 1316   5.785   3.715   9.230  1.0267  1.1384  0.3568
   18CHL1   C23 1317   5.903   3.571   9.110  0.4864  0.1471  0.0860
   18CHL1  H23A 1318   5.993   3.632   9.088  0.8325 -0.1967  0.5202
   18CHL1  H23B 1319   5.942   3.467   9.123  0.7304  0.0843 -1.0410
   18CHL1   C24 1320   5.805   3.584   8.993  0.0943 -0.1607  0.8246
   18CHL1  H24A 1321   5.704   3.546   9.018  0.5811 -2.3313 -0.1640
   18CHL1  H24B 1322   5.801   3.693   8.975  0.4913 -0.3617 -0.6311
   18CHL1   C25 1323   5.856   3.525   8.866 -0.5207  0.3226 -0.4223
   18CHL1   H25 1324   5.879   3.419   8.891 -0.6876  0.4404  0.2414
   18CHL1   C26 1325   5.745   3.527   8.760  0.3759 -0.2691  0.5013
   18CHL1  H26A 1326   5.775   3.480   8.664  0.4551 -1.3320  1.0385
   18CHL1  H26B 1327   5.641   3.498   8.784 -0.1327 -0.5006 -1.8269
   18CHL1  H26C 1328   5.727   3.633   8.733 -1.6280 -1.1587 -1.9482
   18CHL1   C27 1329   5.996   3.587   8.820  0.0327 -0.3530  0.0876
   18CHL1  H27A 1330   6.075   3.567   8.896  1.2270  0.8488 -0.8027
   18CHL1  H27B 1331   6.044   3.552   8.727 -1.1685  0.4463 -0.8636
   18CHL1  H27C 1332   5.985   3.697   8.808  2.4726 -0.3265 -3.1639
   19CHL1    C3 1333   2.981   0.021  10.272  0.7048  0.4804  0.6565
   19CHL1    H3 1334   2.947  -0.079  10.306 -0.6815  0.2969 -1.1027
   19CHL1    O3 1335   3.009   0.107  10.379  0.4575  0.0659  0.1374
   19CHL1   H3' 1336   3.064   0.180  10.351  1.3625 -1.1315 -1.3012
   19CHL1    C4 1337   3.099   0.018  10.179 -0.0024  0.1410 -0.4283
   19CHL1   H4A 1338   3.137   0.123  10.175 -0.1806  0.1642 -1.6979
   19CHL1   H4B 1339   3.184  -0.031  10.232 -0.2829 -0.2477 -0.3354
   19CHL1    C5 1340   3.085  -0.029  10.037 -0.4265 -0.3312 -0.3519
   19CHL1    C6 1341   3.163  -0.124   9.984  0.1100 -0.1452 -0.2586
   19CHL1    H6 1342   3.254  -0.158  10.035 -0.2279 -2.8717 -1.2980
   19CHL1    C7 1343   3.157  -0.164   9.843  0.0321 -0.2134  0.0418
   19CHL1   H7A 1344   3.259  -0.171   9.798 -1.4308 -1.2850 -3.4835
   19CHL1   H7B 1345   3.127  -0.270   9.829  1.9289 -0.7788 -0.0528
   19CHL1    C8 1346   3.076  -0.077   9.750 -0.0766 -0.1119  0.2570
   19CHL1    H8 1347   3.130   0.018   9.732  0.4113 -0.3347  0.5200
   19CHL1   C14 1348   3.054  -0.140   9.615  1.0067  0.1749  0.2436
   19CHL1   H14 1349   2.992  -0.231   9.626  0.8126  0.0029 -1.9174
   19CHL1   C15 1350   3.183  -0.190   9.543 -0.0304  0.4084 -0.1492
   19CHL1  H15A 1351   3.261  -0.113   9.560  1.0436 -0.5441 -0.6198
   19CHL1  H15B 1352   3.221  -0.290   9.575  3.1032  1.4401 -0.3304
   19CHL1   C16 1353   3.142  -0.206   9.399 -0.4058 -0.3431 -0.7425
   19CHL1  H16A 1354   3.217  -0.147   9.342  3.2271 -0.5941  3.2709
   19CHL1  H16B 1355   3.152  -0.312   9.369  3.7881 -0.7543  1.3170
   19CHL1   C17 1356   2.988  -0.157   9.394  0.3304 -0.4193 -0.6028
   19CHL1   H17 1357   2.924  -0.246   9.417  0.3666 -0.3670 -0.2943
   19CHL1   C13 1358   2.967  -0.065   9.514 -0.3332  0.4911 -0.0857
   19CHL1   C18 1359   3.029   0.070   9.481  0.0009 -0.0248 -0.9492
   19CHL1  H18A 1360   2.951   0.142   9.448 -1.4913 -0.7487  0.8465
   19CHL1  H18B 1361   3.076   0.113   9.572 -0.3603  1.0076 -1.2374
   19CHL1  H18C 1362   3.116   0.070   9.411  2.6703  2.2085  2.0261
   19CHL1   C12 1363   2.826  -0.045   9.582  0.0500  0.3066 -0.4284
   19CHL1  H12A 1364   2.768   0.023   9.516  0.7519  0.8015 -0.5551
   19CHL1  H12B 1365   2.783  -0.147   9.593  0.7142 -0.2787 -2.7486
   19CHL1   C11 1366   2.844   0.030   9.718  0.2469 -0.4896  0.0738
   19CHL1  H11A 1367   2.882   0.131   9.692  0.3684 -0.2364  1.2118
   19CHL1  H11B 1368   2.742   0.039   9.762  0.7654  1.8408  0.9263
   19CHL1    C9 1369   2.945  -0.041   9.816 -0.0755 -0.4116 -0.1831
   19CHL1    H9 1370   2.891  -0.136   9.837  0.5271 -0.8952 -0.8179
   19CHL1   C10 1371   2.966   0.025   9.957 -0.6755  0.4935  0.5412
   19CHL1   C19 1372   3.002   0.170   9.923  0.6094  0.0542 -0.1029
   19CHL1  H19A 1373   2.906   0.212   9.888  0.3955 -1.1479 -1.0458
   19CHL1  H19B 1374   3.032   0.238  10.005  2.1096 -0.6269 -0.0357
   19CHL1  H19C 1375   3.090   0.180   9.855  3.4977 -0.8729  3.2298
   19CHL1    C1 1376   2.842   0.014  10.049 -0.2262 -0.3990  0.0265
   19CHL1   H1A 1377   2.754   0.063  10.002 -0.4536 -2.4306 -1.8221
   19CHL1   H1B 1378   2.819  -0.093  10.066  3.1112 -0.8262  2.9149
   19CHL1    C2 1379   2.865   0.084  10.186 -0.3037 -0.0734  0.6688
   19CHL1   H2A 1380   2.771   0.070  10.244 -0.4216 -0.5928  0.3619
   19CHL1   H2B 1381   2.880   0.193  10.171  0.2358 -0.2733 -0.3139
   19CHL1   C20 1382   2.941  -0.103   9.266  0.7869  0.0315 -0.6313
   19CHL1   H20 1383   2.980  -0.000   9.249  0.3652  0.0021 -1.9108
   19CHL1   C21 1384   2.783  -0.088   9.266 -0.4818 -0.1313  0.2084
   19CHL1  H21A 1385   2.758   0.000   9.329  0.3005  1.8846 -2.1370
   19CHL1  H21B 1386   2.727  -0.180   9.291 -0.0133 -0.4509  0.1064
   19CHL1  H21C 1387   2.744  -0.057   9.167 -1.2827  1.4039  0.9676
   19CHL1   C22 1388   2.980  -0.197   9.142  0.3830  0.5287  0.2315
   19CHL1  H22A 1389   3.086  -0.230   9.149  0.0108 -1.2665 -1.4267
   19CHL1  H22B 1390   2.922  -0.290   9.163  1.7067 -0.5359 -0.6067
   19CHL1   C23 1391   2.958  -0.122   9.012  0.3800  0.0762 -0.0763
   19CHL1  H23A 1392   2.850  -0.103   8.997  0.9378  4.0942 -0.0527
   19CHL1  H23B 1393   3.018  -0.029   9.018  1.9224 -0.9003  0.4869
   19CHL1   C24 1394   2.998  -0.216   8.899  0.4842 -0.0823  0.2073
   19CHL1  H24A 1395   3.089  -0.278   8.914 -1.6350 -3.7537 -0.9075
   19CHL1  H24B 1396   2.918  -0.290   8.877  2.5785 -2.3638 -0.1434
   19CHL1   C25 1397   3.026  -0.138   8.767 -0.2395  1.2817 -0.1474
   19CHL1   H25 1398   3.102  -0.059   8.782  2.3786 -1.0719 -0.0848
   19CHL1   C26 1399   3.082  -0.233   8.654  0.1845 -0.3878 -0.3853
   19CHL1  H26A 1400   2.998  -0.300   8.628 -0.4022  1.0975 -2.5682
   19CHL1  H26B 1401   3.103  -0.173   8.563 -0.9087  0.3828 -0.1445
   19CHL1  H26C 1402   3.177  -0.284   8.684  1.0261  1.3216 -0.0265
   19CHL1   C27 1403   2.901  -0.062   8.714 -0.3671  0.3159 -0.4940
   19CHL1  H27A 1404   2.823  -0.129   8.672  1.0600  0.4029 -3.5205
   19CHL1  H27B 1405   2.850   0.002   8.790 -0.9112 -1.2168  0.4784
   19CHL1  H27C 1406   2.934   0.007   8.633 -1.3578  1.5674  0.1267
   20CHL1    C3 1407   0.484   0.792  10.396  0.1218  0.0335 -0.0620
   20CHL1    H3 1408   0.375   0.778  10.385  0.3078 -1.6366 -0.0410
   20CHL1    O3 1409   0.512   0.800  10.539 -0.8707 -0.6182  0.4736
   20CHL1   H3' 1410   0.489   0.892  10.553  1.4145  0.2266 -0.8206
   20CHL1    C4 1411   0.554   0.680  10.325 -0.0435  0.2488  0.2160
   20CHL1   H4A 1412   0.660   0.695  10.355 -0.4016  0.6340  1.3168
   20CHL1   H4B 1413   0.541   0.582  10.376 -0.9772 -1.0413 -2.2945
   20CHL1    C5 1414   0.524   0.669  10.174  0.1887  0.3260 -1.3937
   20CHL1    C6 1415   0.461   0.559  10.127 -0.2391  0.0517 -0.2646
   20CHL1    H6 1416   0.441   0.468  10.186  0.3691 -0.1237 -0.3215
   20CHL1    C7 1417   0.420   0.567   9.978  0.2084  0.2188 -0.1115
   20CHL1   H7A 1418   0.447   0.480   9.915 -0.8337 -2.1033  2.4270
   20CHL1   H7B 1419   0.309   0.573   9.970  0.3516  1.6348 -1.5764
   20CHL1    C8 1420   0.469   0.684   9.889 -0.5281 -0.2605  0.4089
   20CHL1    H8 1421   0.569   0.657   9.849 -0.5510  1.2443 -0.7811
   20CHL1   C14 1422   0.374   0.708   9.772  0.4962  0.8601  0.1156
   20CHL1   H14 1423   0.279   0.753   9.807 -0.3693 -0.2561 -0.7084
   20CHL1   C15 1424   0.334   0.585   9.699 -0.3482  0.3494 -0.2917
   20CHL1  H15A 1425   0.417   0.514   9.680 -0.4683 -0.2994  1.4053
   20CHL1  H15B 1426   0.259   0.535   9.764  1.2030  0.6004  1.7955
   20CHL1   C16 1427   0.268   0.640   9.571 -0.4030 -0.8167  0.4711
   20CHL1  H16A 1428   0.307   0.588   9.481  1.1258 -0.6174  0.9883
   20CHL1  H16B 1429   0.159   0.621   9.581 -0.4199 -0.8824  0.1638
   20CHL1   C17 1430   0.291   0.797   9.566 -0.5182 -0.1162  0.0077
   20CHL1   H17 1431   0.201   0.850   9.605 -0.1134 -0.0070  0.8168
   20CHL1   C13 1432   0.417   0.812   9.662  0.5480 -0.5855 -0.6520
   20CHL1   C18 1433   0.549   0.773   9.597  0.1142  0.5106 -0.0776
   20CHL1  H18A 1434   0.543   0.676   9.543 -0.8782  0.8923 -0.6831
   20CHL1  H18B 1435   0.566   0.858   9.528 -0.4207  0.9351  0.3011
   20CHL1  H18C 1436   0.639   0.762   9.661  0.7238 -0.0970 -1.0108
   20CHL1   C12 1437   0.432   0.941   9.744 -0.0624 -0.4308 -0.7303
   20CHL1  H12A 1438   0.483   1.018   9.683 -0.3985  1.6906  1.5115
   20CHL1  H12B 1439   0.329   0.968   9.775 -0.4149 -2.2493 -0.1553
   20CHL1   C11 1440   0.512   0.917   9.872 -0.7598 -0.3401  0.3357
   20CHL1  H11A 1441   0.615   0.909   9.832 -1.4364 -1.2712 -1.3688
   20CHL1  H11B 1442   0.510   1.017   9.920 -0.9584  0.1181 -0.5917
   20CHL1    C9 1443   0.475   0.811   9.961  0.8453 -0.3129 -0.2938
   20CHL1    H9 1444   0.369   0.829   9.987  1.0418  2.7066 -1.2268
   20CHL1   C10 1445   0.540   0.807  10.103  0.3744  0.2121 -0.1181
   20CHL1   C19 1446   0.695   0.824  10.088 -1.0224 -0.0176  0.6479
   20CHL1  H19A 1447   0.743   0.802  10.185 -1.5976 -2.7765  0.4004
   20CHL1  H19B 1448   0.733   0.759  10.006 -0.2079 -0.9300  1.7208
   20CHL1  H19C 1449   0.716   0.931  10.066 -0.9457  0.2026  1.7208
   20CHL1    C1 1450   0.483   0.926  10.189  0.6045  0.0938 -0.2447
   20CHL1   H1A 1451   0.511   1.024  10.146 -0.9899  0.2748 -0.9516
   20CHL1   H1B 1452   0.372   0.919  10.192  0.7029 -2.1869  0.3420
   20CHL1    C2 1453   0.525   0.928  10.336  0.3648  0.2817  0.3531
   20CHL1   H2A 1454   0.477   1.016  10.384 -1.2460 -0.9526  1.0700
   20CHL1   H2B 1455   0.634   0.947  10.350  0.3149 -0.2577  1.5338
   20CHL1   C20 1456   0.308   0.855   9.421  0.2870  0.5262  0.1325
   20CHL1   H20 1457   0.404   0.825   9.374  0.2605  2.4133 -1.2524
   20CHL1   C21 1458   0.309   1.008   9.425  0.3368 -0.5689  0.2578
   20CHL1  H21A 1459   0.387   1.042   9.497  2.2531 -1.3759 -1.3446
   20CHL1  H21B 1460   0.206   1.035   9.456  1.3357  1.7492  1.8324
   20CHL1  H21C 1461   0.333   1.040   9.322  2.2848 -1.9276  0.2467
   20CHL1   C22 1462   0.191   0.799   9.326 -0.7345 -0.0270  0.0504
   20CHL1  H22A 1463   0.185   0.688   9.318 -1.8547 -0.0220  0.5336
   20CHL1  H22B 1464   0.092   0.824   9.371  0.1882  1.6937  1.2207
   20CHL1   C23 1465   0.188   0.857   9.180  0.8637  0.0523 -0.5605
   20CHL1  H23A 1466   0.177   0.968   9.183 -1.8984 -0.1681 -0.1863
   20CHL1  H23B 1467   0.280   0.830   9.124  1.2224  2.1296 -1.0748
   20CHL1   C24 1468   0.069   0.797   9.102 -0.0478  0.2901  0.7382
   20CHL1  H24A 1469   0.065   0.688   9.123 -3.2425 -0.0725 -1.1878
   20CHL1  H24B 1470  -0.030   0.830   9.142 -1.6993 -1.6425 -1.4858
   20CHL1   C25 1471   0.078   0.826   8.949  0.2015 -0.6152  0.3124
   20CHL1   H25 1472  -0.019   0.794   8.904  0.0401  0.7207 -0.3386
   20CHL1   C26 1473   0.087   0.975   8.931 -0.5355 -0.1138 -0.7354
   20CHL1  H26A 1474   0.191   1.015   8.923 -1.4807  2.4975 -0.8253
   20CHL1  H26B 1475   0.033   0.987   8.835  0.9229 -2.5298 -1.9365
   20CHL1  H26C 1476   0.027   1.038   9.000  0.8805 -0.9637  1.3702
   20CHL1   C27 1477   0.190   0.743   8.891 -0.5160 -0.2451  0.0807
   20CHL1  H27A 1478   0.174   0.715   8.785  4.0584  0.6015 -1.0647
   20CHL1  H27B 1479   0.282   0.805   8.883 -1.1409  1.0181  2.0659
   20CHL1  H27C 1480   0.211   0.652   8.952 -1.0077 -1.2924 -1.2754
   21CHL1    C3 1481   4.931   3.339  10.168 -0.1575  0.1202 -1.1678
   21CHL1    H3 1482   4.973   3.442  10.167  0.7892 -0.2523 -2.6183
   21CHL1    O3 1483   4.939   3.283  10.298 -0.1341 -0.0069  0.3217
   21CHL1   H3' 1484   4.875   3.326  10.355  1.8733  0.8666  2.0370
   21CHL1    C4 1485   4.792   3.343  10.102  0.5521 -0.8702  0.7988
   21CHL1   H4A 1486   4.750   3.242  10.084  0.1523 -0.3496 -1.5052
   21CHL1   H4B 1487   4.720   3.389  10.172  1.6233  0.5255  1.0253
   21CHL1    C5 1488   4.803   3.406   9.968 -0.0990 -0.2206  0.2826
   21CHL1    C6 1489   4.724   3.510   9.930 -0.1881  0.2455  0.5234
   21CHL1    H6 1490   4.646   3.553   9.994 -0.9346  0.9800 -0.8514
   21CHL1    C7 1491   4.727   3.566   9.793  0.3918 -0.5565 -0.1121
   21CHL1   H7A 1492   4.624   3.581   9.755 -0.0448 -2.5219  0.1960
   21CHL1   H7B 1493   4.764   3.670   9.802  0.9228 -0.7356 -0.1898
   21CHL1    C8 1494   4.812   3.504   9.684 -0.0812 -0.2574 -0.3028
   21CHL1    H8 1495   4.747   3.426   9.638  0.4555 -1.6652  1.2220
   21CHL1   C14 1496   4.855   3.597   9.571 -0.0373  0.8923 -0.2511
   21CHL1   H14 1497   4.931   3.667   9.613 -1.8452  1.8673  1.6146
   21CHL1   C15 1498   4.750   3.692   9.517 -0.5249  0.1701  0.5837
   21CHL1  H15A 1499   4.655   3.647   9.479  0.4991  0.3169 -2.3822
   21CHL1  H15B 1500   4.730   3.775   9.588 -0.2302  0.9012 -0.1800
   21CHL1   C16 1501   4.828   3.751   9.394 -0.2878  0.0797 -0.4587
   21CHL1  H16A 1502   4.751   3.764   9.315 -1.7970 -0.1434  0.9002
   21CHL1  H16B 1503   4.867   3.854   9.409 -1.1222  0.3544 -0.0688
   21CHL1   C17 1504   4.942   3.653   9.363 -0.3952  0.5840  0.7139
   21CHL1   H17 1505   5.041   3.691   9.394 -0.5043  1.4144  0.0706
   21CHL1   C13 1506   4.924   3.531   9.453  0.4763 -0.3402  0.3049
   21CHL1   C18 1507   4.834   3.437   9.383 -0.0205  0.3032  0.3698
   21CHL1  H18A 1508   4.746   3.486   9.338  0.2197  1.0629  0.7116
   21CHL1  H18B 1509   4.885   3.381   9.301 -1.8503  0.9796 -1.3275
   21CHL1  H18C 1510   4.807   3.349   9.445  2.2394 -1.1988 -0.6258
   21CHL1   C12 1511   5.050   3.468   9.512 -0.4824  0.6781 -0.7523
   21CHL1  H12A 1512   5.113   3.412   9.439 -1.5993 -0.3097 -0.9856
   21CHL1  H12B 1513   5.118   3.534   9.570  0.6206  0.2166 -1.4783
   21CHL1   C11 1514   5.017   3.361   9.629 -0.1015  0.4239 -0.0949
   21CHL1  H11A 1515   4.958   3.281   9.581 -0.0085  0.5765 -0.4699
   21CHL1  H11B 1516   5.109   3.307   9.661  0.9621  1.7286 -0.8395
   21CHL1    C9 1517   4.936   3.435   9.739 -0.6118 -0.4600  0.4580
   21CHL1    H9 1518   5.003   3.512   9.783 -0.9679  0.1420 -0.0368
   21CHL1   C10 1519   4.899   3.346   9.864 -0.6160 -0.2389 -0.1930
   21CHL1   C19 1520   4.825   3.219   9.810  0.9937 -0.4673  0.3196
   21CHL1  H19A 1521   4.735   3.237   9.747  0.3276 -2.2366  0.7240
   21CHL1  H19B 1522   4.901   3.164   9.751  0.3703  0.7099 -1.7120
   21CHL1  H19C 1523   4.785   3.154   9.890 -0.2564  2.1290  1.9578
   21CHL1    C1 1524   5.040   3.304   9.939 -0.2495 -0.3510  0.9919
   21CHL1   H1A 1525   5.092   3.235   9.869  0.3298  0.4058  0.6550
   21CHL1   H1B 1526   5.100   3.398   9.938 -2.4107  1.1163  2.3383
   21CHL1    C2 1527   5.027   3.248  10.082 -0.6064 -0.1540  0.8149
   21CHL1   H2A 1528   5.123   3.215  10.127 -0.8308  0.8039  2.0339
   21CHL1   H2B 1529   4.984   3.147  10.063  1.5031 -1.3092  1.8468
   21CHL1   C20 1530   4.951   3.625   9.209 -0.3348  0.1955  0.3885
   21CHL1   H20 1531   4.849   3.592   9.179  0.4075 -0.0952 -2.0287
   21CHL1   C21 1532   5.070   3.532   9.167  0.3026 -0.6696 -0.8420
   21CHL1  H21A 1533   5.165   3.589   9.178 -0.2246  0.1794 -0.5585
   21CHL1  H21B 1534   5.074   3.502   9.061  0.4752 -1.9338 -0.4940
   21CHL1  H21C 1535   5.061   3.433   9.217 -2.4451 -0.3063 -0.4647
   21CHL1   C22 1536   4.968   3.763   9.125  1.1527  0.2281  0.0703
   21CHL1  H22A 1537   4.884   3.829   9.156 -0.8159 -1.1015 -2.0800
   21CHL1  H22B 1538   5.066   3.804   9.154  1.7467 -0.1424 -1.3338
   21CHL1   C23 1539   4.959   3.745   8.976 -0.6621  0.0708  0.3247
   21CHL1  H23A 1540   4.902   3.651   8.960 -0.9163  0.6430 -2.7137
   21CHL1  H23B 1541   4.896   3.825   8.930  0.0401 -0.3485 -1.4379
   21CHL1   C24 1542   5.096   3.746   8.908 -0.1294  0.2311 -0.0574
   21CHL1  H24A 1543   5.143   3.843   8.933 -2.2102  1.9751 -2.3159
   21CHL1  H24B 1544   5.152   3.665   8.959  1.8552  2.7590  2.0463
   21CHL1   C25 1545   5.086   3.721   8.763  0.0524 -0.7397  0.2994
   21CHL1   H25 1546   5.010   3.796   8.735  1.1507 -0.1870 -1.2831
   21CHL1   C26 1547   5.210   3.754   8.691  0.1682 -0.0209  0.0459
   21CHL1  H26A 1548   5.211   3.865   8.689 -3.5529  0.1436 -1.9512
   21CHL1  H26B 1549   5.303   3.722   8.744  0.4911 -2.0647 -1.6090
   21CHL1  H26C 1550   5.213   3.726   8.583 -1.5161  0.8486 -0.2509
   21CHL1   C27 1551   5.048   3.575   8.731  0.4616 -0.2144 -0.1835
   21CHL1  H27A 1552   5.032   3.553   8.623  0.1634  0.8073 -0.3673
   21CHL1  H27B 1553   5.119   3.502   8.774 -1.0975 -2.2911 -0.9749
   21CHL1  H27C 1554   4.948   3.558   8.777 -0.0811  2.4866 -0.1537
   22CHL1    C3 1555   4.303   4.579  10.110  0.8831  0.6861  0.4095
   22CHL1    H3 1556   4.252   4.486  10.078 -0.2897  1.5653 -0.3512
   22CHL1    O3 1557   4.275   4.591  10.249  0.3420  0.0754  0.8050
   22CHL1   H3' 1558   4.281   4.684  10.272 -1.3976  0.3819  0.1807
   22CHL1    C4 1559   4.446   4.580  10.091  0.4517 -0.2927  0.1345
   22CHL1   H4A 1560   4.485   4.675  10.134 -1.4873  1.2379 -1.3155
   22CHL1   H4B 1561   4.495   4.498  10.149  1.5044 -0.5534 -1.0792
   22CHL1    C5 1562   4.475   4.568   9.943  0.8287 -0.4081 -0.4692
   22CHL1    C6 1563   4.550   4.462   9.901 -0.5782  0.4890  0.3786
   22CHL1    H6 1564   4.596   4.390   9.971  0.8986 -0.7886 -1.8045
   22CHL1    C7 1565   4.595   4.447   9.756 -0.8506  0.1899 -0.0258
   22CHL1   H7A 1566   4.702   4.417   9.756 -0.8066  0.3404 -0.4643
   22CHL1   H7B 1567   4.548   4.361   9.705 -0.3257  0.2350 -0.5926
   22CHL1    C8 1568   4.573   4.576   9.665 -0.4770  0.4548 -0.1769
   22CHL1    H8 1569   4.658   4.643   9.686  1.5444 -1.9613 -0.1305
   22CHL1   C14 1570   4.567   4.538   9.515 -0.0854  0.2013  0.0458
   22CHL1   H14 1571   4.488   4.461   9.504  1.1401 -1.1634  0.3451
   22CHL1   C15 1572   4.695   4.468   9.461  0.0997 -0.6611  0.3760
   22CHL1  H15A 1573   4.777   4.533   9.498 -1.7128  1.2766  1.1439
   22CHL1  H15B 1574   4.709   4.361   9.487  2.1576 -0.6937 -0.6147
   22CHL1   C16 1575   4.678   4.481   9.304 -0.6726 -0.5079 -0.1417
   22CHL1  H16A 1576   4.772   4.512   9.254 -0.4845  0.3544  0.7212
   22CHL1  H16B 1577   4.644   4.385   9.260 -0.8730 -0.2433 -0.5692
   22CHL1   C17 1578   4.557   4.586   9.275  0.6679  0.5709  0.0356
   22CHL1   H17 1579   4.466   4.524   9.261  2.3125 -1.5267 -2.3222
   22CHL1   C13 1580   4.529   4.654   9.414  1.1346  0.5805  0.1385
   22CHL1   C18 1581   4.628   4.766   9.431  0.3382 -0.0984 -0.3261
   22CHL1  H18A 1582   4.725   4.719   9.405  0.4810  0.2197 -0.3627
   22CHL1  H18B 1583   4.617   4.857   9.368  0.2661 -0.7068 -1.2199
   22CHL1  H18C 1584   4.638   4.796   9.537 -0.1544 -0.1250 -0.2698
   22CHL1   C12 1585   4.394   4.703   9.451 -0.1403  0.0374 -0.2099
   22CHL1  H12A 1586   4.365   4.800   9.406  0.5887  0.9271  1.1716
   22CHL1  H12B 1587   4.313   4.630   9.428 -1.1150  0.9951  0.1113
   22CHL1   C11 1588   4.384   4.741   9.596  0.5558  0.1877 -0.0922
   22CHL1  H11A 1589   4.432   4.840   9.615 -0.0497  0.7359 -1.3209
   22CHL1  H11B 1590   4.278   4.765   9.615  0.2371 -0.0592 -1.4436
   22CHL1    C9 1591   4.435   4.638   9.704 -0.3643  0.0764  0.8352
   22CHL1    H9 1592   4.366   4.552   9.693 -1.3512  0.9691 -0.1800
   22CHL1   C10 1593   4.416   4.679   9.847  0.5224 -0.3461 -0.9358
   22CHL1   C19 1594   4.486   4.820   9.875  0.1512  0.3033  0.4340
   22CHL1  H19A 1595   4.515   4.848   9.978 -2.5170  0.7311  1.1372
   22CHL1  H19B 1596   4.583   4.818   9.821 -0.5424  1.4623 -0.9175
   22CHL1  H19C 1597   4.425   4.908   9.846  0.4959  0.8854  1.4214
   22CHL1    C1 1598   4.262   4.691   9.882  0.2273 -1.1715 -0.4289
   22CHL1   H1A 1599   4.223   4.787   9.842  1.3992 -0.1845  0.6867
   22CHL1   H1B 1600   4.216   4.600   9.839  0.4194 -2.1195  1.2749
   22CHL1    C2 1601   4.242   4.698  10.035  0.0405  0.5747 -0.2758
   22CHL1   H2A 1602   4.135   4.709  10.063  0.0021  0.8961 -0.5317
   22CHL1   H2B 1603   4.297   4.787  10.072 -0.0510  0.9027 -0.9057
   22CHL1   C20 1604   4.562   4.671   9.148  0.1746 -0.2921 -0.4236
   22CHL1   H20 1605   4.638   4.751   9.163 -0.5413  0.3008  0.1435
   22CHL1   C21 1606   4.424   4.739   9.125  0.1199  0.7756 -0.1943
   22CHL1  H21A 1607   4.426   4.829   9.190  2.2226  0.6321  0.0138
   22CHL1  H21B 1608   4.333   4.677   9.143  0.9588 -0.2682  0.6402
   22CHL1  H21C 1609   4.420   4.779   9.022 -1.0373 -0.0448 -0.4847
   22CHL1   C22 1610   4.599   4.589   9.026  0.1198 -0.4245  0.0715
   22CHL1  H22A 1611   4.657   4.497   9.050 -0.3586 -0.7743 -0.0924
   22CHL1  H22B 1612   4.503   4.562   8.978 -1.3660  0.1883  2.5508
   22CHL1   C23 1613   4.675   4.661   8.912  0.4757 -0.2415  0.0429
   22CHL1  H23A 1614   4.602   4.733   8.868  1.8204 -0.8959 -3.6093
   22CHL1  H23B 1615   4.755   4.729   8.949 -1.1355  1.4996  0.5281
   22CHL1   C24 1616   4.721   4.556   8.803 -0.4803 -0.2274 -0.0504
   22CHL1  H24A 1617   4.808   4.505   8.849  2.2566  2.8108 -1.5239
   22CHL1  H24B 1618   4.645   4.482   8.770 -2.1504  0.5170  1.8715
   22CHL1   C25 1619   4.770   4.622   8.670  0.2029 -0.4390  0.0121
   22CHL1   H25 1620   4.765   4.733   8.680  2.0359  0.0253 -2.8818
   22CHL1   C26 1621   4.914   4.575   8.643  0.1977  0.6041 -0.2422
   22CHL1  H26A 1622   4.961   4.616   8.551 -0.6568  3.2838  0.4298
   22CHL1  H26B 1623   4.969   4.603   8.735 -1.9428  0.0802  1.2832
   22CHL1  H26C 1624   4.916   4.463   8.642  1.7247  0.6228 -0.7349
   22CHL1   C27 1625   4.670   4.586   8.562 -0.0210  0.2051 -0.4951
   22CHL1  H27A 1626   4.694   4.650   8.474  0.6309  0.0087 -0.4642
   22CHL1  H27B 1627   4.667   4.476   8.546 -0.3921  0.3467 -1.5176
   22CHL1  H27C 1628   4.575   4.634   8.594  1.1986  0.3550  3.3350
   23CHL1    C3 1629   0.380   6.406  10.147  0.6973  0.9944 -0.0228
   23CHL1    H3 1630   0.315   6.495  10.132 -1.9590 -0.8121  0.0535
   23CHL1    O3 1631   0.402   6.387  10.288 -0.1013 -0.3097  0.2367
   23CHL1   H3' 1632   0.462   6.454  10.321 -1.5443  1.0827  0.1465
   23CHL1    C4 1633   0.293   6.289  10.095  0.2169 -0.3752  0.0515
   23CHL1   H4A 1634   0.340   6.200  10.144  2.1864  1.9087  2.6911
   23CHL1   H4B 1635   0.192   6.309  10.137  1.1053  1.3847  1.4544
   23CHL1    C5 1636   0.301   6.289   9.944 -0.2969  0.3281 -0.3300
   23CHL1    C6 1637   0.197   6.293   9.866  0.1648  0.5260  0.6550
   23CHL1    H6 1638   0.099   6.300   9.917  0.6748 -0.3945  1.7943
   23CHL1    C7 1639   0.196   6.246   9.725 -0.1915 -0.4686  0.0322
   23CHL1   H7A 1640   0.112   6.180   9.695 -0.6622  0.6234 -1.1313
   23CHL1   H7B 1641   0.181   6.340   9.668 -0.7876 -0.1843  0.6438
   23CHL1    C8 1642   0.331   6.194   9.673  0.4324 -0.0228 -0.2416
   23CHL1    H8 1643   0.333   6.089   9.710 -3.6425 -0.1989 -0.1194
   23CHL1   C14 1644   0.341   6.193   9.517  0.5004 -0.6717  0.7639
   23CHL1   H14 1645   0.339   6.299   9.484  0.4192 -0.6676  0.7825
   23CHL1   C15 1646   0.231   6.119   9.440  0.2945  0.3503 -0.4367
   23CHL1  H15A 1647   0.220   6.020   9.490 -1.3595  0.3582 -0.7129
   23CHL1  H15B 1648   0.134   6.174   9.438 -0.5862 -1.1571 -1.0456
   23CHL1   C16 1649   0.285   6.103   9.297 -0.2327 -0.1406 -0.3057
   23CHL1  H16A 1650   0.275   5.994   9.276 -0.8543 -0.2249  0.3574
   23CHL1  H16B 1651   0.225   6.156   9.220  1.9283 -2.0757 -3.5389
   23CHL1   C17 1652   0.433   6.137   9.306 -0.0259  0.4853  0.2522
   23CHL1   H17 1653   0.454   6.244   9.283 -0.8579  0.3960 -0.9918
   23CHL1   C13 1654   0.471   6.138   9.458 -0.1764 -0.6056 -0.0697
   23CHL1   C18 1655   0.502   5.994   9.510  0.3109  0.4171 -0.5280
   23CHL1  H18A 1656   0.597   5.952   9.471 -0.6229  0.3012 -2.8353
   23CHL1  H18B 1657   0.517   5.981   9.619  2.1423  0.1327 -0.7793
   23CHL1  H18C 1658   0.416   5.927   9.488 -0.7963  1.9108 -0.9859
   23CHL1   C12 1659   0.582   6.232   9.508  0.0121 -0.5023 -0.7035
   23CHL1  H12A 1660   0.673   6.185   9.465  1.3187 -1.7666  3.0521
   23CHL1  H12B 1661   0.578   6.332   9.460  1.1581 -0.2078 -0.2066
   23CHL1   C11 1662   0.588   6.241   9.659 -0.1910 -0.4781 -0.0212
   23CHL1  H11A 1663   0.622   6.145   9.704 -0.0548  0.0760  1.1105
   23CHL1  H11B 1664   0.663   6.321   9.681  0.7304 -2.0680  3.4136
   23CHL1    C9 1665   0.451   6.279   9.725  0.0025 -0.1968 -0.7669
   23CHL1    H9 1666   0.432   6.386   9.702  0.6981  0.1339  0.1548
   23CHL1   C10 1667   0.449   6.277   9.883  0.0981  0.3502  0.4496
   23CHL1   C19 1668   0.515   6.142   9.932 -0.0808  0.0343 -0.2933
   23CHL1  H19A 1669   0.621   6.116   9.911 -0.4081 -1.4934 -0.2186
   23CHL1  H19B 1670   0.526   6.138  10.042 -1.7429 -1.0094 -0.1303
   23CHL1  H19C 1671   0.453   6.054   9.903  0.3870 -0.0941 -0.9277
   23CHL1    C1 1672   0.530   6.397   9.935  0.1854  0.5041  0.9608
   23CHL1   H1A 1673   0.638   6.392   9.907 -0.0503  0.5066  0.0128
   23CHL1   H1B 1674   0.491   6.490   9.889 -0.6670  0.8712  2.3604
   23CHL1    C2 1675   0.514   6.420  10.082 -0.0883 -0.0300 -0.1096
   23CHL1   H2A 1676   0.566   6.513  10.115  1.2640 -1.2301  1.2510
   23CHL1   H2B 1677   0.568   6.332  10.122 -0.0938  0.3999  0.8828
   23CHL1   C20 1678   0.513   6.056   9.206  0.2082  0.6759  0.3225
   23CHL1   H20 1679   0.498   5.948   9.228  0.4226  0.6470  0.3232
   23CHL1   C21 1680   0.663   6.096   9.211 -0.1026  0.1379 -0.9086
   23CHL1  H21A 1681   0.665   6.207   9.207 -1.4073  0.1362 -3.7321
   23CHL1  H21B 1682   0.712   6.051   9.122  0.5890 -0.9553  0.0022
   23CHL1  H21C 1683   0.703   6.040   9.298  0.2637  1.6860 -0.0301
   23CHL1   C22 1684   0.452   6.068   9.063  0.3260  0.1087 -0.3769
   23CHL1  H22A 1685   0.522   6.011   8.998 -1.8023 -0.5856 -2.2079
   23CHL1  H22B 1686   0.357   6.011   9.052  0.5877 -0.3173 -0.4765
   23CHL1   C23 1687   0.440   6.209   9.010  0.1045 -0.5236  0.6332
   23CHL1  H23A 1688   0.363   6.263   9.069 -0.7946  0.2406 -1.1632
   23CHL1  H23B 1689   0.540   6.255   9.027  0.9424 -0.7515 -2.8688
   23CHL1   C24 1690   0.412   6.201   8.859 -0.4902  0.1361 -0.0977
   23CHL1  H24A 1691   0.511   6.195   8.809 -1.0496  2.6734 -1.6670
   23CHL1  H24B 1692   0.350   6.116   8.823 -0.1719  0.4052 -1.3012
   23CHL1   C25 1693   0.348   6.332   8.798 -0.6139 -0.4607  0.5754
   23CHL1   H25 1694   0.253   6.352   8.852  0.0313  1.2159  1.1592
   23CHL1   C26 1695   0.440   6.453   8.822  0.2512 -0.2272 -0.5431
   23CHL1  H26A 1696   0.457   6.456   8.932  0.9784 -1.6949 -0.5929
   23CHL1  H26B 1697   0.540   6.441   8.775 -0.2100  0.8008 -1.8214
   23CHL1  H26C 1698   0.383   6.545   8.796 -1.1081 -0.9872 -0.3333
   23CHL1   C27 1699   0.325   6.313   8.646 -0.8508 -0.4423  0.2559
   23CHL1  H27A 1700   0.285   6.409   8.606 -1.3181 -0.4084  0.7937
   23CHL1  H27B 1701   0.421   6.299   8.593 -0.3955  1.0058  0.6406
   23CHL1  H27C 1702   0.251   6.233   8.627 -1.1441 -0.1921  0.3299
   24CHL1    C3 1703   5.216   0.935  10.322 -0.2336 -0.0468 -0.2280
   24CHL1    H3 1704   5.124   0.998  10.320 -0.6363 -0.6243 -1.3770
   24CHL1    O3 1705   5.228   0.880  10.453  0.0006 -0.6081 -0.1284
   24CHL1   H3' 1706   5.284   0.937  10.506 -0.6026  1.0630 -1.1998
   24CHL1    C4 1707   5.214   0.816  10.214 -0.1854 -0.6283 -0.2377
   24CHL1   H4A 1708   5.310   0.763  10.232  0.5158  1.0878  1.4427
   24CHL1   H4B 1709   5.136   0.743  10.245  0.6725 -1.0669  0.9549
   24CHL1    C5 1710   5.201   0.873  10.072  0.7666  0.1674  0.3447
   24CHL1    C6 1711   5.097   0.849   9.984 -0.5078  0.0755 -0.4359
   24CHL1    H6 1712   5.018   0.783  10.022 -0.1150  1.1948  2.5624
   24CHL1    C7 1713   5.074   0.909   9.849 -0.4286 -1.1327  0.6348
   24CHL1   H7A 1714   5.054   0.827   9.777  2.0810 -0.0326 -1.5212
   24CHL1   H7B 1715   4.988   0.979   9.850  0.4620  0.0280 -0.1152
   24CHL1    C8 1716   5.195   0.989   9.800  0.7447  0.6901 -0.4527
   24CHL1    H8 1717   5.273   0.915   9.774 -0.5352 -0.8240 -0.0990
   24CHL1   C14 1718   5.159   1.067   9.677 -0.0998  0.9443  0.3223
   24CHL1   H14 1719   5.079   1.137   9.709 -0.7636 -0.7050  2.5283
   24CHL1   C15 1720   5.100   0.984   9.562  0.3658 -0.2664 -0.1834
   24CHL1  H15A 1721   5.152   0.886   9.558  1.4103  0.3203 -2.7612
   24CHL1  H15B 1722   4.994   0.969   9.591  0.9057 -2.2387  0.9644
   24CHL1   C16 1723   5.116   1.076   9.445  1.1727 -0.0644 -0.1047
   24CHL1  H16A 1724   5.150   1.009   9.363  0.3063  0.0332 -0.5565
   24CHL1  H16B 1725   5.022   1.121   9.407  0.7845 -0.3824  0.4652
   24CHL1   C17 1726   5.218   1.192   9.486  0.4323 -0.2530  0.0612
   24CHL1   H17 1727   5.160   1.279   9.523 -0.5748 -1.7551  2.2736
   24CHL1   C13 1728   5.282   1.144   9.614  0.8534  0.0375 -0.1301
   24CHL1   C18 1729   5.409   1.055   9.584 -0.0466  0.1543  0.0742
   24CHL1  H18A 1730   5.382   0.979   9.508  2.1455 -0.6603  0.0512
   24CHL1  H18B 1731   5.490   1.119   9.543 -0.3470  0.6672  0.2641
   24CHL1  H18C 1732   5.442   0.993   9.669  2.1646 -1.4239 -1.8207
   24CHL1   C12 1733   5.327   1.241   9.719  0.1650  0.0637 -0.0987
   24CHL1  H12A 1734   5.417   1.300   9.690  1.1045 -0.8079  0.9785
   24CHL1  H12B 1735   5.241   1.309   9.739  0.3956  0.9402 -1.8492
   24CHL1   C11 1736   5.358   1.175   9.856 -0.0083  0.1567 -0.0266
   24CHL1  H11A 1737   5.452   1.123   9.829  0.4996  0.3232  1.3283
   24CHL1  H11B 1738   5.384   1.258   9.924  1.2913 -1.0165  0.9513
   24CHL1    C9 1739   5.257   1.071   9.906 -0.0552 -0.0292  0.6621
   24CHL1    H9 1740   5.174   1.139   9.935 -0.4091  0.4171 -1.2383
   24CHL1   C10 1741   5.306   0.985  10.031  0.0215 -0.4024  0.3312
   24CHL1   C19 1742   5.436   0.913  10.009  0.0225 -0.0232  0.3539
   24CHL1  H19A 1743   5.424   0.852   9.917  0.7562  0.4624 -0.0702
   24CHL1  H19B 1744   5.506   0.992   9.975 -0.0572 -0.4311 -0.8114
   24CHL1  H19C 1745   5.469   0.851  10.095 -0.9525 -0.8870  0.1343
   24CHL1    C1 1746   5.314   1.089  10.145  0.3655 -0.1294  0.1115
   24CHL1   H1A 1747   5.405   1.149  10.126  0.5618  0.2490  2.0517
   24CHL1   H1B 1748   5.217   1.143  10.144  0.0122 -0.7093  1.0187
   24CHL1    C2 1749   5.337   1.032  10.290  0.0407 -0.2086  0.1058
   24CHL1   H2A 1750   5.346   1.121  10.356  1.8969  0.6396 -1.2057
   24CHL1   H2B 1751   5.435   0.981  10.302 -0.8798 -2.4328 -1.2511
   24CHL1   C20 1752   5.306   1.246   9.367 -0.3289  0.7014  0.1685
   24CHL1   H20 1753   5.385   1.169   9.361 -0.7794  0.1377  1.2033
   24CHL1   C21 1754   5.366   1.388   9.408 -0.3605 -0.2050  0.1652
   24CHL1  H21A 1755   5.442   1.375   9.487  0.7560 -2.3330 -1.1651
   24CHL1  H21B 1756   5.288   1.462   9.437  2.0249  1.5151  2.6703
   24CHL1  H21C 1757   5.417   1.428   9.318  1.0545  2.7078  2.1255
   24CHL1   C22 1758   5.240   1.245   9.228  0.7141  0.4245  0.1435
   24CHL1  H22A 1759   5.295   1.288   9.142  1.2983 -0.5139  0.0320
   24CHL1  H22B 1760   5.218   1.140   9.198 -0.1165  0.6820 -0.1623
   24CHL1   C23 1761   5.107   1.324   9.236  0.2643  0.0414 -0.1266
   24CHL1  H23A 1762   5.024   1.277   9.293 -1.1443  0.5138 -1.7016
   24CHL1  H23B 1763   5.136   1.421   9.282  0.3332  0.1965 -0.4969
   24CHL1   C24 1764   5.051   1.358   9.091 -0.5508 -0.2867  0.2707
   24CHL1  H24A 1765   4.968   1.430   9.102  0.9813  1.3032  2.2655
   24CHL1  H24B 1766   5.138   1.397   9.032 -0.3915  0.8846  1.2408
   24CHL1   C25 1767   4.994   1.235   9.015  0.1085 -0.5454  0.0773
   24CHL1   H25 1768   5.067   1.152   9.008 -1.9479 -2.4043 -0.1725
   24CHL1   C26 1769   4.868   1.179   9.087 -0.1424 -0.2280 -0.3831
   24CHL1  H26A 1770   4.888   1.102   9.164 -1.0805  0.8502  0.9934
   24CHL1  H26B 1771   4.806   1.252   9.142  1.1247  0.8226 -0.2783
   24CHL1  H26C 1772   4.801   1.127   9.016  1.1087 -0.5122 -1.4051
   24CHL1   C27 1773   4.954   1.276   8.879 -0.1092  0.4696  0.5656
   24CHL1  H27A 1774   4.918   1.193   8.815  0.2076  0.5998  0.2158
   24CHL1  H27B 1775   4.868   1.346   8.888 -1.1487 -0.7018  0.0870
   24CHL1  H27C 1776   5.028   1.345   8.832  1.9554 -1.9573  0.0060
   25CHL1    C3 1777   6.734   0.851  10.425 -0.1226  0.2518 -0.1856
   25CHL1    H3 1778   6.683   0.947  10.447  0.4577  0.4580  0.2694
   25CHL1    O3 1779   6.776   0.809  10.551 -0.4673 -0.0297 -0.3048
   25CHL1   H3' 1780   6.786   0.714  10.553  0.3474  0.0534 -0.0035
   25CHL1    C4 1781   6.641   0.745  10.351 -0.4837 -0.4812 -0.1733
   25CHL1   H4A 1782   6.710   0.659  10.359  0.9378  0.7752  2.3245
   25CHL1   H4B 1783   6.558   0.724  10.422  0.2977  0.2991  1.0249
   25CHL1    C5 1784   6.602   0.780  10.207 -0.0926  0.8145 -0.4335
   25CHL1    C6 1785   6.473   0.782  10.164  0.1886  0.0992 -0.4476
   25CHL1    H6 1786   6.389   0.774  10.234 -1.0359  0.6295 -1.8002
   25CHL1    C7 1787   6.414   0.803  10.028 -0.8623  0.3420 -0.1099
   25CHL1   H7A 1788   6.338   0.725  10.002 -1.7286  0.9993  0.4076
   25CHL1   H7B 1789   6.361   0.900  10.031  0.2098  0.9711  3.7054
   25CHL1    C8 1790   6.535   0.811   9.922  0.0886  0.3003 -0.4913
   25CHL1    H8 1791   6.560   0.709   9.886 -1.8451 -0.0941 -0.8254
   25CHL1   C14 1792   6.496   0.895   9.797 -0.5180 -0.5022  0.0314
   25CHL1   H14 1793   6.489   0.998   9.839  0.9626 -0.4863  0.3208
   25CHL1   C15 1794   6.362   0.856   9.733  0.0376  0.0373  0.1655
   25CHL1  H15A 1795   6.360   0.746   9.724  2.4072 -0.0010 -0.5448
   25CHL1  H15B 1796   6.266   0.883   9.782 -0.2556 -0.9707  0.1671
   25CHL1   C16 1797   6.373   0.901   9.583 -0.1167  0.7373  0.1356
   25CHL1  H16A 1798   6.350   0.815   9.516  2.6581 -0.6465  0.8074
   25CHL1  H16B 1799   6.296   0.975   9.554  1.1724  1.8336 -0.6036
   25CHL1   C17 1800   6.513   0.964   9.569 -0.2859  0.2675 -0.7764
   25CHL1   H17 1801   6.506   1.071   9.595 -0.2934  0.2443 -0.6808
   25CHL1   C13 1802   6.600   0.905   9.680 -0.4289  0.5499 -0.4155
   25CHL1   C18 1803   6.648   0.767   9.622  0.0241 -0.6689 -0.4964
   25CHL1  H18A 1804   6.720   0.783   9.539  0.8333 -1.5731  0.0172
   25CHL1  H18B 1805   6.685   0.705   9.706  0.5433  1.0082  0.5505
   25CHL1  H18C 1806   6.569   0.702   9.577  0.6745 -1.2295 -0.8449
   25CHL1   C12 1807   6.718   0.977   9.745  0.2249 -0.0203  0.4706
   25CHL1  H12A 1808   6.811   0.976   9.683  0.5920  0.3435  1.0022
   25CHL1  H12B 1809   6.690   1.083   9.763 -0.1016  0.1850 -1.0800
   25CHL1   C11 1810   6.767   0.905   9.875  0.5243  0.8392  0.3420
   25CHL1  H11A 1811   6.807   0.807   9.843  1.3246  0.6228  1.9079
   25CHL1  H11B 1812   6.853   0.971   9.903  1.8664 -0.5992 -0.2413
   25CHL1    C9 1813   6.659   0.882   9.984  0.9067  0.2289  0.0078
   25CHL1    H9 1814   6.630   0.985  10.016  3.3363  1.5042 -1.5723
   25CHL1   C10 1815   6.711   0.818  10.111  0.5472 -0.3831 -0.1018
   25CHL1   C19 1816   6.787   0.689  10.072 -0.4671  0.0032  0.7328
   25CHL1  H19A 1817   6.722   0.630  10.002 -1.8325  1.6344  0.5467
   25CHL1  H19B 1818   6.877   0.715  10.013 -2.7121  2.9379 -1.7511
   25CHL1  H19C 1819   6.806   0.625  10.160  0.7365 -1.7731 -0.7369
   25CHL1    C1 1820   6.803   0.919  10.194  0.0109  0.8336  0.4608
   25CHL1   H1A 1821   6.892   0.925  10.129 -0.0845  0.6481  0.3099
   25CHL1   H1B 1822   6.754   1.017  10.209 -1.3773  0.4026 -0.9939
   25CHL1    C2 1823   6.849   0.859  10.330 -0.1667 -0.1479  0.0114
   25CHL1   H2A 1824   6.932   0.922  10.368 -1.8690  2.9130 -1.0100
   25CHL1   H2B 1825   6.892   0.759  10.306  0.6095  0.3106 -0.5760
   25CHL1   C20 1826   6.559   0.949   9.426 -0.2834 -0.1068 -0.1116
   25CHL1   H20 1827   6.578   0.847   9.385  2.7197  1.0604 -1.9955
   25CHL1   C21 1828   6.670   1.043   9.415 -0.4422  0.1938  0.7684
   25CHL1  H21A 1829   6.751   1.031   9.490  0.6612  0.8834 -0.2661
   25CHL1  H21B 1830   6.629   1.146   9.425 -1.7792 -0.4328  2.0195
   25CHL1  H21C 1831   6.717   1.017   9.317  1.7779 -0.0213  1.8317
   25CHL1   C22 1832   6.444   1.006   9.326  0.3970  0.3277  0.1153
   25CHL1  H22A 1833   6.348   0.952   9.341 -0.0464  1.4522  1.4830
   25CHL1  H22B 1834   6.426   1.114   9.346 -0.3747  0.3739 -0.7493
   25CHL1   C23 1835   6.485   0.988   9.180  0.2999 -0.4019 -0.2569
   25CHL1  H23A 1836   6.560   1.059   9.141 -0.5730  0.8933  0.3549
   25CHL1  H23B 1837   6.525   0.886   9.160 -3.6642 -2.1452 -0.2565
   25CHL1   C24 1838   6.359   1.001   9.092  0.0586 -0.1019  0.5646
   25CHL1  H24A 1839   6.297   0.910   9.110 -1.1774  0.3832 -1.0252
   25CHL1  H24B 1840   6.318   1.099   9.123 -2.4978 -1.0989  0.6414
   25CHL1   C25 1841   6.391   1.020   8.939 -0.1059  0.2983 -0.0350
   25CHL1   H25 1842   6.469   1.097   8.922 -0.5510  0.5075 -1.2333
   25CHL1   C26 1843   6.423   0.886   8.877  0.3372 -0.5267 -0.0796
   25CHL1  H26A 1844   6.344   0.811   8.898  0.0733 -0.6629 -1.4499
   25CHL1  H26B 1845   6.430   0.906   8.768 -0.5525 -1.2447 -0.2913
   25CHL1  H26C 1846   6.520   0.853   8.920 -0.4254 -3.5439 -0.4184
   25CHL1   C27 1847   6.263   1.077   8.867 -0.6888 -0.3732  0.1525
   25CHL1  H27A 1848   6.271   1.072   8.757  2.7085 -0.1608  0.2673
   25CHL1  H27B 1849   6.177   1.011   8.889  1.4054 -3.2371  0.2964
   25CHL1  H27C 1850   6.249   1.182   8.902 -0.4839 -0.5719  0.8516
   26CHL1    C3 1851   5.218   5.614  10.322 -0.4961 -0.2042  0.0142
   26CHL1    H3 1852   5.146   5.697  10.341  0.2637  0.6672 -0.7810
   26CHL1    O3 1853   5.242   5.564  10.454 -0.0313  0.1258  0.7342
   26CHL1   H3' 1854   5.312   5.499  10.449  1.4697  1.6937  0.5511
   26CHL1    C4 1855   5.159   5.514  10.231  0.1076 -0.1223  0.5884
   26CHL1   H4A 1856   5.224   5.424  10.233  0.4377  0.1122  0.3945
   26CHL1   H4B 1857   5.064   5.472  10.272 -0.9124 -0.8120 -2.2163
   26CHL1    C5 1858   5.135   5.568  10.090 -0.8580 -0.5005  0.4868
   26CHL1    C6 1859   5.014   5.560  10.035 -0.4375  1.1596  0.5435
   26CHL1    H6 1860   4.938   5.502  10.089 -0.1165 -0.8860 -1.0674
   26CHL1    C7 1861   4.979   5.587   9.889 -0.0958  0.1105 -0.4124
   26CHL1   H7A 1862   4.916   5.499   9.863 -2.2801  0.6305  2.5418
   26CHL1   H7B 1863   4.911   5.674   9.894 -1.3832 -0.8711 -0.2994
   26CHL1    C8 1864   5.113   5.608   9.813 -0.2469 -0.1992 -0.7335
   26CHL1    H8 1865   5.159   5.509   9.792 -0.0010 -0.2091 -0.1628
   26CHL1   C14 1866   5.084   5.663   9.675 -0.4950  0.3530  0.3062
   26CHL1   H14 1867   5.032   5.761   9.684  0.0632  0.5105  2.7205
   26CHL1   C15 1868   4.986   5.577   9.586 -0.3436  0.0122 -0.4500
   26CHL1  H15A 1869   4.989   5.466   9.592 -0.4453  0.0627  0.9881
   26CHL1  H15B 1870   4.878   5.594   9.605 -0.7007 -2.4805  0.1419
   26CHL1   C16 1871   5.016   5.626   9.441 -0.0841 -0.1104  0.3400
   26CHL1  H16A 1872   5.060   5.541   9.384 -1.3930  0.8034 -2.1718
   26CHL1  H16B 1873   4.924   5.658   9.387  0.8010  1.5083 -0.2961
   26CHL1   C17 1874   5.127   5.738   9.453 -0.4137  0.7040 -0.5401
   26CHL1   H17 1875   5.083   5.840   9.459 -0.0201  0.8608 -0.3292
   26CHL1   C13 1876   5.200   5.704   9.582 -0.5592 -0.8960 -1.3855
   26CHL1   C18 1877   5.292   5.586   9.550 -0.0239 -0.7668  0.2316
   26CHL1  H18A 1878   5.336   5.537   9.639  0.3054 -2.9529 -1.0622
   26CHL1  H18B 1879   5.230   5.509   9.500  0.6844 -0.6105 -0.9288
   26CHL1  H18C 1880   5.384   5.618   9.496 -1.2624 -0.5594 -1.8558
   26CHL1   C12 1881   5.283   5.813   9.664 -0.1737  1.0068  0.4087
   26CHL1  H12A 1882   5.372   5.841   9.604 -0.5935  3.2071  0.7240
   26CHL1  H12B 1883   5.224   5.906   9.679 -0.6233  0.4513  2.4229
   26CHL1   C11 1884   5.325   5.751   9.801 -0.7343 -0.1459 -0.0179
   26CHL1  H11A 1885   5.399   5.674   9.771  0.1156  0.7410 -0.2557
   26CHL1  H11B 1886   5.386   5.827   9.855 -0.2515  0.8395 -1.8682
   26CHL1    C9 1887   5.213   5.696   9.887  0.0487 -0.2607  0.2261
   26CHL1    H9 1888   5.153   5.787   9.908  0.6180  0.1103  0.2986
   26CHL1   C10 1889   5.254   5.628  10.018  0.1610  0.7078  0.5150
   26CHL1   C19 1890   5.368   5.532   9.989 -0.2710  0.6238 -0.1091
   26CHL1  H19A 1891   5.467   5.581   9.980  0.6285 -0.8972  1.0780
   26CHL1  H19B 1892   5.379   5.460  10.072  0.5499 -0.4308 -1.1105
   26CHL1  H19C 1893   5.347   5.471   9.898  1.1647  1.3616 -0.9875
   26CHL1    C1 1894   5.315   5.727  10.125  0.0073 -0.0857  0.7738
   26CHL1   H1A 1895   5.410   5.775  10.092 -0.4506  2.3316  2.6961
   26CHL1   H1B 1896   5.240   5.808  10.126  0.6097  1.0363 -5.0919
   26CHL1    C2 1897   5.349   5.663  10.264  0.2681 -0.1399  0.3715
   26CHL1   H2A 1898   5.387   5.747  10.326  1.2574 -2.0727  2.5892
   26CHL1   H2B 1899   5.433   5.590  10.266  1.7908  1.4307  4.1771
   26CHL1   C20 1900   5.207   5.744   9.322  0.4074  1.2730 -0.1605
   26CHL1   H20 1901   5.232   5.640   9.292  0.6103  1.3954 -0.4130
   26CHL1   C21 1902   5.337   5.825   9.330 -0.0918 -0.1398 -0.2285
   26CHL1  H21A 1903   5.323   5.920   9.386  0.9257 -0.0512 -0.0896
   26CHL1  H21B 1904   5.382   5.845   9.230 -1.2425  0.3242 -0.6610
   26CHL1  H21C 1905   5.416   5.774   9.389  0.6910  3.0291  1.7074
   26CHL1   C22 1906   5.121   5.793   9.204  0.2594 -0.0341 -0.5281
   26CHL1  H22A 1907   5.021   5.828   9.238 -0.2423  0.4420 -2.3786
   26CHL1  H22B 1908   5.174   5.883   9.166 -0.0172  0.1085 -0.5815
   26CHL1   C23 1909   5.115   5.695   9.092  0.1962 -0.0887  0.3498
   26CHL1  H23A 1910   5.222   5.667   9.079  0.7435  0.6051  2.9514
   26CHL1  H23B 1911   5.053   5.607   9.117 -1.7013  1.0602 -0.1321
   26CHL1   C24 1912   5.057   5.758   8.967  0.3168  0.5937  0.1424
   26CHL1  H24A 1913   4.954   5.791   8.994  1.1816  2.4300  1.4265
   26CHL1  H24B 1914   5.105   5.852   8.931  0.2279 -0.0908 -1.8337
   26CHL1   C25 1915   5.048   5.660   8.850 -0.8747  0.0424  0.1128
   26CHL1   H25 1916   5.027   5.560   8.893  3.1844 -1.4536 -0.9648
   26CHL1   C26 1917   4.942   5.698   8.761  0.1590 -0.1729  0.4469
   26CHL1  H26A 1918   4.980   5.775   8.689  1.2947 -0.2879  0.8941
   26CHL1  H26B 1919   4.911   5.619   8.689 -0.9444  2.0342 -1.6604
   26CHL1  H26C 1920   4.850   5.726   8.816 -0.6426 -0.2278 -0.8312
   26CHL1   C27 1921   5.187   5.637   8.791  0.1426  0.2971 -0.0809
   26CHL1  H27A 1922   5.195   5.557   8.714  0.9525  0.0735  0.2201
   26CHL1  H27B 1923   5.210   5.731   8.736 -0.7287  1.2387  1.1066
   26CHL1  H27C 1924   5.265   5.607   8.864  0.7282 -2.0541 -1.5599
   27CHL1    C3 1925   0.053   1.299  10.499 -0.2161  0.8516  0.8895
   27CHL1    H3 1926  -0.008   1.211  10.471  1.2407  0.3050 -0.7567
   27CHL1    O3 1927   0.078   1.303  10.635 -0.0428  0.4308  0.2071
   27CHL1   H3' 1928   0.130   1.224  10.652 -0.7668  0.1354  1.1429
   27CHL1    C4 1929   0.190   1.280  10.424 -0.1778  0.3324  0.8935
   27CHL1   H4A 1930   0.257   1.362  10.457  1.3917 -0.3706 -0.4096
   27CHL1   H4B 1931   0.239   1.184  10.453  0.9695  0.6693  0.1666
   27CHL1    C5 1932   0.189   1.291  10.271  0.1625  1.1673  0.1303
   27CHL1    C6 1933   0.259   1.201  10.196 -0.3133 -0.2664 -0.1773
   27CHL1    H6 1934   0.319   1.124  10.247 -0.7975 -0.4639  0.1053
   27CHL1    C7 1935   0.259   1.217  10.046 -0.2388  0.2110 -0.2010
   27CHL1   H7A 1936   0.359   1.195  10.004  0.3794  2.2165  0.1282
   27CHL1   H7B 1937   0.201   1.134  10.000 -1.0937 -2.3657  4.8852
   27CHL1    C8 1938   0.204   1.343   9.987  1.0885  0.1318  0.4484
   27CHL1    H8 1939   0.281   1.421  10.002 -0.8250  1.6115  3.7178
   27CHL1   C14 1940   0.167   1.329   9.832 -0.2027 -0.3593  0.2199
   27CHL1   H14 1941   0.089   1.251   9.823  0.1642 -0.4624 -3.1511
   27CHL1   C15 1942   0.262   1.266   9.735  0.3503 -0.5208  0.1496
   27CHL1  H15A 1943   0.352   1.331   9.731 -0.5927  0.7641 -1.0698
   27CHL1  H15B 1944   0.294   1.164   9.764  0.8541 -0.5560 -0.4906
   27CHL1   C16 1945   0.179   1.282   9.604  0.3778 -0.0186  0.6249
   27CHL1  H16A 1946   0.254   1.309   9.526  0.3906  2.0044  1.2795
   27CHL1  H16B 1947   0.129   1.186   9.581  1.1449 -0.3394  0.2415
   27CHL1   C17 1948   0.060   1.388   9.625  0.0562 -0.7877  0.0182
   27CHL1   H17 1949  -0.031   1.327   9.643  0.2255 -1.0883 -0.1396
   27CHL1   C13 1950   0.094   1.447   9.765  1.1029 -0.2484  0.1717
   27CHL1   C18 1951   0.191   1.568   9.746  0.6477 -0.5580 -0.2336
   27CHL1  H18A 1952   0.272   1.563   9.670  2.7005  0.5877  1.7678
   27CHL1  H18B 1953   0.135   1.660   9.718 -2.0516 -1.9898  0.1292
   27CHL1  H18C 1954   0.232   1.587   9.847 -0.8347 -1.1674  0.5236
   27CHL1   C12 1955  -0.030   1.484   9.853  0.2971  0.1594  0.0722
   27CHL1  H12A 1956  -0.078   1.577   9.818  0.3636  0.2479  0.2161
   27CHL1  H12B 1957  -0.111   1.408   9.850 -1.1798  1.6857  0.4655
   27CHL1   C11 1958   0.007   1.507  10.000  0.5809  0.6732 -0.0529
   27CHL1  H11A 1959   0.080   1.591   9.999  2.2426 -0.6861 -1.1625
   27CHL1  H11B 1960  -0.085   1.546  10.047  0.8138 -0.3173  1.2625
   27CHL1    C9 1961   0.080   1.383  10.070  0.0640 -0.4541 -0.2743
   27CHL1    H9 1962   0.008   1.299  10.072 -0.8682  0.2719 -1.5885
   27CHL1   C10 1963   0.104   1.408  10.221  0.4038 -0.2756 -0.3424
   27CHL1   C19 1964   0.185   1.538  10.248  0.4760 -0.4932  0.3292
   27CHL1  H19A 1965   0.219   1.541  10.353 -0.1248 -1.8396  0.5828
   27CHL1  H19B 1966   0.263   1.561  10.172 -1.0866  0.5291 -1.0540
   27CHL1  H19C 1967   0.119   1.626  10.231  0.3150 -0.8287 -0.8498
   27CHL1    C1 1968  -0.032   1.415  10.298  0.0791 -0.0037  0.3166
   27CHL1   H1A 1969  -0.082   1.508  10.262 -0.0680  0.6522  2.1096
   27CHL1   H1B 1970  -0.102   1.331  10.280 -1.1386  1.1055 -0.3745
   27CHL1    C2 1971  -0.014   1.425  10.453  0.0025 -0.0511  0.7367
   27CHL1   H2A 1972  -0.112   1.430  10.505 -0.9275 -1.8515 -0.7225
   27CHL1   H2B 1973   0.043   1.515  10.485 -1.9867  1.7515 -0.5231
   27CHL1   C20 1974   0.015   1.483   9.516 -0.6568  0.0027  0.2588
   27CHL1   H20 1975   0.101   1.550   9.492 -1.4345  1.3777  1.1898
   27CHL1   C21 1976  -0.109   1.555   9.543 -0.6225 -1.3984 -0.4783
   27CHL1  H21A 1977  -0.095   1.633   9.621  2.0018 -0.6144 -1.6245
   27CHL1  H21B 1978  -0.195   1.492   9.576 -1.0122 -1.8477 -2.2566
   27CHL1  H21C 1979  -0.142   1.619   9.458  0.2703 -1.2357 -0.7062
   27CHL1   C22 1980  -0.012   1.396   9.382 -0.2701  0.1854 -0.5540
   27CHL1  H22A 1981   0.073   1.328   9.361  3.0424  3.7209  0.3474
   27CHL1  H22B 1982  -0.109   1.343   9.396 -0.4418  0.5277 -0.4110
   27CHL1   C23 1983  -0.035   1.486   9.258 -0.0883 -0.3480 -0.0170
   27CHL1  H23A 1984  -0.078   1.585   9.285  2.0529  1.1833 -1.8490
   27CHL1  H23B 1985   0.063   1.518   9.218 -1.2346  0.9567 -1.9695
   27CHL1   C24 1986  -0.120   1.414   9.146 -0.4456 -0.3073 -0.4965
   27CHL1  H24A 1987  -0.082   1.310   9.138 -0.6204 -0.8173  3.3534
   27CHL1  H24B 1988  -0.226   1.417   9.179 -1.0371  3.7971 -2.1869
   27CHL1   C25 1989  -0.115   1.481   9.012  0.7935  0.3629  0.3308
   27CHL1   H25 1990  -0.008   1.493   8.984  1.1224 -0.2354  1.2955
   27CHL1   C26 1991  -0.164   1.382   8.899  0.7827  0.2860 -0.3596
   27CHL1  H26A 1992  -0.100   1.291   8.897 -0.6022 -0.7444 -3.1003
   27CHL1  H26B 1993  -0.271   1.355   8.917  0.9729  0.7927  1.8514
   27CHL1  H26C 1994  -0.159   1.437   8.803 -1.0140  3.3682  1.1368
   27CHL1   C27 1995  -0.185   1.617   9.017 -0.9390 -0.2869  0.2151
   27CHL1  H27A 1996  -0.185   1.669   8.919 -1.8983 -0.8883 -0.1184
   27CHL1  H27B 1997  -0.292   1.594   9.032 -0.8723 -1.9828 -1.4421
   27CHL1  H27C 1998  -0.142   1.686   9.092  1.6958  0.0207 -1.4439
   28CHL1    C3 1999   4.373   0.435  10.076 -0.0967  0.4185  0.0386
   28CHL1    H3 2000   4.421   0.535  10.076  1.1471 -0.1423  0.9904
   28CHL1    O3 2001   4.347   0.399  10.212  0.0567  0.0612 -0.6850
   28CHL1   H3' 2002   4.296   0.468  10.256  0.6200 -0.0014  0.0989
   28CHL1    C4 2003   4.236   0.421  10.004 -0.5456  0.2755 -0.7950
   28CHL1   H4A 2004   4.191   0.323  10.033  0.4482  0.1765  0.5208
   28CHL1   H4B 2005   4.182   0.509  10.044  0.9253  0.5682  0.6755
   28CHL1    C5 2006   4.262   0.439   9.851 -0.5830  0.1096  0.1055
   28CHL1    C6 2007   4.210   0.543   9.791 -0.0039  0.0835 -0.3622
   28CHL1    H6 2008   4.150   0.624   9.837 -1.4598  0.2502 -2.4387
   28CHL1    C7 2009   4.212   0.563   9.642 -0.3428 -0.4077 -0.4646
   28CHL1   H7A 2010   4.105   0.577   9.614 -0.0814  0.6763 -0.9694
   28CHL1   H7B 2011   4.277   0.648   9.611 -0.0073 -0.2753  0.5536
   28CHL1    C8 2012   4.265   0.435   9.576  0.2328 -0.4474  0.7523
   28CHL1    H8 2013   4.185   0.359   9.587  0.9065 -1.4389 -0.9314
   28CHL1   C14 2014   4.291   0.463   9.422 -0.0536  0.6606 -0.2550
   28CHL1   H14 2015   4.362   0.548   9.417  0.4455  0.1952 -1.5072
   28CHL1   C15 2016   4.165   0.509   9.343  0.4289 -0.2568  0.2528
   28CHL1  H15A 2017   4.084   0.442   9.378 -2.5373  2.1810 -1.4693
   28CHL1  H15B 2018   4.140   0.613   9.371 -0.3805 -0.3574 -0.0752
   28CHL1   C16 2019   4.191   0.475   9.197 -0.1805 -0.3204  0.0420
   28CHL1  H16A 2020   4.115   0.398   9.172  0.8393 -2.0220  1.9005
   28CHL1  H16B 2021   4.186   0.561   9.127 -1.5060  0.9219  1.5875
   28CHL1   C17 2022   4.333   0.410   9.196  0.1676  0.2119 -0.5890
   28CHL1   H17 2023   4.418   0.481   9.184  0.2874 -0.0104 -1.0892
   28CHL1   C13 2024   4.352   0.346   9.342  0.5532 -0.0285 -0.6267
   28CHL1   C18 2025   4.256   0.228   9.355 -0.0009 -0.0528  0.4469
   28CHL1  H18A 2026   4.271   0.171   9.449  0.6466  0.4887  0.6758
   28CHL1  H18B 2027   4.147   0.251   9.356  0.1584  0.7136  0.7408
   28CHL1  H18C 2028   4.282   0.154   9.276  1.9532  0.0249  0.9733
   28CHL1   C12 2029   4.494   0.315   9.404  0.2489 -0.2274 -0.1928
   28CHL1  H12A 2030   4.547   0.234   9.351  2.0227  1.1053 -0.5372
   28CHL1  H12B 2031   4.551   0.409   9.390 -1.5141  0.8950 -0.2349
   28CHL1   C11 2032   4.487   0.286   9.558  0.0831 -0.4524  0.4901
   28CHL1  H11A 2033   4.453   0.181   9.569 -1.8727 -0.1539 -1.8571
   28CHL1  H11B 2034   4.583   0.315   9.605  0.1592 -0.5199  0.3750
   28CHL1    C9 2035   4.396   0.380   9.642 -0.1899 -0.2044  0.5141
   28CHL1    H9 2036   4.464   0.468   9.641  1.8964 -1.6582 -2.2674
   28CHL1   C10 2037   4.367   0.339   9.782 -0.3161  0.3952 -0.4093
   28CHL1   C19 2038   4.302   0.200   9.783 -0.3839 -0.6330 -0.1470
   28CHL1  H19A 2039   4.224   0.187   9.704 -0.6350 -0.6542  0.1029
   28CHL1  H19B 2040   4.374   0.121   9.754 -0.2101 -0.4123 -0.3158
   28CHL1  H19C 2041   4.255   0.173   9.880 -2.1487  0.6740 -0.5884
   28CHL1    C1 2042   4.497   0.338   9.866 -0.8272 -0.6771 -0.0735
   28CHL1   H1A 2043   4.566   0.253   9.846 -0.6418 -0.0976 -2.0770
   28CHL1   H1B 2044   4.555   0.429   9.840  0.3213  0.6636  5.7126
   28CHL1    C2 2045   4.470   0.331  10.014  0.5761 -0.0604  0.4992
   28CHL1   H2A 2046   4.567   0.330  10.067 -0.1195 -2.7358  1.8865
   28CHL1   H2B 2047   4.419   0.236  10.043 -0.6392  0.9146  1.7406
   28CHL1   C20 2048   4.360   0.318   9.078  0.1496  0.2748 -0.2327
   28CHL1   H20 2049   4.290   0.232   9.083 -0.2742  0.6627  0.6927
   28CHL1   C21 2050   4.504   0.271   9.071  0.0034  0.1707  0.1262
   28CHL1  H21A 2051   4.508   0.201   9.158 -1.4526 -0.1349 -0.0224
   28CHL1  H21B 2052   4.577   0.351   9.095  0.5297 -0.4110  0.4986
   28CHL1  H21C 2053   4.537   0.221   8.978  0.3394 -1.9327  1.3159
   28CHL1   C22 2054   4.328   0.391   8.951 -0.1593  0.3655 -0.4933
   28CHL1  H22A 2055   4.229   0.441   8.954  0.0486  0.7665 -0.3182
   28CHL1  H22B 2056   4.404   0.470   8.933  0.4880 -0.0197  0.4481
   28CHL1   C23 2057   4.330   0.291   8.829 -0.6623 -0.1563 -0.3510
   28CHL1  H23A 2058   4.432   0.252   8.808 -0.6378 -0.0710 -0.3921
   28CHL1  H23B 2059   4.261   0.208   8.855 -0.0611 -0.6592 -0.3380
   28CHL1   C24 2060   4.287   0.355   8.700 -0.0320  0.1691  0.2470
   28CHL1  H24A 2061   4.185   0.399   8.708 -0.3804 -0.1490 -1.8697
   28CHL1  H24B 2062   4.351   0.436   8.659  1.4111 -0.1235  1.8504
   28CHL1   C25 2063   4.266   0.252   8.581 -0.5512 -0.2605 -0.0338
   28CHL1   H25 2064   4.201   0.298   8.503 -0.2139 -0.0081 -0.1695
   28CHL1   C26 2065   4.398   0.205   8.529 -0.7803 -0.3900  0.2617
   28CHL1  H26A 2066   4.460   0.135   8.589  0.0125 -0.3696 -0.5152
   28CHL1  H26B 2067   4.368   0.156   8.434  0.3951 -1.9148  0.6212
   28CHL1  H26C 2068   4.462   0.295   8.513 -1.0842  0.4858  3.3207
   28CHL1   C27 2069   4.184   0.131   8.629  0.1540  0.2199 -0.2459
   28CHL1  H27A 2070   4.080   0.156   8.660  0.6128 -0.5327  2.0761
   28CHL1  H27B 2071   4.166   0.054   8.551  0.2967  0.5203 -0.5781
   28CHL1  H27C 2072   4.244   0.086   8.711 -0.5802  1.0543  0.7892
   29CHL1    C3 2073   5.986   6.137   6.600  0.1112 -0.2273  0.5034
   29CHL1    H3 2074   6.047   6.049   6.629  0.5393 -0.1141 -0.0379
   29CHL1    O3 2075   5.965   6.125   6.459 -0.0676 -0.0347 -0.1203
   29CHL1   H3' 2076   5.885   6.177   6.448 -0.1488 -0.3419 -1.1138
   29CHL1    C4 2077   5.852   6.122   6.675  0.0457 -0.1753 -0.6649
   29CHL1   H4A 2078   5.769   6.187   6.642 -0.9158  0.1016  2.0285
   29CHL1   H4B 2079   5.819   6.018   6.652  0.5207 -0.2303 -1.1296
   29CHL1    C5 2080   5.874   6.142   6.822  0.4688  0.1030 -0.6508
   29CHL1    C6 2081   5.831   6.050   6.912 -0.4580  0.1116  0.0217
   29CHL1    H6 2082   5.784   5.959   6.871  1.5344 -0.9504 -0.0388
   29CHL1    C7 2083   5.840   6.066   7.060  0.0094  0.5917  0.5162
   29CHL1   H7A 2084   5.744   6.032   7.105 -0.0248 -2.9133 -1.7543
   29CHL1   H7B 2085   5.913   5.994   7.103 -0.1874 -0.5847 -1.0012
   29CHL1    C8 2086   5.864   6.212   7.103  0.0050 -0.2301  0.5778
   29CHL1    H8 2087   5.773   6.274   7.091  0.7787  1.4028  2.5817
   29CHL1   C14 2088   5.891   6.222   7.255 -0.7421 -0.4926 -0.3523
   29CHL1   H14 2089   5.982   6.162   7.279  0.9459  2.8010  2.3706
   29CHL1   C15 2090   5.777   6.173   7.353 -0.3210 -0.4381  1.5461
   29CHL1  H15A 2091   5.678   6.216   7.327  0.1609 -0.7228 -1.0290
   29CHL1  H15B 2092   5.775   6.063   7.338  0.6275 -0.1529 -1.1152
   29CHL1   C16 2093   5.834   6.223   7.488  0.0909 -0.3951 -0.0163
   29CHL1  H16A 2094   5.749   6.261   7.549  0.7843 -0.3157  0.9337
   29CHL1  H16B 2095   5.867   6.134   7.545  0.2233 -0.4725 -0.2151
   29CHL1   C17 2096   5.953   6.327   7.460  0.4794  0.1640  0.2678
   29CHL1   H17 2097   6.040   6.259   7.450 -1.0304 -1.8628  0.2069
   29CHL1   C13 2098   5.937   6.366   7.308  0.4977 -0.4414 -0.3759
   29CHL1   C18 2099   5.817   6.461   7.298 -0.2578 -1.0331  0.3051
   29CHL1  H18A 2100   5.849   6.564   7.270 -2.9099 -0.0498  0.6619
   29CHL1  H18B 2101   5.761   6.433   7.206  1.0299  3.6412 -2.2632
   29CHL1  H18C 2102   5.747   6.480   7.382  0.8518  1.6081  0.7753
   29CHL1   C12 2103   6.062   6.406   7.226 -0.3228  0.3649 -0.0486
   29CHL1  H12A 2104   6.085   6.509   7.261  1.9707 -0.3372  0.6670
   29CHL1  H12B 2105   6.146   6.337   7.248 -3.3575 -2.8467  2.8234
   29CHL1   C11 2106   6.028   6.408   7.077 -0.4961 -0.5766 -0.3448
   29CHL1  H11A 2107   5.964   6.494   7.045  3.5727  2.8586 -0.0624
   29CHL1  H11B 2108   6.126   6.414   7.025  0.4766 -1.6541  1.2794
   29CHL1    C9 2109   5.976   6.269   7.021 -0.2180  0.4317  0.4434
   29CHL1    H9 2110   6.060   6.197   7.030 -0.8700 -0.2824  0.9223
   29CHL1   C10 2111   5.945   6.275   6.867  0.6032  0.6577  0.1436
   29CHL1   C19 2112   5.861   6.396   6.833  0.8566 -0.2167  0.4057
   29CHL1  H19A 2113   5.775   6.412   6.902 -0.3878  1.7820 -1.4600
   29CHL1  H19B 2114   5.915   6.493   6.834  0.5813 -0.0600  0.3736
   29CHL1  H19C 2115   5.818   6.388   6.731 -0.7506  1.9182  0.8487
   29CHL1    C1 2116   6.070   6.284   6.779  0.4643 -0.6049 -0.7080
   29CHL1   H1A 2117   6.126   6.378   6.803  0.8113  0.1246 -3.9279
   29CHL1   H1B 2118   6.140   6.207   6.819 -0.0801 -0.0760  1.3810
   29CHL1    C2 2119   6.055   6.270   6.627 -0.1695  0.4058 -1.1826
   29CHL1   H2A 2120   6.162   6.269   6.596 -0.2027  0.0944 -1.2951
   29CHL1   H2B 2121   6.002   6.357   6.583  0.0945  0.6497 -1.0176
   29CHL1   C20 2122   5.965   6.439   7.571  0.0311  0.1865  0.6385
   29CHL1   H20 2123   5.868   6.490   7.585  0.5622  1.3461  0.2166
   29CHL1   C21 2124   6.075   6.532   7.533 -0.3406  0.0836 -0.2000
   29CHL1  H21A 2125   6.152   6.489   7.466  1.4039  0.6312  1.3896
   29CHL1  H21B 2126   6.127   6.583   7.616 -0.3590 -1.0499  0.5276
   29CHL1  H21C 2127   6.024   6.614   7.478 -1.9814 -0.2817  0.6986
   29CHL1   C22 2128   6.001   6.368   7.703 -0.4973  0.5764  0.3624
   29CHL1  H22A 2129   5.932   6.283   7.722 -2.3511  2.1963  1.2144
   29CHL1  H22B 2130   6.106   6.330   7.709 -0.9563 -0.8666 -0.1972
   29CHL1   C23 2131   5.993   6.471   7.814  0.3182  0.4058 -0.2026
   29CHL1  H23A 2132   6.080   6.539   7.821  1.4779 -1.1253  1.0212
   29CHL1  H23B 2133   5.899   6.529   7.803 -1.4756 -1.6675  2.6218
   29CHL1   C24 2134   5.978   6.415   7.953 -0.4827  0.8390 -0.3325
   29CHL1  H24A 2135   6.058   6.338   7.963  0.5998  1.6778 -2.1032
   29CHL1  H24B 2136   5.999   6.486   8.036 -2.4023  0.2629  0.7096
   29CHL1   C25 2137   5.829   6.361   7.978 -0.3371 -0.0000  0.0647
   29CHL1   H25 2138   5.802   6.280   7.907 -0.8096  0.3788 -0.1959
   29CHL1   C26 2139   5.842   6.278   8.109 -0.1943 -0.0879  0.2542
   29CHL1  H26A 2140   5.757   6.207   8.116  1.3213 -2.4981 -3.2575
   29CHL1  H26B 2141   5.940   6.228   8.095 -0.1598  0.0328  0.0624
   29CHL1  H26C 2142   5.853   6.341   8.200  1.8113  1.3149 -0.8778
   29CHL1   C27 2143   5.730   6.472   7.999  0.4558 -0.4931 -0.2375
   29CHL1  H27A 2144   5.719   6.533   7.907 -0.8319 -1.5655 -0.8271
   29CHL1  H27B 2145   5.633   6.428   8.032  0.1637 -1.3865 -2.1129
   29CHL1  H27C 2146   5.767   6.540   8.079 -0.7905  2.1410 -1.7792
   30CHL1    C3 2147   2.292   3.771   7.374 -0.4340 -0.5111  0.3485
   30CHL1    H3 2148   2.244   3.871   7.376  2.0677  0.7748  2.1972
   30CHL1    O3 2149   2.330   3.743   7.242  0.6861 -0.1955 -0.0363
   30CHL1   H3' 2150   2.254   3.720   7.187  1.0775  0.3595 -0.8257
   30CHL1    C4 2151   2.412   3.758   7.469  0.1465 -0.1343 -0.1362
   30CHL1   H4A 2152   2.469   3.669   7.435 -3.4585 -2.2857 -1.1681
   30CHL1   H4B 2153   2.477   3.845   7.445  0.7627 -0.7496 -0.7385
   30CHL1    C5 2154   2.381   3.738   7.617 -0.3322 -0.0347 -0.2862
   30CHL1    C6 2155   2.441   3.822   7.703  0.3237  0.1964 -0.4615
   30CHL1    H6 2156   2.524   3.886   7.670 -0.0833  0.3925 -1.1443
   30CHL1    C7 2157   2.408   3.829   7.854 -0.5443 -0.6772  0.3223
   30CHL1   H7A 2158   2.499   3.815   7.916 -0.2161 -3.1248 -0.6100
   30CHL1   H7B 2159   2.351   3.924   7.863  1.1625  0.4891 -0.6227
   30CHL1    C8 2160   2.323   3.705   7.895  0.0320  0.0778 -0.3444
   30CHL1    H8 2161   2.403   3.628   7.882 -1.2370 -1.1215 -1.3480
   30CHL1   C14 2162   2.275   3.719   8.039  0.8613  0.0845 -0.9084
   30CHL1   H14 2163   2.209   3.808   8.045  1.7589  0.7104  0.0303
   30CHL1   C15 2164   2.379   3.730   8.147  0.3790 -0.4219  0.4906
   30CHL1  H15A 2165   2.452   3.647   8.139  1.0638  0.2849 -0.7215
   30CHL1  H15B 2166   2.419   3.833   8.138  3.9034 -1.8610 -2.5281
   30CHL1   C16 2167   2.296   3.707   8.278 -0.2470 -1.2681 -0.3929
   30CHL1  H16A 2168   2.353   3.648   8.352 -1.5565 -2.7645 -0.5464
   30CHL1  H16B 2169   2.279   3.805   8.328 -1.2607 -1.5820 -0.1146
   30CHL1   C17 2170   2.157   3.649   8.229  0.1334 -0.1585  0.3405
   30CHL1   H17 2171   2.086   3.734   8.229  1.2037  0.7615  1.2555
   30CHL1   C13 2172   2.178   3.608   8.081 -0.4341  0.2848 -0.5811
   30CHL1   C18 2173   2.239   3.458   8.092  0.3397 -0.6864 -0.0280
   30CHL1  H18A 2174   2.305   3.438   8.180 -0.1183 -2.9927 -0.1512
   30CHL1  H18B 2175   2.159   3.387   8.119 -0.7412  1.8071  4.5364
   30CHL1  H18C 2176   2.293   3.433   7.998  2.1654  0.5981  0.5985
   30CHL1   C12 2177   2.056   3.608   7.987  0.0983  0.4322  0.6940
   30CHL1  H12A 2178   1.994   3.518   8.008  0.4595  0.7449  3.4682
   30CHL1  H12B 2179   1.986   3.694   7.993 -0.8756 -0.2351 -0.6333
   30CHL1   C11 2180   2.106   3.579   7.840  0.0321  0.2363 -0.6976
   30CHL1  H11A 2181   2.140   3.473   7.833  0.8008  0.5410 -1.9165
   30CHL1  H11B 2182   2.013   3.581   7.779 -0.2574 -1.3582 -0.3484
   30CHL1    C9 2183   2.214   3.677   7.793  0.5534 -0.2667 -0.0813
   30CHL1    H9 2184   2.156   3.772   7.790  0.7623 -0.1644 -0.9654
   30CHL1   C10 2185   2.262   3.644   7.651 -0.5308  0.2412 -0.5001
   30CHL1   C19 2186   2.315   3.496   7.637  0.4804 -0.2019  0.5435
   30CHL1  H19A 2187   2.366   3.480   7.540 -1.2725 -0.2508 -0.4061
   30CHL1  H19B 2188   2.373   3.464   7.726  1.3405 -2.2163 -0.6800
   30CHL1  H19C 2189   2.222   3.434   7.632 -0.6712  1.4885  0.1090
   30CHL1    C1 2190   2.143   3.680   7.556 -0.1593  0.2993  0.9774
   30CHL1   H1A 2191   2.062   3.605   7.566  1.9960 -2.4774 -0.6365
   30CHL1   H1B 2192   2.104   3.781   7.581 -1.8616 -0.4785  1.6193
   30CHL1    C2 2193   2.185   3.669   7.409  0.2262  0.3392  0.6299
   30CHL1   H2A 2194   2.096   3.683   7.344 -0.4149  0.4281  1.4980
   30CHL1   H2B 2195   2.218   3.565   7.388 -0.8155 -0.1243  1.2027
   30CHL1   C20 2196   2.091   3.561   8.330  0.4167 -0.2957  0.4008
   30CHL1   H20 2197   2.123   3.455   8.328 -1.0435 -0.7588 -0.0866
   30CHL1   C21 2198   1.945   3.550   8.293  0.9066  0.9650 -0.2375
   30CHL1  H21A 2199   1.925   3.502   8.195  2.2591  0.0306 -0.0875
   30CHL1  H21B 2200   1.899   3.651   8.285 -1.1834  0.0385 -0.4847
   30CHL1  H21C 2201   1.895   3.489   8.371  0.5701  0.6991 -0.6579
   30CHL1   C22 2202   2.108   3.604   8.479 -0.8135 -0.7640 -0.3203
   30CHL1  H22A 2203   2.060   3.519   8.532 -1.9896  0.9484  1.5318
   30CHL1  H22B 2204   2.216   3.609   8.502 -0.1105 -0.8457 -3.2142
   30CHL1   C23 2205   2.038   3.736   8.522  0.0081  0.1902 -0.2193
   30CHL1  H23A 2206   2.086   3.816   8.463  2.9854 -0.3047  1.3737
   30CHL1  H23B 2207   1.928   3.731   8.502 -0.2585 -1.0071  1.3228
   30CHL1   C24 2208   2.049   3.760   8.674 -0.3197 -0.4788 -0.7637
   30CHL1  H24A 2209   2.007   3.675   8.733 -3.2462  2.2307  1.3939
   30CHL1  H24B 2210   2.157   3.755   8.701 -0.4352 -0.4721 -0.2758
   30CHL1   C25 2211   1.993   3.895   8.730 -0.1755  0.2280 -0.3777
   30CHL1   H25 2212   2.031   3.972   8.661  0.3994  0.6164  0.3590
   30CHL1   C26 2213   1.838   3.903   8.737  0.3347 -0.0258 -0.4213
   30CHL1  H26A 2214   1.794   3.987   8.795  1.7140  0.1597  0.4063
   30CHL1  H26B 2215   1.799   3.924   8.635 -2.4467 -2.3831  0.0437
   30CHL1  H26C 2216   1.796   3.808   8.774  0.2576  0.4412  0.7291
   30CHL1   C27 2217   2.049   3.934   8.874  0.3181 -0.0675  1.0013
   30CHL1  H27A 2218   2.029   4.043   8.883  3.0983  0.5197  1.1771
   30CHL1  H27B 2219   1.991   3.896   8.961 -1.4715  1.8245  0.6965
   30CHL1  H27C 2220   2.156   3.910   8.892  0.3906  1.1209  2.3022
   31CHL1    C3 2221   2.835   5.297   6.874 -1.0142 -0.9793 -0.1664
   31CHL1    H3 2222   2.940   5.273   6.900 -1.4951 -2.4449  0.6122
   31CHL1    O3 2223   2.835   5.309   6.734  0.0785 -0.2767  0.1777
   31CHL1   H3' 2224   2.744   5.320   6.705  1.5580  2.1957 -4.4436
   31CHL1    C4 2225   2.730   5.196   6.928 -0.6507 -0.0095  0.6200
   31CHL1   H4A 2226   2.625   5.216   6.898  0.3472  1.2365 -2.4084
   31CHL1   H4B 2227   2.752   5.104   6.869 -0.3628  0.9423 -0.7951
   31CHL1    C5 2228   2.746   5.190   7.084 -0.4664 -0.1367  1.0296
   31CHL1    C6 2229   2.794   5.087   7.157 -0.3104 -0.2310  0.1379
   31CHL1    H6 2230   2.844   5.004   7.105 -0.2592  1.4482 -2.7056
   31CHL1    C7 2231   2.803   5.068   7.302 -0.6156 -0.3639 -0.3570
   31CHL1   H7A 2232   2.751   4.975   7.336 -0.0746 -0.0296  1.5197
   31CHL1   H7B 2233   2.900   5.073   7.355 -1.2714 -0.5597  0.9134
   31CHL1    C8 2234   2.727   5.187   7.376  0.4793  0.3615 -0.9676
   31CHL1    H8 2235   2.619   5.166   7.357  0.1242  3.3167 -2.7149
   31CHL1   C14 2236   2.775   5.192   7.520  0.3586  0.3705 -0.2072
   31CHL1   H14 2237   2.884   5.212   7.516  0.1286  3.3329  3.4583
   31CHL1   C15 2238   2.758   5.063   7.599 -0.1341 -0.1572 -0.5303
   31CHL1  H15A 2239   2.663   5.010   7.575 -0.6414 -0.0959  1.1467
   31CHL1  H15B 2240   2.836   4.989   7.574  0.6897  0.5941 -0.2319
   31CHL1   C16 2241   2.760   5.111   7.747  0.8549  0.4094 -0.0195
   31CHL1  H16A 2242   2.662   5.075   7.785  1.1810  0.6506  1.1014
   31CHL1  H16B 2243   2.843   5.066   7.806 -0.4236 -1.3957  0.4546
   31CHL1   C17 2244   2.776   5.268   7.737 -0.3215 -0.0386  0.0513
   31CHL1   H17 2245   2.883   5.297   7.734 -0.4473  0.4661  0.3103
   31CHL1   C13 2246   2.714   5.304   7.605  0.0433 -0.4478  0.1747
   31CHL1   C18 2247   2.562   5.293   7.606  0.4237  0.6195  0.2929
   31CHL1  H18A 2248   2.540   5.202   7.665  2.2848 -0.6167 -0.8121
   31CHL1  H18B 2249   2.514   5.374   7.665  0.6370  0.8181  0.1983
   31CHL1  H18C 2250   2.521   5.293   7.503  3.0075  1.7151 -0.8265
   31CHL1   C12 2251   2.761   5.431   7.535  0.0711 -0.3334 -0.5385
   31CHL1  H12A 2252   2.721   5.519   7.590 -0.3445 -2.8107  3.5676
   31CHL1  H12B 2253   2.872   5.435   7.532  0.1115 -1.3852 -0.9979
   31CHL1   C11 2254   2.708   5.445   7.390  0.6972  0.3828 -0.1093
   31CHL1  H11A 2255   2.599   5.466   7.393  0.9259  1.7484 -0.5695
   31CHL1  H11B 2256   2.751   5.537   7.343 -1.0052  1.2970  0.0638
   31CHL1    C9 2257   2.757   5.320   7.311 -0.1902  0.3624  0.4284
   31CHL1    H9 2258   2.867   5.332   7.318 -0.3578  1.1985  2.0808
   31CHL1   C10 2259   2.710   5.318   7.163 -0.5610 -0.2033 -0.3911
   31CHL1   C19 2260   2.560   5.344   7.149  0.1901  0.5983  0.0792
   31CHL1  H19A 2261   2.536   5.446   7.187  2.5779  1.0949  0.4218
   31CHL1  H19B 2262   2.525   5.346   7.044  0.1237 -1.5790  0.0177
   31CHL1  H19C 2263   2.516   5.259   7.206  0.9978  1.3999  2.0157
   31CHL1    C1 2264   2.775   5.441   7.084  0.3268 -0.8759 -0.5131
   31CHL1   H1A 2265   2.724   5.538   7.105  0.6617 -0.8390  0.1625
   31CHL1   H1B 2266   2.879   5.447   7.121  0.1505 -1.8786  0.1762
   31CHL1    C2 2267   2.793   5.438   6.927 -0.0485 -0.2911 -0.6793
   31CHL1   H2A 2268   2.857   5.521   6.890 -2.1362  0.3275 -3.2544
   31CHL1   H2B 2269   2.688   5.461   6.898 -1.1681 -2.4904  1.2808
   31CHL1   C20 2270   2.734   5.334   7.863 -0.1424 -0.2459 -0.2167
   31CHL1   H20 2271   2.623   5.331   7.864 -0.2711 -2.5227 -3.5382
   31CHL1   C21 2272   2.772   5.484   7.874  0.2971  0.2372  0.2762
   31CHL1  H21A 2273   2.725   5.534   7.787  3.8047 -0.9419 -2.5296
   31CHL1  H21B 2274   2.882   5.494   7.873  0.4074 -0.6804  1.5081
   31CHL1  H21C 2275   2.744   5.533   7.969 -1.2165  2.1089 -1.0607
   31CHL1   C22 2276   2.776   5.260   7.994 -0.1886  0.3123  0.5115
   31CHL1  H22A 2277   2.767   5.150   7.987  0.0273  0.4043 -2.2703
   31CHL1  H22B 2278   2.886   5.269   8.007 -0.3257  0.0320  2.0165
   31CHL1   C23 2279   2.715   5.298   8.127  0.4970 -0.3986  0.1286
   31CHL1  H23A 2280   2.680   5.403   8.131  2.5470  0.3647 -0.5036
   31CHL1  H23B 2281   2.624   5.236   8.138  0.7763 -0.6493  1.1683
   31CHL1   C24 2282   2.816   5.275   8.245 -0.2345 -0.0712 -0.6877
   31CHL1  H24A 2283   2.844   5.168   8.233  0.3462 -0.2121  1.4700
   31CHL1  H24B 2284   2.906   5.331   8.214 -0.4363 -0.0834 -1.2989
   31CHL1   C25 2285   2.749   5.279   8.383  0.3371 -0.9196  0.5351
   31CHL1   H25 2286   2.654   5.222   8.391 -0.4891  0.1952 -0.9656
   31CHL1   C26 2287   2.829   5.244   8.508  0.1027 -0.4455  0.2407
   31CHL1  H26A 2288   2.764   5.255   8.598  1.7334  1.4081  1.2741
   31CHL1  H26B 2289   2.879   5.145   8.503 -2.6030 -1.8786 -1.1689
   31CHL1  H26C 2290   2.913   5.316   8.508  0.1833 -0.5388  0.1083
   31CHL1   C27 2291   2.700   5.428   8.403 -0.2135 -0.0878  0.8167
   31CHL1  H27A 2292   2.648   5.435   8.501 -1.7552  0.0687  0.0059
   31CHL1  H27B 2293   2.627   5.458   8.325  0.2589 -1.1076 -0.0522
   31CHL1  H27C 2294   2.788   5.494   8.385 -1.7720  2.9316  3.2048
   32CHL1    C3 2295   2.263   4.254   6.956  0.1104 -0.6329  0.1121
   32CHL1    H3 2296   2.158   4.247   6.991 -0.6641  2.6785 -1.1723
   32CHL1    O3 2297   2.272   4.254   6.811  0.5289  0.4459 -0.5942
   32CHL1   H3' 2298   2.327   4.330   6.791  1.5147  0.3231  1.3717
   32CHL1    C4 2299   2.329   4.386   7.001 -0.2374  0.0061  0.6509
   32CHL1   H4A 2300   2.426   4.404   6.949  0.3353 -1.9911  0.9468
   32CHL1   H4B 2301   2.260   4.466   6.967 -0.3510 -1.6348 -3.5518
   32CHL1    C5 2302   2.355   4.396   7.151 -0.0205 -0.2226  0.6164
   32CHL1    C6 2303   2.308   4.509   7.209  0.2841 -0.3816 -0.1069
   32CHL1    H6 2304   2.261   4.595   7.157 -1.4288 -0.3066  1.4682
   32CHL1    C7 2305   2.323   4.529   7.360  0.2685  0.0649  0.7282
   32CHL1   H7A 2306   2.351   4.634   7.385 -1.8813  1.4457 -2.0646
   32CHL1   H7B 2307   2.226   4.499   7.407  0.8529 -2.1383  0.6165
   32CHL1    C8 2308   2.417   4.434   7.429  0.2508  0.1531  0.0307
   32CHL1    H8 2309   2.523   4.462   7.411  1.0017 -2.1394  0.5753
   32CHL1   C14 2310   2.401   4.436   7.581  0.6809 -0.0258 -0.2032
   32CHL1   H14 2311   2.297   4.403   7.600 -0.3992  4.1048  2.5509
   32CHL1   C15 2312   2.416   4.575   7.656  0.2090  0.6160 -0.6213
   32CHL1  H15A 2313   2.501   4.628   7.609  1.0886  0.3905  0.6600
   32CHL1  H15B 2314   2.316   4.621   7.639 -1.5410 -2.9745 -1.1844
   32CHL1   C16 2315   2.443   4.544   7.808  0.5524  0.7818  0.4831
   32CHL1  H16A 2316   2.549   4.573   7.824  0.4608  2.8418 -2.0259
   32CHL1  H16B 2317   2.374   4.603   7.872 -1.4263  0.7398 -1.5009
   32CHL1   C17 2318   2.436   4.391   7.814  0.3079  0.1903 -0.9883
   32CHL1   H17 2319   2.331   4.354   7.810  0.9858 -2.1308  0.4763
   32CHL1   C13 2320   2.480   4.336   7.672  0.1287 -0.0510 -0.0386
   32CHL1   C18 2321   2.637   4.359   7.654 -0.0771  0.4135  0.0076
   32CHL1  H18A 2322   2.688   4.273   7.702  0.8336  0.9887  0.0967
   32CHL1  H18B 2323   2.667   4.357   7.547  0.0997  0.8581  0.0480
   32CHL1  H18C 2324   2.675   4.452   7.702 -0.9184  0.8398 -0.1349
   32CHL1   C12 2325   2.436   4.198   7.631 -0.3449  0.0298  0.1562
   32CHL1  H12A 2326   2.495   4.122   7.688 -1.8652 -2.1360 -1.0497
   32CHL1  H12B 2327   2.328   4.179   7.647 -0.3832  0.1242  0.0121
   32CHL1   C11 2328   2.454   4.183   7.474  0.2112  0.2859  0.6332
   32CHL1  H11A 2329   2.564   4.177   7.456  0.2340 -0.7208  1.0596
   32CHL1  H11B 2330   2.411   4.085   7.443  1.1188  1.0494 -3.7552
   32CHL1    C9 2331   2.389   4.289   7.380  0.0867  0.2076  0.0710
   32CHL1    H9 2332   2.280   4.269   7.393  0.2925  0.0547  1.7609
   32CHL1   C10 2333   2.417   4.275   7.227 -0.0273 -0.1189  0.2060
   32CHL1   C19 2334   2.572   4.279   7.200 -0.3873  0.3011 -0.2504
   32CHL1  H19A 2335   2.621   4.190   7.245  0.0731 -0.0956 -1.5020
   32CHL1  H19B 2336   2.606   4.287   7.095  3.9101 -0.2931  0.8933
   32CHL1  H19C 2337   2.613   4.368   7.254 -0.7049  0.4218 -0.2056
   32CHL1    C1 2338   2.356   4.134   7.174  0.2914  0.4222 -0.2414
   32CHL1   H1A 2339   2.424   4.057   7.215 -1.1346  0.4138  2.3193
   32CHL1   H1B 2340   2.266   4.113   7.235  0.0933  2.2486  0.1615
   32CHL1    C2 2341   2.330   4.129   7.023 -0.0185  0.1625  0.8853
   32CHL1   H2A 2342   2.267   4.043   6.991  0.3610 -0.7314  2.4608
   32CHL1   H2B 2343   2.425   4.118   6.966 -0.2822  2.0803  0.0123
   32CHL1   C20 2344   2.494   4.320   7.938  0.2539 -0.0485  0.3129
   32CHL1   H20 2345   2.601   4.299   7.920 -0.4716 -2.0784 -2.1514
   32CHL1   C21 2346   2.423   4.187   7.970 -0.0399  0.2483  0.7190
   32CHL1  H21A 2347   2.494   4.119   8.022  3.1372 -2.3491 -5.8383
   32CHL1  H21B 2348   2.394   4.122   7.885 -1.1259 -1.5456  2.3821
   32CHL1  H21C 2349   2.333   4.204   8.032 -0.7287 -1.5573  0.2748
   32CHL1   C22 2350   2.489   4.423   8.064  0.2748 -0.2167  0.6506
   32CHL1  H22A 2351   2.560   4.506   8.047 -3.4034  3.2114  0.5725
   32CHL1  H22B 2352   2.388   4.468   8.062  0.0367 -0.7516  0.4426
   32CHL1   C23 2353   2.501   4.360   8.199 -0.0797  0.4508 -0.3178
   32CHL1  H23A 2354   2.414   4.293   8.212  0.2604 -0.0197 -0.4505
   32CHL1  H23B 2355   2.599   4.307   8.198  1.7221  3.4906 -0.3677
   32CHL1   C24 2356   2.503   4.460   8.322 -0.1685  0.4982  0.4295
   32CHL1  H24A 2357   2.589   4.530   8.310  0.0601  0.1400 -0.0465
   32CHL1  H24B 2358   2.404   4.509   8.334 -1.3485 -1.1736 -1.8285
   32CHL1   C25 2359   2.523   4.388   8.461  0.6076  0.3201  0.5914
   32CHL1   H25 2360   2.429   4.338   8.491  0.9824 -0.3520  0.6517
   32CHL1   C26 2361   2.640   4.297   8.464  0.3932 -0.1437  0.0011
   32CHL1  H26A 2362   2.736   4.337   8.424 -0.8648  0.0962 -3.0810
   32CHL1  H26B 2363   2.652   4.260   8.568  3.7912 -0.3112 -0.3117
   32CHL1  H26C 2364   2.615   4.213   8.395 -1.2627  0.9641 -0.7892
   32CHL1   C27 2365   2.536   4.498   8.568 -0.6891  0.2858 -0.3258
   32CHL1  H27A 2366   2.628   4.555   8.544 -0.5666  0.5533  0.7410
   32CHL1  H27B 2367   2.446   4.561   8.587 -1.1288 -0.6117  0.7076
   32CHL1  H27C 2368   2.552   4.449   8.666 -0.6567  1.5096  0.3119
   33CHL1    C3 2369   4.237   3.384   6.858 -0.1164 -0.3266  0.0149
   33CHL1    H3 2370   4.341   3.419   6.878  2.2918 -4.5558 -3.3248
   33CHL1    O3 2371   4.222   3.381   6.718 -0.6196 -0.5227 -0.4560
   33CHL1   H3' 2372   4.291   3.319   6.693  1.6357  2.3400 -1.8876
   33CHL1    C4 2373   4.212   3.251   6.926  0.3489 -0.1920 -0.0013
   33CHL1   H4A 2374   4.106   3.235   6.897  0.6915  0.1764 -1.5624
   33CHL1   H4B 2375   4.267   3.175   6.866 -1.0440  0.3602 -2.0883
   33CHL1    C5 2376   4.230   3.264   7.078  0.0475  0.3088  0.4319
   33CHL1    C6 2377   4.313   3.172   7.141  0.1386 -0.8983 -0.0323
   33CHL1    H6 2378   4.357   3.090   7.083 -0.8061 -2.0691  0.8607
   33CHL1    C7 2379   4.331   3.170   7.289  0.7667  0.8712 -1.0419
   33CHL1   H7A 2380   4.325   3.065   7.326 -1.5678  0.7157 -1.7009
   33CHL1   H7B 2381   4.435   3.197   7.315  0.6524  0.3672  0.0015
   33CHL1    C8 2382   4.230   3.264   7.365  0.7072 -0.3465  0.7005
   33CHL1    H8 2383   4.136   3.205   7.360  0.7602 -0.4530  0.9763
   33CHL1   C14 2384   4.268   3.285   7.509 -0.0999 -0.0443 -0.0058
   33CHL1   H14 2385   4.364   3.342   7.513  1.4845 -2.5578 -0.0255
   33CHL1   C15 2386   4.296   3.154   7.589 -0.2344 -0.1268  0.3519
   33CHL1  H15A 2387   4.223   3.071   7.590 -0.2620 -0.1024  1.3238
   33CHL1  H15B 2388   4.396   3.116   7.561  0.2511  0.9964  0.4885
   33CHL1   C16 2389   4.306   3.200   7.732 -0.6185  0.0475 -0.3333
   33CHL1  H16A 2390   4.258   3.128   7.802 -0.8081  0.7021  0.2189
   33CHL1  H16B 2391   4.410   3.184   7.767 -0.2214 -0.8517 -1.8025
   33CHL1   C17 2392   4.246   3.341   7.732 -0.5080 -0.4427  0.0792
   33CHL1   H17 2393   4.326   3.416   7.747 -0.6889 -0.2553  0.1053
   33CHL1   C13 2394   4.179   3.367   7.602 -0.4291 -0.0613  0.0937
   33CHL1   C18 2395   4.042   3.307   7.608 -0.0945  0.2412 -0.1378
   33CHL1  H18A 2396   3.978   3.360   7.681 -2.8032 -4.0529  0.9896
   33CHL1  H18B 2397   3.982   3.303   7.515  1.7809 -0.4217 -1.3739
   33CHL1  H18C 2398   4.044   3.202   7.647  0.6206  0.6226  0.9097
   33CHL1   C12 2399   4.174   3.515   7.533 -0.6181  0.0178  0.5779
   33CHL1  H12A 2400   4.099   3.584   7.579 -2.3623  0.5175 -2.7338
   33CHL1  H12B 2401   4.274   3.561   7.541 -0.5899  0.4317 -1.7048
   33CHL1   C11 2402   4.128   3.504   7.384  0.0987  0.5073 -0.6890
   33CHL1  H11A 2403   4.018   3.491   7.385  0.1079  0.0247 -2.6171
   33CHL1  H11B 2404   4.133   3.603   7.333  0.5292  0.3713 -0.9158
   33CHL1    C9 2405   4.201   3.399   7.296 -0.4820 -1.0247 -0.3609
   33CHL1    H9 2406   4.296   3.453   7.281 -0.9412  0.0539  0.4732
   33CHL1   C10 2407   4.149   3.378   7.147 -0.2584 -0.7400 -0.1564
   33CHL1   C19 2408   4.006   3.325   7.153 -0.8873 -0.4568  0.1428
   33CHL1  H19A 2409   4.005   3.233   7.215  4.3787 -0.6819  0.3797
   33CHL1  H19B 2410   3.939   3.402   7.197 -1.1934 -2.1300  2.8029
   33CHL1  H19C 2411   3.958   3.304   7.055  0.1683  2.7304 -1.2043
   33CHL1    C1 2412   4.159   3.506   7.064  0.1416  0.1161 -0.5553
   33CHL1   H1A 2413   4.081   3.578   7.096  0.4264 -0.0564  0.5555
   33CHL1   H1B 2414   4.255   3.556   7.090 -0.9674  0.5157  3.3113
   33CHL1    C2 2415   4.142   3.489   6.914 -0.2850 -0.3651 -0.0890
   33CHL1   H2A 2416   4.160   3.588   6.868  1.5477  0.0806  1.4484
   33CHL1   H2B 2417   4.036   3.456   6.909 -0.8356  1.2874 -0.1739
   33CHL1   C20 2418   4.163   3.363   7.857  0.5292  0.2508  0.1098
   33CHL1   H20 2419   4.080   3.289   7.865 -1.3116  2.1745 -0.2493
   33CHL1   C21 2420   4.114   3.506   7.862 -0.3805  0.9645  0.5573
   33CHL1  H21A 2421   4.047   3.532   7.778  0.9076  0.1391 -0.7665
   33CHL1  H21B 2422   4.201   3.575   7.856 -0.4263  0.9450 -0.5725
   33CHL1  H21C 2423   4.050   3.531   7.949 -0.7573  1.0712  0.2459
   33CHL1   C22 2424   4.259   3.345   7.977 -0.0427  0.2606 -0.5989
   33CHL1  H22A 2425   4.293   3.241   7.996  1.0879  1.0994  2.7538
   33CHL1  H22B 2426   4.338   3.421   7.959  0.8591 -0.9613 -2.1226
   33CHL1   C23 2427   4.190   3.390   8.120  0.6890  0.5333  0.7235
   33CHL1  H23A 2428   4.220   3.493   8.146  1.5527  0.9547 -1.7186
   33CHL1  H23B 2429   4.080   3.394   8.103  0.5732  2.3403  1.7497
   33CHL1   C24 2430   4.222   3.288   8.228 -0.5577 -0.6612 -1.2415
   33CHL1  H24A 2431   4.234   3.182   8.196  2.7960 -0.7774  0.0187
   33CHL1  H24B 2432   4.331   3.312   8.232 -0.9458  1.2644 -0.9815
   33CHL1   C25 2433   4.136   3.293   8.354  1.2919  0.5746  0.6997
   33CHL1   H25 2434   4.144   3.399   8.386  0.8318  0.6609  0.5418
   33CHL1   C26 2435   3.991   3.255   8.331  0.2307  0.2506 -0.6851
   33CHL1  H26A 2436   3.990   3.154   8.284 -0.1687 -0.0421 -0.0622
   33CHL1  H26B 2437   3.932   3.255   8.425 -0.5946  0.3276 -1.1923
   33CHL1  H26C 2438   3.928   3.321   8.268 -1.9623 -1.8628 -0.8818
   33CHL1   C27 2439   4.183   3.192   8.460 -0.0908 -0.4054  0.6457
   33CHL1  H27A 2440   4.111   3.187   8.544 -0.3207  0.9530  0.5512
   33CHL1  H27B 2441   4.199   3.092   8.414  1.8493 -0.7927  2.0302
   33CHL1  H27C 2442   4.282   3.215   8.505  1.0058 -1.3068 -1.1515
   34CHL1    C3 2443   5.399   2.082   7.287  0.0894 -0.7203 -0.1709
   34CHL1    H3 2444   5.491   2.085   7.348  0.8461 -0.6075 -1.2793
   34CHL1    O3 2445   5.445   2.093   7.156 -0.3120 -0.2596  0.3174
   34CHL1   H3' 2446   5.364   2.078   7.107 -0.4553  1.2642  0.0589
   34CHL1    C4 2447   5.339   1.939   7.295  0.0875 -0.6542 -0.5292
   34CHL1   H4A 2448   5.253   1.926   7.226 -1.4380  1.7853  0.7370
   34CHL1   H4B 2449   5.418   1.865   7.270 -1.2489 -2.3176 -0.0210
   34CHL1    C5 2450   5.292   1.932   7.442  0.3842  0.3443  0.2162
   34CHL1    C6 2451   5.341   1.841   7.522 -0.2518 -0.2699 -0.3526
   34CHL1    H6 2452   5.413   1.764   7.490 -0.9447 -0.5583 -1.2509
   34CHL1    C7 2453   5.314   1.827   7.669 -1.0290  1.1538  0.8162
   34CHL1   H7A 2454   5.309   1.719   7.692  1.3851  0.4151 -1.5903
   34CHL1   H7B 2455   5.404   1.851   7.730  1.7735 -2.9435 -1.2290
   34CHL1    C8 2456   5.185   1.906   7.707  0.6427  0.6559  0.0537
   34CHL1    H8 2457   5.101   1.856   7.654  0.8592  0.4688 -0.1162
   34CHL1   C14 2458   5.171   1.909   7.856 -0.2640 -0.0694  0.0918
   34CHL1   H14 2459   5.258   1.970   7.890  0.9941 -2.0128  0.5209
   34CHL1   C15 2460   5.192   1.783   7.936  0.2538 -0.1105 -0.2154
   34CHL1  H15A 2461   5.141   1.703   7.878  0.8872 -0.0395 -0.8915
   34CHL1  H15B 2462   5.292   1.742   7.960 -1.1898 -3.1224  1.2834
   34CHL1   C16 2463   5.129   1.824   8.066 -0.7193 -0.0691 -0.3489
   34CHL1  H16A 2464   5.052   1.743   8.074 -0.3872 -0.3152  0.4407
   34CHL1  H16B 2465   5.194   1.804   8.153 -0.3346 -4.6435 -1.4168
   34CHL1   C17 2466   5.076   1.967   8.059 -0.1692 -0.3620 -0.1126
   34CHL1   H17 2467   5.160   2.035   8.085  2.3473 -3.4991  0.6085
   34CHL1   C13 2468   5.050   1.986   7.905 -0.2868 -0.1954  0.0981
   34CHL1   C18 2469   4.922   1.915   7.856 -0.7397  0.3543 -0.3966
   34CHL1  H18A 2470   4.832   1.979   7.864 -0.6655  0.3295  0.8136
   34CHL1  H18B 2471   4.932   1.907   7.746 -1.9913 -0.2596 -0.4781
   34CHL1  H18C 2472   4.901   1.815   7.901  0.0017  0.3656 -0.0106
   34CHL1   C12 2473   5.058   2.125   7.855  0.0286  0.3531 -0.0942
   34CHL1  H12A 2474   4.969   2.181   7.891 -0.4247 -0.5674  0.2503
   34CHL1  H12B 2475   5.144   2.173   7.908 -0.7955  1.1937  0.5360
   34CHL1   C11 2476   5.070   2.131   7.699 -0.2369 -0.4904 -0.6297
   34CHL1  H11A 2477   4.967   2.107   7.667 -0.4524  0.6926 -0.8779
   34CHL1  H11B 2478   5.103   2.236   7.683  2.7270 -0.7261  2.5520
   34CHL1    C9 2479   5.186   2.045   7.648 -0.1310  0.1968  0.7058
   34CHL1    H9 2480   5.275   2.099   7.688 -1.5119  2.4139  0.9491
   34CHL1   C10 2481   5.203   2.047   7.494  0.1324 -0.9348  0.5408
   34CHL1   C19 2482   5.062   2.023   7.430  0.0252  0.3498  0.1535
   34CHL1  H19A 2483   5.077   2.016   7.320  1.4941 -0.1072  0.3543
   34CHL1  H19B 2484   5.023   1.923   7.457  1.0651 -0.5036 -1.3504
   34CHL1  H19C 2485   4.997   2.109   7.456  1.2920  2.0176 -1.8226
   34CHL1    C1 2486   5.252   2.187   7.455 -0.1544 -0.0489 -0.1706
   34CHL1   H1A 2487   5.172   2.261   7.477 -2.2185 -1.9075 -0.9289
   34CHL1   H1B 2488   5.342   2.199   7.518  0.9250 -2.5174 -1.0989
   34CHL1    C2 2489   5.305   2.197   7.313  0.9162 -0.2845  0.3339
   34CHL1   H2A 2490   5.355   2.296   7.303 -0.6531  0.5958  0.8538
   34CHL1   H2B 2491   5.222   2.185   7.241  2.2242 -0.8955 -1.1269
   34CHL1   C20 2492   4.963   1.997   8.154 -0.6221 -0.0375 -0.7732
   34CHL1   H20 2493   4.878   1.926   8.139  1.0876 -2.3759 -0.0392
   34CHL1   C21 2494   4.914   2.146   8.140  0.3014  0.4032  0.3867
   34CHL1  H21A 2495   4.994   2.221   8.123 -0.6774  1.4983  0.5622
   34CHL1  H21B 2496   4.848   2.173   8.226 -2.5898  1.8211 -2.1201
   34CHL1  H21C 2497   4.841   2.143   8.057  1.1128  2.4828 -0.4573
   34CHL1   C22 2498   5.024   1.984   8.296  0.3054 -0.1847  0.3884
   34CHL1  H22A 2499   5.067   1.883   8.309  1.2030  0.2335  0.7787
   34CHL1  H22B 2500   5.105   2.059   8.313  1.7608 -0.9162 -2.6578
   34CHL1   C23 2501   4.917   1.987   8.410 -0.1053  0.0633 -0.4596
   34CHL1  H23A 2502   4.857   2.081   8.420 -3.1185 -1.7146 -0.4871
   34CHL1  H23B 2503   4.843   1.913   8.372 -0.0094  0.1771 -0.8770
   34CHL1   C24 2504   4.975   1.943   8.549  0.3061  0.2167  0.3499
   34CHL1  H24A 2505   4.893   1.956   8.622  2.3111  1.4681  2.5084
   34CHL1  H24B 2506   5.006   1.838   8.527 -0.1636  0.1600 -0.0479
   34CHL1   C25 2507   5.103   2.014   8.608  0.4607  0.0509  0.0300
   34CHL1   H25 2508   5.191   1.995   8.543  0.1056 -2.8226  0.2487
   34CHL1   C26 2509   5.076   2.165   8.622  0.0205 -0.6489 -0.5198
   34CHL1  H26A 2510   5.145   2.200   8.701 -0.2378 -1.3531  0.0330
   34CHL1  H26B 2511   5.108   2.214   8.527  0.7300 -0.6934 -0.3152
   34CHL1  H26C 2512   4.967   2.174   8.636 -0.0783  0.8033 -1.9457
   34CHL1   C27 2513   5.144   1.952   8.748  0.1062 -0.2876  0.4035
   34CHL1  H27A 2514   5.080   1.991   8.830  2.6836  1.4993  1.6999
   34CHL1  H27B 2515   5.130   1.842   8.740 -2.6078  0.0790 -1.9099
   34CHL1  H27C 2516   5.248   1.979   8.775 -0.0265 -1.7490  2.6153
   35CHL1    C3 2517   1.837   1.986   7.180  0.2322 -0.1026  0.4910
   35CHL1    H3 2518   1.907   2.056   7.230 -0.2131  0.7369 -0.0206
   35CHL1    O3 2519   1.878   1.966   7.049 -0.2998  0.3537 -0.2566
   35CHL1   H3' 2520   1.821   1.892   7.031 -0.2710  0.3674 -0.4025
   35CHL1    C4 2521   1.827   1.857   7.252 -0.1274  0.8120  0.1366
   35CHL1   H4A 2522   1.771   1.785   7.189  0.1910  0.4550  0.2551
   35CHL1   H4B 2523   1.930   1.817   7.263  0.6421  1.7155 -2.8516
   35CHL1    C5 2524   1.756   1.864   7.384 -0.1582  0.3367  0.0210
   35CHL1    C6 2525   1.822   1.831   7.500  0.4362 -0.1025  0.5057
   35CHL1    H6 2526   1.924   1.795   7.480  0.6438  1.2057 -0.9829
   35CHL1    C7 2527   1.767   1.827   7.636  0.3510  0.0247  0.1896
   35CHL1   H7A 2528   1.795   1.734   7.690  1.6851  0.1346 -0.2647
   35CHL1   H7B 2529   1.813   1.905   7.701  0.6083  1.5543 -1.7345
   35CHL1    C8 2530   1.613   1.837   7.626 -0.0031  0.0931 -0.2681
   35CHL1    H8 2531   1.571   1.740   7.593  0.6323  0.2544 -1.6099
   35CHL1   C14 2532   1.567   1.867   7.769  0.1113 -0.4117  0.1457
   35CHL1   H14 2533   1.620   1.960   7.799  3.5644 -1.6417 -1.5360
   35CHL1   C15 2534   1.602   1.773   7.885 -0.2391  0.5068  0.2674
   35CHL1  H15A 2535   1.564   1.672   7.856  0.7860  0.2375 -0.2175
   35CHL1  H15B 2536   1.707   1.757   7.919 -0.4870 -0.8665  0.4480
   35CHL1   C16 2537   1.515   1.827   7.994 -1.1486  0.7476 -0.0471
   35CHL1  H16A 2538   1.466   1.737   8.038  0.4218 -0.5232 -0.7861
   35CHL1  H16B 2539   1.589   1.860   8.070 -1.6898 -0.7739  1.2135
   35CHL1   C17 2540   1.414   1.931   7.940  0.1183 -0.5536  0.3242
   35CHL1   H17 2541   1.456   2.034   7.944 -1.5007  0.2008 -1.0077
   35CHL1   C13 2542   1.422   1.901   7.785  0.3139 -0.1360  0.1055
   35CHL1   C18 2543   1.340   1.783   7.755 -0.4474  0.4720 -0.1652
   35CHL1  H18A 2544   1.233   1.811   7.761  0.0280  2.1651  0.8432
   35CHL1  H18B 2545   1.368   1.754   7.651 -0.0643  1.6780 -0.4069
   35CHL1  H18C 2546   1.365   1.699   7.824  2.5867  0.4492 -1.1411
   35CHL1   C12 2547   1.385   2.019   7.689  0.0733 -0.8525 -0.4881
   35CHL1  H12A 2548   1.277   2.042   7.680  0.3727  0.3718 -1.2150
   35CHL1  H12B 2549   1.440   2.108   7.726  0.5238 -1.3005 -0.0598
   35CHL1   C11 2550   1.423   1.982   7.546  0.1275  0.5068 -0.2204
   35CHL1  H11A 2551   1.354   1.904   7.507  1.5400 -2.5106  2.8362
   35CHL1  H11B 2552   1.399   2.065   7.476 -0.3846  0.8569  0.3565
   35CHL1    C9 2553   1.570   1.945   7.530  0.1381  0.0915  0.1330
   35CHL1    H9 2554   1.619   2.040   7.560 -2.4096  1.1484  1.1967
   35CHL1   C10 2555   1.619   1.923   7.381  0.2756  0.1469 -0.6061
   35CHL1   C19 2556   1.521   1.829   7.314 -0.1169 -0.0595  1.0059
   35CHL1  H19A 2557   1.513   1.738   7.377 -0.6018 -0.9362 -0.2819
   35CHL1  H19B 2558   1.425   1.882   7.291  0.6740  0.1318 -2.5257
   35CHL1  H19C 2559   1.554   1.799   7.212  0.1561 -0.3363  1.1761
   35CHL1    C1 2560   1.632   2.055   7.307 -0.3014 -0.2457 -0.1796
   35CHL1   H1A 2561   1.528   2.094   7.309 -0.2618 -0.0115  3.0553
   35CHL1   H1B 2562   1.694   2.120   7.374  2.3458 -2.6773 -0.0647
   35CHL1    C2 2563   1.697   2.047   7.170  0.7083  0.0571 -0.1828
   35CHL1   H2A 2564   1.711   2.151   7.133 -1.0933  0.9525  1.5179
   35CHL1   H2B 2565   1.628   1.999   7.098 -0.1278  1.3071 -0.2345
   35CHL1   C20 2566   1.284   1.943   8.018  0.1531  0.6825  0.6081
   35CHL1   H20 2567   1.209   1.865   7.993  1.4230 -0.2817 -0.3193
   35CHL1   C21 2568   1.210   2.069   7.976  1.4124  0.2654 -0.0089
   35CHL1  H21A 2569   1.124   2.076   8.046  2.1038  1.2231  0.7833
   35CHL1  H21B 2570   1.163   2.066   7.876 -1.3031 -0.3031  1.1864
   35CHL1  H21C 2571   1.274   2.156   8.004  1.9281 -0.1473  0.1308
   35CHL1   C22 2572   1.314   1.924   8.172  0.1173 -0.7560 -0.1108
   35CHL1  H22A 2573   1.338   1.817   8.190  1.3295 -0.3884  0.6009
   35CHL1  H22B 2574   1.404   1.984   8.196 -0.3816 -0.5125  1.2112
   35CHL1   C23 2575   1.190   1.950   8.258  0.1540 -0.5688  0.4199
   35CHL1  H23A 2576   1.161   2.057   8.243  0.1659 -0.7395 -0.9420
   35CHL1  H23B 2577   1.106   1.889   8.219 -0.7685  1.2791 -0.6860
   35CHL1   C24 2578   1.212   1.925   8.409  0.5782  0.2573 -0.1276
   35CHL1  H24A 2579   1.266   1.829   8.422 -2.6350 -1.9497 -1.5167
   35CHL1  H24B 2580   1.268   2.014   8.444 -0.6826  0.1991  2.2615
   35CHL1   C25 2581   1.080   1.916   8.498 -0.5618 -0.2231  0.0188
   35CHL1   H25 2582   1.020   2.008   8.484  0.1677 -0.0606 -2.6869
   35CHL1   C26 2583   0.995   1.797   8.457 -0.0377 -0.0978 -0.8477
   35CHL1  H26A 2584   0.972   1.807   8.349 -1.5843  0.1358 -0.5145
   35CHL1  H26B 2585   1.052   1.703   8.469 -0.8014 -0.5426 -0.6839
   35CHL1  H26C 2586   0.902   1.795   8.517  1.1550 -2.1674  1.0743
   35CHL1   C27 2587   1.105   1.905   8.654  0.0984  0.6448  0.6486
   35CHL1  H27A 2588   1.173   1.979   8.701 -1.9045  1.9159  1.6635
   35CHL1  H27B 2589   1.164   1.812   8.669 -0.4632  0.2497  0.4433
   35CHL1  H27C 2590   1.011   1.890   8.710  1.7292 -1.7190  3.0344
   36CHL1    C3 2591   2.979   3.405   7.097  0.1079  0.3531  0.4391
   36CHL1    H3 2592   3.049   3.491   7.111 -0.3909  0.5385  1.9213
   36CHL1    O3 2593   2.973   3.369   6.956  0.4083  0.1731  0.7817
   36CHL1   H3' 2594   2.890   3.321   6.949  0.7375 -0.3245  0.0830
   36CHL1    C4 2595   3.026   3.283   7.174  0.2385 -0.8652  0.2306
   36CHL1   H4A 2596   2.952   3.204   7.148  0.4595 -0.6626 -1.0834
   36CHL1   H4B 2597   3.126   3.250   7.137  0.2119 -0.1457 -0.5048
   36CHL1    C5 2598   3.024   3.297   7.327 -0.3345 -0.0936  0.3503
   36CHL1    C6 2599   3.127   3.266   7.401  1.3399 -0.2414  0.3846
   36CHL1    H6 2600   3.218   3.237   7.347  0.8977 -1.2259  0.1479
   36CHL1    C7 2601   3.122   3.280   7.547 -0.2112 -0.3847 -0.6772
   36CHL1   H7A 2602   3.165   3.200   7.611  0.4636 -0.0710 -0.7313
   36CHL1   H7B 2603   3.186   3.367   7.573 -0.3056 -0.7078  0.7385
   36CHL1    C8 2604   2.983   3.318   7.609  0.6662 -0.1292  0.2406
   36CHL1    H8 2605   2.930   3.221   7.621  1.9225 -0.5430  3.5050
   36CHL1   C14 2606   3.002   3.382   7.744  0.0208 -0.4331 -0.3080
   36CHL1   H14 2607   3.044   3.481   7.717  0.4032 -0.5258 -0.0661
   36CHL1   C15 2608   3.102   3.321   7.844 -0.3406  0.4761 -0.5960
   36CHL1  H15A 2609   3.087   3.212   7.856  0.2105  0.4312 -0.2742
   36CHL1  H15B 2610   3.210   3.338   7.822  0.0351  0.1290  0.8538
   36CHL1   C16 2611   3.060   3.383   7.981 -0.2173  0.5470 -0.2584
   36CHL1  H16A 2612   3.029   3.302   8.050 -0.8984  0.3668 -0.7768
   36CHL1  H16B 2613   3.137   3.452   8.023  0.0844  1.1900 -1.8102
   36CHL1   C17 2614   2.943   3.478   7.954 -0.8902  0.1504  0.0082
   36CHL1   H17 2615   2.986   3.572   7.914 -0.6485 -0.4617 -1.2187
   36CHL1   C13 2616   2.879   3.411   7.830  0.0900 -0.0830  0.5556
   36CHL1   C18 2617   2.798   3.283   7.874  0.2310  0.1561 -0.4556
   36CHL1  H18A 2618   2.866   3.213   7.927  0.8772 -0.6723 -2.2837
   36CHL1  H18B 2619   2.711   3.304   7.940  1.4048 -0.1253  1.2552
   36CHL1  H18C 2620   2.769   3.235   7.778  1.8903  1.4772 -1.6862
   36CHL1   C12 2621   2.784   3.496   7.737  0.3554 -0.7672  0.7728
   36CHL1  H12A 2622   2.685   3.507   7.786  0.3059 -0.6488  0.6461
   36CHL1  H12B 2623   2.823   3.600   7.732  2.6428 -1.5204  1.6887
   36CHL1   C11 2624   2.765   3.439   7.595  0.8973  0.1911  0.4937
   36CHL1  H11A 2625   2.704   3.346   7.604  0.6941 -0.2951 -3.9087
   36CHL1  H11B 2626   2.697   3.509   7.540  1.2709  0.6834  0.6500
   36CHL1    C9 2627   2.894   3.403   7.520 -0.3785 -0.6841 -0.8995
   36CHL1    H9 2628   2.949   3.500   7.520  1.2384 -1.5281  1.2860
   36CHL1   C10 2629   2.888   3.352   7.377 -0.1009 -0.0086 -0.6174
   36CHL1   C19 2630   2.788   3.238   7.379 -0.3874 -0.3249 -0.7794
   36CHL1  H19A 2631   2.781   3.183   7.283 -0.2739 -1.6930 -0.0278
   36CHL1  H19B 2632   2.798   3.163   7.460 -1.3448 -0.9758 -1.2474
   36CHL1  H19C 2633   2.685   3.277   7.397 -0.8921 -2.3991  1.3573
   36CHL1    C1 2634   2.834   3.471   7.294 -0.6598  0.4986 -0.4481
   36CHL1   H1A 2635   2.735   3.502   7.334 -0.1529  1.8667 -0.1554
   36CHL1   H1B 2636   2.905   3.549   7.330  0.0936 -0.2361 -0.3036
   36CHL1    C2 2637   2.841   3.445   7.142 -0.4420 -0.5588 -0.0781
   36CHL1   H2A 2638   2.803   3.535   7.090  1.4342  0.4227  0.1766
   36CHL1   H2B 2639   2.768   3.364   7.124  0.1108 -0.7574 -1.5599
   36CHL1   C20 2640   2.854   3.511   8.069  0.0039  0.0094  0.8969
   36CHL1   H20 2641   2.755   3.542   8.028  1.2912  2.9773 -0.3004
   36CHL1   C21 2642   2.901   3.650   8.121  0.1296 -0.4160 -0.4617
   36CHL1  H21A 2643   2.902   3.728   8.043  3.0195 -0.0333 -0.1452
   36CHL1  H21B 2644   3.004   3.650   8.163 -0.5583  2.9801  1.6152
   36CHL1  H21C 2645   2.843   3.681   8.211  0.5976 -2.8126  0.7681
   36CHL1   C22 2646   2.844   3.410   8.172 -0.5822  0.3552  0.2275
   36CHL1  H22A 2647   2.813   3.314   8.125 -5.6077  1.0955  1.3946
   36CHL1  H22B 2648   2.945   3.407   8.218  0.2179  0.1968 -1.4747
   36CHL1   C23 2649   2.728   3.428   8.275 -0.4986 -0.2085  0.1199
   36CHL1  H23A 2650   2.751   3.508   8.348 -1.3574  1.9561 -1.8229
   36CHL1  H23B 2651   2.652   3.470   8.206 -0.4535  2.2025  1.4394
   36CHL1   C24 2652   2.687   3.297   8.337  0.8356  0.2244 -0.7090
   36CHL1  H24A 2653   2.614   3.235   8.281 -2.7836  0.8544  2.7959
   36CHL1  H24B 2654   2.787   3.251   8.347  0.4469 -0.1713  2.6227
   36CHL1   C25 2655   2.626   3.316   8.483 -0.2872 -0.6116  0.1653
   36CHL1   H25 2656   2.694   3.382   8.541 -0.9982  1.5457 -1.3206
   36CHL1   C26 2657   2.490   3.391   8.466 -0.0618 -0.9245  0.3973
   36CHL1  H26A 2658   2.433   3.383   8.561 -0.2007 -2.1841  0.2155
   36CHL1  H26B 2659   2.506   3.496   8.431 -0.4665 -1.7477 -2.5886
   36CHL1  H26C 2660   2.423   3.345   8.390 -1.4638  1.6339 -0.0426
   36CHL1   C27 2661   2.595   3.189   8.550 -0.8790  0.0539 -0.6151
   36CHL1  H27A 2662   2.691   3.132   8.551 -0.6458  0.3910  1.5270
   36CHL1  H27B 2663   2.572   3.198   8.658  2.6672 -0.5018  0.3094
   36CHL1  H27C 2664   2.527   3.127   8.488  1.5780  0.5160 -4.1145
   37CHL1    C3 2665   6.063   5.502   7.015  0.0316  0.2029 -0.4669
   37CHL1    H3 2666   6.165   5.543   7.032  0.9253 -2.0351 -0.0938
   37CHL1    O3 2667   6.070   5.448   6.885  0.3948 -0.3398  0.2395
   37CHL1   H3' 2668   6.028   5.519   6.836 -0.3025  1.5078  3.2829
   37CHL1    C4 2669   6.033   5.397   7.116  0.4005 -0.1086 -0.1862
   37CHL1   H4A 2670   5.936   5.363   7.075 -0.2493  2.7742 -1.3252
   37CHL1   H4B 2671   6.113   5.320   7.108  1.7236  0.8994  2.1617
   37CHL1    C5 2672   6.011   5.454   7.253  0.4913  0.0705 -0.2239
   37CHL1    C6 2673   6.079   5.408   7.356 -0.7409 -0.7191 -0.5288
   37CHL1    H6 2674   6.152   5.327   7.338 -1.0962 -0.8312 -1.5164
   37CHL1    C7 2675   6.064   5.462   7.492  0.1653 -0.2905 -0.3664
   37CHL1   H7A 2676   6.066   5.380   7.567 -0.0514  0.8028  0.8650
   37CHL1   H7B 2677   6.151   5.528   7.509 -0.8282  1.8114 -2.7948
   37CHL1    C8 2678   5.939   5.554   7.518 -0.3660  0.1393  0.4547
   37CHL1    H8 2679   5.850   5.487   7.520 -0.5376  0.3203 -0.5398
   37CHL1   C14 2680   5.953   5.637   7.642  0.3499 -0.0345 -0.5934
   37CHL1   H14 2681   6.033   5.711   7.620  0.4048 -0.4777 -2.0474
   37CHL1   C15 2682   5.988   5.560   7.770 -0.1835  0.2122  0.1490
   37CHL1  H15A 2683   5.950   5.455   7.770  0.0984  0.1106  0.0930
   37CHL1  H15B 2684   6.096   5.548   7.789 -0.5546  0.0629  2.5084
   37CHL1   C16 2685   5.926   5.641   7.878  0.6298 -0.4866  0.4392
   37CHL1  H16A 2686   5.838   5.588   7.921  0.6312  0.1983  1.2972
   37CHL1  H16B 2687   5.995   5.669   7.960  1.0641 -1.8425  0.5601
   37CHL1   C17 2688   5.876   5.769   7.807  0.9139 -0.3264  0.5269
   37CHL1   H17 2689   5.967   5.833   7.797 -0.1079  0.7914 -2.7230
   37CHL1   C13 2690   5.830   5.725   7.666 -0.1366  1.1564 -0.2267
   37CHL1   C18 2691   5.711   5.637   7.690  0.2292  0.0450  0.4493
   37CHL1  H18A 2692   5.618   5.689   7.722  1.3939  0.8271  2.7535
   37CHL1  H18B 2693   5.679   5.585   7.596  0.9917 -1.3255  0.9210
   37CHL1  H18C 2694   5.731   5.549   7.754  1.1288 -0.5734 -0.6390
   37CHL1   C12 2695   5.811   5.828   7.550  0.6167 -0.2369  0.0414
   37CHL1  H12A 2696   5.713   5.880   7.557  0.2306 -1.0246  0.6875
   37CHL1  H12B 2697   5.897   5.898   7.542 -0.1486  0.6349 -0.6453
   37CHL1   C11 2698   5.804   5.754   7.416 -0.7858  0.2694  0.2186
   37CHL1  H11A 2699   5.704   5.706   7.402 -0.7670  0.4488 -0.5819
   37CHL1  H11B 2700   5.812   5.830   7.335  2.6749 -0.1633 -0.0088
   37CHL1    C9 2701   5.923   5.647   7.394 -0.3582 -0.0792 -0.1288
   37CHL1    H9 2702   6.010   5.716   7.392  0.4910 -0.8492  3.7563
   37CHL1   C10 2703   5.910   5.576   7.262 -0.1646  0.0702  0.1672
   37CHL1   C19 2704   5.768   5.514   7.250  0.0432  0.2214  0.3435
   37CHL1  H19A 2705   5.700   5.589   7.205  1.1544  0.4605 -1.0257
   37CHL1  H19B 2706   5.768   5.436   7.170  1.8204 -0.4430  0.9465
   37CHL1  H19C 2707   5.730   5.466   7.343 -1.6256  1.5084  0.3689
   37CHL1    C1 2708   5.932   5.680   7.143 -0.7958 -0.3005  0.9880
   37CHL1   H1A 2709   5.842   5.746   7.143 -0.8052 -0.2218 -1.8871
   37CHL1   H1B 2710   6.018   5.747   7.167 -1.1607 -0.2451  2.2288
   37CHL1    C2 2711   5.958   5.616   7.010 -0.0710  0.5374 -0.1073
   37CHL1   H2A 2712   5.988   5.692   6.935 -0.0722  0.2764 -0.3744
   37CHL1   H2B 2713   5.859   5.576   6.977 -0.5427  0.0758  1.7638
   37CHL1   C20 2714   5.780   5.842   7.896 -0.3850 -0.3341  0.3005
   37CHL1   H20 2715   5.689   5.780   7.914 -0.4712  0.0524  1.2932
   37CHL1   C21 2716   5.712   5.971   7.832 -0.5138  0.3511  0.8688
   37CHL1  H21A 2717   5.776   6.040   7.772  0.6662 -0.5004  1.0998
   37CHL1  H21B 2718   5.663   6.037   7.906 -0.9383  2.4091 -1.1436
   37CHL1  H21C 2719   5.624   5.939   7.773 -0.3500 -0.8735  1.2566
   37CHL1   C22 2720   5.832   5.880   8.037  0.3160 -0.3732  0.7393
   37CHL1  H22A 2721   5.879   5.791   8.084 -1.7211 -0.2225  3.2447
   37CHL1  H22B 2722   5.907   5.961   8.025  1.6794 -1.5327  1.1865
   37CHL1   C23 2723   5.732   5.922   8.153  0.3374  0.3278  0.5523
   37CHL1  H23A 2724   5.686   6.014   8.111  2.9912  1.3041 -0.4558
   37CHL1  H23B 2725   5.666   5.833   8.160 -0.1239  0.3360 -2.2862
   37CHL1   C24 2726   5.807   5.957   8.275 -0.2051  0.1332  0.2109
   37CHL1  H24A 2727   5.848   5.866   8.324  1.4858  1.3430  1.1628
   37CHL1  H24B 2728   5.893   6.024   8.257  0.1482 -0.5564 -0.7352
   37CHL1   C25 2729   5.724   6.021   8.392 -0.5907 -0.3068  0.1847
   37CHL1   H25 2730   5.647   5.948   8.424 -0.7384  0.2992  1.2588
   37CHL1   C26 2731   5.832   6.045   8.503  0.9199  0.0216 -0.2609
   37CHL1  H26A 2732   5.777   6.110   8.575 -1.7016 -1.3804 -0.8724
   37CHL1  H26B 2733   5.859   5.954   8.562  1.5617  1.3017  1.4843
   37CHL1  H26C 2734   5.926   6.095   8.473  0.8740  1.1906  1.4218
   37CHL1   C27 2735   5.655   6.151   8.362 -0.4096 -0.7545 -0.5350
   37CHL1  H27A 2736   5.731   6.232   8.360 -0.5404 -0.6298 -3.0630
   37CHL1  H27B 2737   5.604   6.145   8.263  1.7105  0.2846 -1.7547
   37CHL1  H27C 2738   5.588   6.184   8.445  4.0213  1.5641  2.5180
   38CHL1    C3 2739   3.910   5.672   6.589 -0.0298 -0.4862 -0.5257
   38CHL1    H3 2740   3.835   5.591   6.575 -0.2715 -0.4808  0.6112
   38CHL1    O3 2741   3.955   5.696   6.456 -0.2589 -0.0600  0.8272
   38CHL1   H3' 2742   4.038   5.743   6.460 -0.2641  0.3612 -1.9571
   38CHL1    C4 2743   3.862   5.794   6.664 -0.3123 -0.2648  0.1986
   38CHL1   H4A 2744   3.945   5.868   6.672 -0.3249 -0.3419  1.0691
   38CHL1   H4B 2745   3.788   5.851   6.604 -0.4508 -0.0659  0.5593
   38CHL1    C5 2746   3.819   5.770   6.803 -0.1535  0.3859 -0.1389
   38CHL1    C6 2747   3.691   5.796   6.847 -0.7802 -0.1177  0.6729
   38CHL1    H6 2748   3.625   5.851   6.778  1.5674  1.0024 -0.7971
   38CHL1    C7 2749   3.650   5.771   6.993 -0.7523 -0.7621  0.1164
   38CHL1   H7A 2750   3.600   5.858   7.040  2.1234  1.9271 -1.4113
   38CHL1   H7B 2751   3.601   5.672   7.002  1.2595 -1.6984  1.4903
   38CHL1    C8 2752   3.782   5.755   7.085  0.2068 -0.4673 -0.2637
   38CHL1    H8 2753   3.825   5.857   7.088 -3.0110  1.0343 -0.9698
   38CHL1   C14 2754   3.741   5.704   7.223  0.0615  0.1332  0.5232
   38CHL1   H14 2755   3.687   5.607   7.217  0.6524 -0.2745  1.5673
   38CHL1   C15 2756   3.645   5.793   7.307 -0.5057 -0.1692  0.3821
   38CHL1  H15A 2757   3.668   5.901   7.296  0.9103 -0.6748 -3.1783
   38CHL1  H15B 2758   3.540   5.779   7.273  0.9482 -1.0290 -4.6932
   38CHL1   C16 2759   3.678   5.764   7.457 -0.3354  0.3789 -0.2149
   38CHL1  H16A 2760   3.703   5.866   7.496  3.2836  0.0688 -1.3789
   38CHL1  H16B 2761   3.589   5.719   7.507 -0.4741 -0.3480 -1.0978
   38CHL1   C17 2762   3.791   5.656   7.453 -0.0968  0.1381  0.0168
   38CHL1   H17 2763   3.739   5.558   7.442 -1.5488  0.9363 -0.3836
   38CHL1   C13 2764   3.860   5.678   7.316 -0.9308  0.0375 -0.0472
   38CHL1   C18 2765   3.954   5.803   7.332 -0.1994 -0.4225  0.0394
   38CHL1  H18A 2766   4.036   5.790   7.405 -0.0202  1.2567  0.1784
   38CHL1  H18B 2767   3.993   5.848   7.238  0.8627 -0.4685  0.4551
   38CHL1  H18C 2768   3.894   5.891   7.367  0.7046  0.8372 -1.4255
   38CHL1   C12 2769   3.937   5.560   7.252 -0.3977 -0.7869 -0.4959
   38CHL1  H12A 2770   4.028   5.532   7.310  0.8096  3.3214 -0.0598
   38CHL1  H12B 2771   3.876   5.467   7.249 -0.3342 -0.8754  0.5566
   38CHL1   C11 2772   3.981   5.595   7.113  0.0752 -0.2368  0.1663
   38CHL1  H11A 2773   4.054   5.675   7.139 -0.4617 -0.0869  1.2857
   38CHL1  H11B 2774   4.037   5.511   7.066  2.7721  1.0643  0.8165
   38CHL1    C9 2775   3.872   5.654   7.020  0.0143  0.3829 -0.3625
   38CHL1    H9 2776   3.804   5.569   6.996 -2.1335  1.3934  1.7301
   38CHL1   C10 2777   3.936   5.705   6.889  0.0205  0.6915 -0.3355
   38CHL1   C19 2778   4.046   5.808   6.924 -0.3334 -0.6038 -0.3277
   38CHL1  H19A 2779   4.141   5.756   6.952  0.7068  1.6330  0.5166
   38CHL1  H19B 2780   4.091   5.846   6.830  2.9299  1.4925  1.8880
   38CHL1  H19C 2781   4.021   5.893   6.991  3.1379  1.4909 -1.4388
   38CHL1    C1 2782   3.994   5.587   6.802  0.0055  1.1619  0.2762
   38CHL1   H1A 2783   4.084   5.542   6.849 -0.2537 -0.5977 -0.8428
   38CHL1   H1B 2784   3.914   5.511   6.802  0.2940  0.8025  2.1080
   38CHL1    C2 2785   4.037   5.615   6.658 -0.0129  0.0037  0.3683
   38CHL1   H2A 2786   4.071   5.525   6.604  0.9546  0.6896 -0.2042
   38CHL1   H2B 2787   4.116   5.693   6.658 -0.2713  0.2718 -0.2167
   38CHL1   C20 2788   3.878   5.646   7.583  0.4787  0.1874 -0.8947
   38CHL1   H20 2789   3.934   5.742   7.589  1.3368 -0.4006  1.0561
   38CHL1   C21 2790   3.974   5.535   7.572  0.5748  0.5168 -0.3915
   38CHL1  H21A 2791   3.935   5.448   7.516  2.7478 -2.2547  2.1239
   38CHL1  H21B 2792   3.994   5.489   7.671 -1.2433 -1.3835 -0.8513
   38CHL1  H21C 2793   4.074   5.563   7.533  1.5746 -0.9916  0.9728
   38CHL1   C22 2794   3.785   5.625   7.710  0.8901 -0.2993  0.1428
   38CHL1  H22A 2795   3.723   5.717   7.708  2.1566  0.6117  1.0845
   38CHL1  H22B 2796   3.708   5.545   7.699 -0.2469  0.5963  1.2863
   38CHL1   C23 2797   3.859   5.625   7.844  0.3826  0.4981  0.5134
   38CHL1  H23A 2798   3.909   5.527   7.854 -0.8127 -0.4526 -1.9434
   38CHL1  H23B 2799   3.939   5.702   7.835  1.9068 -1.1161 -0.5171
   38CHL1   C24 2800   3.764   5.677   7.954 -0.2988  0.2330  0.0850
   38CHL1  H24A 2801   3.734   5.779   7.921  0.0050  0.5638  0.8257
   38CHL1  H24B 2802   3.663   5.629   7.962 -0.6570  0.6437 -1.6150
   38CHL1   C25 2803   3.834   5.678   8.085 -0.1837 -0.0869 -0.9528
   38CHL1   H25 2804   3.935   5.725   8.086 -0.1261 -0.1167 -2.7512
   38CHL1   C26 2805   3.744   5.749   8.187 -0.1875  0.7507 -0.3066
   38CHL1  H26A 2806   3.650   5.690   8.201  0.6210 -1.0033 -1.8120
   38CHL1  H26B 2807   3.797   5.752   8.284  1.4414  0.3761 -1.1408
   38CHL1  H26C 2808   3.729   5.856   8.160 -0.8689  0.1392 -2.5618
   38CHL1   C27 2809   3.860   5.526   8.120 -0.0673 -0.2966  0.0488
   38CHL1  H27A 2810   3.892   5.504   8.225  2.3141 -1.3487 -0.8251
   38CHL1  H27B 2811   3.759   5.481   8.114  0.0339 -0.4725 -0.3799
   38CHL1  H27C 2812   3.939   5.490   8.050 -0.6914 -0.6841 -0.4574
   39CHL1    C3 2813   1.364   4.161   7.247 -0.2456 -0.1934 -0.3967
   39CHL1    H3 2814   1.473   4.181   7.259  0.1376 -1.3689 -1.7177
   39CHL1    O3 2815   1.319   4.207   7.122  0.0172 -1.0826  0.1670
   39CHL1   H3' 2816   1.352   4.139   7.062  0.8257 -1.3231  0.8608
   39CHL1    C4 2817   1.336   4.011   7.257  0.0613 -0.9100 -0.0060
   39CHL1   H4A 2818   1.225   4.006   7.249  0.0426  1.1847 -2.3186
   39CHL1   H4B 2819   1.372   3.946   7.175 -1.1755 -1.8872  0.1860
   39CHL1    C5 2820   1.385   3.959   7.388  0.5045 -0.6805 -0.2473
   39CHL1    C6 2821   1.484   3.875   7.411 -0.0898 -0.1904 -0.2329
   39CHL1    H6 2822   1.538   3.826   7.329 -0.7590  0.7893 -1.2921
   39CHL1    C7 2823   1.532   3.828   7.547 -0.7845 -0.4621  0.5846
   39CHL1   H7A 2824   1.546   3.719   7.540  0.5468 -0.2311 -0.8130
   39CHL1   H7B 2825   1.625   3.880   7.579 -2.1185  2.2754  0.3529
   39CHL1    C8 2826   1.437   3.853   7.664  0.1968 -0.4191  0.3207
   39CHL1    H8 2827   1.344   3.792   7.660 -2.2798  3.0319  0.1943
   39CHL1   C14 2828   1.506   3.825   7.802 -0.3628 -0.4559 -0.4672
   39CHL1   H14 2829   1.594   3.893   7.808  0.2389 -1.2915  0.8593
   39CHL1   C15 2830   1.574   3.689   7.823 -0.6880  0.0414 -0.3026
   39CHL1  H15A 2831   1.526   3.594   7.790 -1.9058 -0.0596  1.5715
   39CHL1  H15B 2832   1.667   3.689   7.763 -1.6536  0.3582 -1.8902
   39CHL1   C16 2833   1.590   3.685   7.980 -0.2050 -0.0873  0.9060
   39CHL1  H16A 2834   1.533   3.601   8.025 -1.2632  1.0799  1.8100
   39CHL1  H16B 2835   1.696   3.678   8.011  0.5301 -1.6414 -1.6217
   39CHL1   C17 2836   1.521   3.817   8.035  0.0007 -0.4174 -0.3713
   39CHL1   H17 2837   1.603   3.889   8.052  0.2799 -0.1103 -2.7276
   39CHL1   C13 2838   1.424   3.861   7.929  0.1359 -0.2180 -0.2226
   39CHL1   C18 2839   1.305   3.764   7.937  0.3036 -0.2863  0.7004
   39CHL1  H18A 2840   1.319   3.656   7.958 -0.8204 -0.3496  1.2115
   39CHL1  H18B 2841   1.245   3.785   8.029  0.9266 -0.6961  1.2101
   39CHL1  H18C 2842   1.248   3.779   7.843 -0.3209 -0.7165  1.0038
   39CHL1   C12 2843   1.378   4.010   7.913 -0.1282  0.1299  0.6243
   39CHL1  H12A 2844   1.314   4.042   7.998  1.1189 -1.7303  2.3780
   39CHL1  H12B 2845   1.473   4.065   7.930 -0.8290  0.5486  3.9541
   39CHL1   C11 2846   1.305   4.036   7.780  0.5315 -0.2475 -0.4714
   39CHL1  H11A 2847   1.209   3.984   7.802  1.2352 -0.9239  1.1455
   39CHL1  H11B 2848   1.282   4.144   7.774  1.5577  0.0368  0.4496
   39CHL1    C9 2849   1.383   3.994   7.650 -0.0240  0.3104 -0.2518
   39CHL1    H9 2850   1.472   4.060   7.642 -0.7441  1.5633  1.4668
   39CHL1   C10 2851   1.310   4.019   7.511  0.2583 -0.5825 -0.1123
   39CHL1   C19 2852   1.164   3.964   7.514  0.2515 -0.5935 -0.1955
   39CHL1  H19A 2853   1.093   4.014   7.583 -0.7695 -2.4843  0.2100
   39CHL1  H19B 2854   1.116   3.986   7.416  0.9986 -2.2047 -0.9684
   39CHL1  H19C 2855   1.153   3.855   7.531 -0.2069 -0.1087  3.4859
   39CHL1    C1 2856   1.307   4.176   7.493  0.5456 -0.8589  0.0310
   39CHL1   H1A 2857   1.230   4.217   7.563  1.7851 -0.5028  1.2313
   39CHL1   H1B 2858   1.406   4.206   7.533  0.9214 -2.1500  0.1067
   39CHL1    C2 2859   1.281   4.237   7.351  0.1447  0.2370 -0.1841
   39CHL1   H2A 2860   1.298   4.347   7.350 -0.0308  0.2749  0.3999
   39CHL1   H2B 2861   1.175   4.219   7.325  0.8683  0.2959 -3.5763
   39CHL1   C20 2862   1.480   3.804   8.181 -0.4500 -0.1320 -0.1845
   39CHL1   H20 2863   1.396   3.733   8.180 -1.1688  0.6662 -2.6428
   39CHL1   C21 2864   1.438   3.939   8.244  0.1965 -0.1098 -0.1018
   39CHL1  H21A 2865   1.509   4.023   8.232 -1.0167  0.9167 -0.2075
   39CHL1  H21B 2866   1.400   3.920   8.347  0.1261 -2.7264 -0.5433
   39CHL1  H21C 2867   1.347   3.967   8.187 -1.4481 -4.7139 -0.2163
   39CHL1   C22 2868   1.603   3.742   8.255 -0.4394 -0.0394 -0.5721
   39CHL1  H22A 2869   1.615   3.635   8.229 -0.3838 -0.6757  1.8046
   39CHL1  H22B 2870   1.702   3.789   8.239  1.8148 -3.5336  1.7433
   39CHL1   C23 2871   1.594   3.746   8.405 -0.4109 -1.0330 -0.1935
   39CHL1  H23A 2872   1.693   3.718   8.447 -0.7384  0.0295  1.3762
   39CHL1  H23B 2873   1.571   3.845   8.450  1.6175 -0.9084  0.7058
   39CHL1   C24 2874   1.494   3.648   8.465  0.8218 -0.6050 -0.2194
   39CHL1  H24A 2875   1.392   3.673   8.430  0.1337 -0.8287  1.5097
   39CHL1  H24B 2876   1.507   3.539   8.450 -0.8610 -0.6446 -1.6128
   39CHL1   C25 2877   1.484   3.658   8.611 -0.3243 -0.2283  0.5531
   39CHL1   H25 2878   1.488   3.765   8.637 -1.3437 -0.4683  1.7908
   39CHL1   C26 2879   1.351   3.599   8.671  1.2236 -0.6858 -0.0108
   39CHL1  H26A 2880   1.342   3.488   8.671  0.8934 -0.6611 -0.2609
   39CHL1  H26B 2881   1.353   3.628   8.779 -2.2184 -4.7776  1.4465
   39CHL1  H26C 2882   1.262   3.642   8.621  1.4102  0.1561  0.3608
   39CHL1   C27 2883   1.609   3.596   8.681  0.3762 -0.4469 -0.6363
   39CHL1  H27A 2884   1.690   3.656   8.636 -1.5350  1.5680 -1.5668
   39CHL1  H27B 2885   1.606   3.614   8.791  0.7362  1.0198 -0.8481
   39CHL1  H27C 2886   1.628   3.490   8.654  0.1511 -0.9468  1.0623
   40CHL1    C3 2887   4.421   3.807   7.054  0.4618 -0.1785  0.6268
   40CHL1    H3 2888   4.320   3.762   7.039  0.6244 -0.3331 -0.0376
   40CHL1    O3 2889   4.491   3.798   6.929 -0.0806 -0.2787  0.3233
   40CHL1   H3' 2890   4.583   3.815   6.948 -0.5492  0.3823  2.2184
   40CHL1    C4 2891   4.400   3.957   7.092  0.1712  0.5104 -0.4041
   40CHL1   H4A 2892   4.502   3.997   7.077  1.1955 -1.1431  1.6681
   40CHL1   H4B 2893   4.337   4.015   7.021  0.5905  3.0133  1.1498
   40CHL1    C5 2894   4.361   3.978   7.237 -0.2948  0.2297  0.4511
   40CHL1    C6 2895   4.259   4.060   7.265 -0.9351  0.1104 -0.6318
   40CHL1    H6 2896   4.214   4.111   7.179 -0.9959  0.2731 -0.5038
   40CHL1    C7 2897   4.207   4.090   7.402  0.3305 -0.0755  0.8658
   40CHL1   H7A 2898   4.191   4.199   7.409 -0.3260 -0.1066  0.0338
   40CHL1   H7B 2899   4.104   4.047   7.411  0.0129  0.9347  2.2458
   40CHL1    C8 2900   4.301   4.035   7.510  0.2572  0.4172 -0.1873
   40CHL1    H8 2901   4.387   4.104   7.523  1.9931 -1.8409  0.9519
   40CHL1   C14 2902   4.239   4.026   7.646  0.7251 -0.5296  0.5704
   40CHL1   H14 2903   4.161   3.948   7.638  0.5373 -0.2527 -0.3731
   40CHL1   C15 2904   4.166   4.150   7.697  0.2285 -0.7038  0.1479
   40CHL1  H15A 2905   4.253   4.218   7.702  0.0239 -0.4886  1.0435
   40CHL1  H15B 2906   4.075   4.188   7.645  1.4183  0.7364 -0.9524
   40CHL1   C16 2907   4.146   4.111   7.851 -0.1213 -0.3446 -0.3270
   40CHL1  H16A 2908   4.187   4.205   7.894 -0.6680  0.2869 -1.1496
   40CHL1  H16B 2909   4.044   4.091   7.888  0.7553 -1.6637  1.5069
   40CHL1   C17 2910   4.230   3.986   7.877 -0.3561 -0.3358 -0.2700
   40CHL1   H17 2911   4.158   3.901   7.873  0.4856 -1.0630 -0.2664
   40CHL1   C13 2912   4.333   3.975   7.760  0.3644 -0.0724  0.0237
   40CHL1   C18 2913   4.446   4.069   7.790 -0.0790  0.0731 -0.1863
   40CHL1  H18A 2914   4.517   4.097   7.709  0.1919  1.4751  0.5005
   40CHL1  H18B 2915   4.418   4.169   7.830 -0.5323  0.4404 -1.3528
   40CHL1  H18C 2916   4.511   4.032   7.872 -0.3846  0.3191  0.1724
   40CHL1   C12 2917   4.373   3.838   7.728  0.5365 -0.3024  1.0249
   40CHL1  H12A 2918   4.434   3.788   7.806  1.0084 -2.3602 -0.5685
   40CHL1  H12B 2919   4.286   3.769   7.721 -0.3359  0.2841  4.4446
   40CHL1   C11 2920   4.456   3.830   7.601  0.2271 -0.7575  0.8734
   40CHL1  H11A 2921   4.545   3.896   7.602  0.0257 -0.2634  4.9508
   40CHL1  H11B 2922   4.495   3.731   7.572 -2.1788 -1.5752  0.1790
   40CHL1    C9 2923   4.369   3.892   7.479 -0.0451 -0.1323  0.5113
   40CHL1    H9 2924   4.279   3.826   7.481  0.4720 -0.8475  1.0136
   40CHL1   C10 2925   4.426   3.889   7.336 -0.9624 -0.3503 -0.5931
   40CHL1   C19 2926   4.573   3.953   7.345  0.0450  0.8055  0.1323
   40CHL1  H19A 2927   4.571   4.054   7.392 -0.3207  0.5598  0.6536
   40CHL1  H19B 2928   4.624   3.879   7.411 -2.1007 -1.4517 -0.5975
   40CHL1  H19C 2929   4.630   3.963   7.250  0.3925  2.3731  0.4717
   40CHL1    C1 2930   4.431   3.741   7.292 -0.2976 -0.0972 -0.1636
   40CHL1   H1A 2931   4.483   3.678   7.368 -1.0398  0.5848  0.9356
   40CHL1   H1B 2932   4.325   3.713   7.279  0.1861 -2.9292  1.1298
   40CHL1    C2 2933   4.495   3.729   7.157  0.8434  0.5384  0.4524
   40CHL1   H2A 2934   4.489   3.627   7.114 -1.2625  0.5234  0.6553
   40CHL1   H2B 2935   4.600   3.764   7.154  1.9834 -2.4087  2.1327
   40CHL1   C20 2936   4.284   3.993   8.023  0.5659 -0.0775  0.2625
   40CHL1   H20 2937   4.380   4.048   8.031  0.8241 -0.1757 -1.7143
   40CHL1   C21 2938   4.312   3.848   8.069  0.3959 -0.1496 -0.0259
   40CHL1  H21A 2939   4.390   3.790   8.015 -1.5124 -1.8058 -1.1541
   40CHL1  H21B 2940   4.220   3.785   8.070 -0.5360  1.0707  3.0447
   40CHL1  H21C 2941   4.325   3.852   8.180 -4.9336  0.1855  0.8527
   40CHL1   C22 2942   4.193   4.068   8.126  0.5075 -0.0828  0.6984
   40CHL1  H22A 2943   4.170   4.172   8.095  0.3380 -0.3916 -0.2430
   40CHL1  H22B 2944   4.097   4.011   8.118  2.2234 -2.9937 -1.4231
   40CHL1   C23 2945   4.242   4.095   8.272 -0.0033 -0.6439  0.8112
   40CHL1  H23A 2946   4.256   4.004   8.334  2.0856  0.3324  1.8778
   40CHL1  H23B 2947   4.339   4.145   8.252 -1.3268  1.8429  0.3095
   40CHL1   C24 2948   4.147   4.194   8.350 -0.2552 -0.1106  0.6531
   40CHL1  H24A 2949   4.109   4.274   8.283  1.4243 -0.4505 -0.7983
   40CHL1  H24B 2950   4.060   4.129   8.372 -0.2788  0.3747  2.1615
   40CHL1   C25 2951   4.217   4.261   8.473 -0.2877 -0.3916  0.2966
   40CHL1   H25 2952   4.280   4.184   8.522 -1.0205  0.9092  3.5305
   40CHL1   C26 2953   4.321   4.366   8.433 -0.7467 -0.0677  0.3159
   40CHL1  H26A 2954   4.264   4.441   8.375  0.8461  0.7383 -0.2840
   40CHL1  H26B 2955   4.362   4.418   8.523  0.4410 -1.3036  0.5213
   40CHL1  H26C 2956   4.403   4.329   8.368 -0.7110  0.5990 -0.0273
   40CHL1   C27 2957   4.130   4.325   8.584 -0.1494 -0.5306 -0.0030
   40CHL1  H27A 2958   4.050   4.371   8.522  1.8858  2.0451 -0.9108
   40CHL1  H27B 2959   4.079   4.260   8.659 -1.4122  0.6887  0.2461
   40CHL1  H27C 2960   4.188   4.399   8.642  2.0563 -2.8203  0.8664
   41CHL1    C3 2961   6.429   3.150   7.002 -0.7313 -0.0333 -0.2728
   41CHL1    H3 2962   6.529   3.158   7.050 -0.5960  0.1866 -0.5913
   41CHL1    O3 2963   6.445   3.145   6.864 -0.1129 -0.4137 -0.3063
   41CHL1   H3' 2964   6.357   3.146   6.826 -1.0876 -1.6101  1.7623
   41CHL1    C4 2965   6.355   3.029   7.058  0.4400  0.4699 -0.1428
   41CHL1   H4A 2966   6.260   3.021   7.001  0.4160  1.3368 -0.2321
   41CHL1   H4B 2967   6.401   2.932   7.027 -2.3566 -0.7700 -0.7599
   41CHL1    C5 2968   6.320   3.033   7.204 -0.3549 -0.2440 -0.2151
   41CHL1    C6 2969   6.354   2.933   7.285 -0.0587  0.3732  0.1864
   41CHL1    H6 2970   6.399   2.843   7.242  1.3726  0.5589  1.2509
   41CHL1    C7 2971   6.325   2.932   7.433  0.4131 -0.0211  0.0315
   41CHL1   H7A 2972   6.268   2.839   7.455 -0.3054  0.1474 -1.0849
   41CHL1   H7B 2973   6.413   2.939   7.500  0.3585 -0.6614  0.1820
   41CHL1    C8 2974   6.225   3.044   7.479  0.1783  0.3545 -0.4258
   41CHL1    H8 2975   6.123   3.015   7.445  0.8657 -1.7993 -0.7581
   41CHL1   C14 2976   6.224   3.066   7.629 -0.4447 -0.2680 -0.1037
   41CHL1   H14 2977   6.330   3.095   7.649 -0.7557  0.4164  0.5972
   41CHL1   C15 2978   6.191   2.942   7.710  0.4385 -0.1127 -0.7284
   41CHL1  H15A 2979   6.101   2.890   7.673  0.6636 -1.3762  0.4034
   41CHL1  H15B 2980   6.281   2.876   7.708  0.8438  0.4410 -2.5547
   41CHL1   C16 2981   6.173   2.994   7.853  0.5497 -0.3532  0.5416
   41CHL1  H16A 2982   6.074   2.953   7.882  0.5744 -1.7243 -1.1518
   41CHL1  H16B 2983   6.255   2.974   7.926  0.2759 -1.2451  0.6179
   41CHL1   C17 2984   6.163   3.148   7.836 -0.5973  0.1951  0.7507
   41CHL1   H17 2985   6.268   3.183   7.844 -0.5514  0.5558 -1.0726
   41CHL1   C13 2986   6.140   3.178   7.685 -0.1672  0.1291  0.5918
   41CHL1   C18 2987   5.991   3.176   7.660 -0.9989 -0.2232 -0.2331
   41CHL1  H18A 2988   5.943   3.088   7.708 -1.1847  0.4501  0.8586
   41CHL1  H18B 2989   5.939   3.262   7.708  1.6221  0.1899  2.1696
   41CHL1  H18C 2990   5.970   3.174   7.551  2.6914  0.9752 -1.0972
   41CHL1   C12 2991   6.204   3.304   7.626  0.4075 -0.2523  0.3881
   41CHL1  H12A 2992   6.169   3.405   7.655 -1.6515 -0.4697 -1.1206
   41CHL1  H12B 2993   6.310   3.332   7.644  0.4384 -0.0327 -0.0969
   41CHL1   C11 2994   6.211   3.306   7.471  0.0324  0.7454 -0.8044
   41CHL1  H11A 2995   6.105   3.324   7.440  0.0730 -1.7570 -2.7381
   41CHL1  H11B 2996   6.273   3.390   7.433  2.6464  0.1167  1.7572
   41CHL1    C9 2997   6.271   3.179   7.410 -0.0425  0.4989 -0.1672
   41CHL1    H9 2998   6.379   3.183   7.435  0.1103 -1.6436 -0.3227
   41CHL1   C10 2999   6.259   3.170   7.255 -0.3916  0.1017 -0.6015
   41CHL1   C19 3000   6.101   3.162   7.219  0.4029 -0.5437 -0.7378
   41CHL1  H19A 3001   6.064   3.058   7.232 -1.0112  0.0696  0.3316
   41CHL1  H19B 3002   6.041   3.230   7.282 -0.3088  0.8180 -2.7982
   41CHL1  H19C 3003   6.091   3.192   7.113 -3.5660  1.4619  0.0616
   41CHL1    C1 3004   6.332   3.297   7.183  0.2586 -0.0437 -0.1789
   41CHL1   H1A 3005   6.279   3.392   7.208  0.6701  0.0382  0.3935
   41CHL1   H1B 3006   6.431   3.311   7.230 -1.3784  0.1081  3.5221
   41CHL1    C2 3007   6.353   3.278   7.034  0.1618 -0.9031  0.1850
   41CHL1   H2A 3008   6.409   3.362   6.987  2.1505 -3.3758 -2.2476
   41CHL1   H2B 3009   6.253   3.267   6.989 -0.0430  0.6691  0.1883
   41CHL1   C20 3010   6.085   3.218   7.943  0.4829 -0.4463  0.2246
   41CHL1   H20 3011   5.978   3.194   7.927  0.7842 -1.7910  0.1006
   41CHL1   C21 3012   6.115   3.374   7.938 -0.0918  0.1844  0.2306
   41CHL1  H21A 3013   6.073   3.413   7.843 -1.7839 -3.0796 -0.5028
   41CHL1  H21B 3014   6.223   3.400   7.945  0.2029 -1.3043  1.7516
   41CHL1  H21C 3015   6.058   3.422   8.021  0.1038  0.8872 -0.0355
   41CHL1   C22 3016   6.098   3.157   8.087 -0.4109  0.4235  0.0862
   41CHL1  H22A 3017   6.110   3.047   8.080  2.1500  0.7471 -2.8524
   41CHL1  H22B 3018   6.184   3.199   8.143  1.5636  0.6453 -2.8713
   41CHL1   C23 3019   5.969   3.195   8.165  0.2216 -0.3903 -0.5959
   41CHL1  H23A 3020   5.966   3.306   8.167  0.1396 -0.4020  0.5531
   41CHL1  H23B 3021   5.877   3.162   8.111 -0.2667  0.2800 -0.1986
   41CHL1   C24 3022   5.975   3.135   8.312 -0.1087 -0.2192 -0.2352
   41CHL1  H24A 3023   5.938   3.030   8.311 -1.1174  0.0975 -2.6641
   41CHL1  H24B 3024   6.083   3.133   8.337  0.1411  0.4273 -1.2224
   41CHL1   C25 3025   5.890   3.211   8.418 -0.2124  0.1259 -0.2280
   41CHL1   H25 3026   5.935   3.313   8.418 -0.0770  0.0818 -1.4058
   41CHL1   C26 3027   5.740   3.216   8.376  0.1414 -0.0459 -0.5870
   41CHL1  H26A 3028   5.707   3.293   8.449  0.1845  0.4436 -1.0816
   41CHL1  H26B 3029   5.724   3.250   8.272  0.8962 -0.4506 -0.8411
   41CHL1  H26C 3030   5.687   3.121   8.397  1.0242 -0.3434  0.4028
   41CHL1   C27 3031   5.915   3.150   8.562  0.9902  0.7330  0.0295
   41CHL1  H27A 3032   5.856   3.058   8.579  2.0959 -0.2156 -1.0263
   41CHL1  H27B 3033   6.023   3.124   8.575  0.5745 -0.1821  1.9447
   41CHL1  H27C 3034   5.879   3.224   8.637  0.3498  0.1718  0.2821
   42CHL1    C3 3035   0.896   1.274   7.066 -0.5940  0.2082 -0.3709
   42CHL1    H3 3036   0.987   1.237   7.118 -2.8274 -3.3425  1.3762
   42CHL1    O3 3037   0.916   1.313   6.932 -0.7483 -0.0006 -0.1941
   42CHL1   H3' 3038   0.829   1.330   6.894 -1.6761  0.0119  1.7663
   42CHL1    C4 3039   0.796   1.163   7.072 -0.3719 -0.4948  0.9495
   42CHL1   H4A 3040   0.705   1.200   7.021  2.1619  1.7178 -2.4651
   42CHL1   H4B 3041   0.839   1.081   7.010 -2.6759 -0.4632 -0.8032
   42CHL1    C5 3042   0.771   1.115   7.215 -0.6697 -0.2735  0.1452
   42CHL1    C6 3043   0.783   0.985   7.249 -0.4052 -0.3372  0.6728
   42CHL1    H6 3044   0.826   0.916   7.175 -0.6615 -0.1138  0.3142
   42CHL1    C7 3045   0.757   0.936   7.392  0.5366 -0.1646 -0.7835
   42CHL1   H7A 3046   0.703   0.839   7.388  1.9287 -0.9642 -0.4524
   42CHL1   H7B 3047   0.852   0.913   7.443 -0.0408 -0.2874  0.2628
   42CHL1    C8 3048   0.680   1.045   7.481 -0.0967 -0.0168  0.0021
   42CHL1    H8 3049   0.575   1.049   7.446 -0.1188  5.0854 -0.0871
   42CHL1   C14 3050   0.686   0.999   7.630 -0.4162  0.8014 -0.5821
   42CHL1   H14 3051   0.794   0.998   7.655 -0.5162 -1.4266  0.0097
   42CHL1   C15 3052   0.627   0.857   7.658  0.0965 -0.4069 -0.6910
   42CHL1  H15A 3053   0.528   0.852   7.607 -0.3368 -0.4077  0.1349
   42CHL1  H15B 3054   0.683   0.762   7.647  0.1765 -0.5302  0.5832
   42CHL1   C16 3055   0.605   0.869   7.810 -0.4082  0.7212  0.6488
   42CHL1  H16A 3056   0.501   0.861   7.849 -0.8408  1.3370 -0.3385
   42CHL1  H16B 3057   0.674   0.794   7.854  0.5255 -0.0055 -1.8318
   42CHL1   C17 3058   0.654   1.014   7.865 -0.2101 -0.2168  0.0530
   42CHL1   H17 3059   0.764   1.011   7.880  0.0273  2.9785 -0.2660
   42CHL1   C13 3060   0.634   1.094   7.732  0.8239 -0.3029 -0.2686
   42CHL1   C18 3061   0.487   1.121   7.702 -0.6370 -0.2248  0.6347
   42CHL1  H18A 3062   0.429   1.026   7.699 -0.3941 -0.3580  0.1905
   42CHL1  H18B 3063   0.436   1.175   7.785 -0.0252  0.6324  0.4617
   42CHL1  H18C 3064   0.464   1.175   7.608 -0.6425  0.0494  0.7946
   42CHL1   C12 3065   0.722   1.223   7.720  0.7597 -0.5171 -0.0803
   42CHL1  H12A 3066   0.695   1.302   7.793 -0.3900  0.3582 -1.4044
   42CHL1  H12B 3067   0.830   1.201   7.732  1.2227  1.9836  0.9655
   42CHL1   C11 3068   0.718   1.284   7.576 -0.2085  0.0299  0.1663
   42CHL1  H11A 3069   0.615   1.326   7.562 -0.7692 -1.0300  0.9904
   42CHL1  H11B 3070   0.798   1.361   7.582  0.8666 -0.8824 -1.6719
   42CHL1    C9 3071   0.746   1.181   7.460  0.1401  0.1815 -0.2084
   42CHL1    H9 3072   0.853   1.156   7.475  0.3939  0.9514 -0.6821
   42CHL1   C10 3073   0.734   1.226   7.312  0.4585 -0.1257 -0.3434
   42CHL1   C19 3074   0.592   1.268   7.280  0.0695  0.1557  0.0846
   42CHL1  H19A 3075   0.580   1.316   7.181 -1.4173 -0.0011  0.1688
   42CHL1  H19B 3076   0.525   1.181   7.294 -2.5349  2.0603  0.2926
   42CHL1  H19C 3077   0.558   1.335   7.362 -1.3354 -1.5967  1.0048
   42CHL1    C1 3078   0.833   1.349   7.294 -0.2875  0.1319 -0.9635
   42CHL1   H1A 3079   0.798   1.435   7.356 -0.9117 -1.3059  0.7868
   42CHL1   H1B 3080   0.923   1.303   7.339 -1.1458 -0.4506  0.2148
   42CHL1    C2 3081   0.851   1.392   7.150 -0.5961  0.1138 -0.6948
   42CHL1   H2A 3082   0.924   1.476   7.153  1.3786 -1.4855 -1.1550
   42CHL1   H2B 3083   0.757   1.430   7.105 -0.6367 -0.9895 -1.5965
   42CHL1   C20 3084   0.590   1.058   8.001 -0.8433 -0.1260  0.2877
   42CHL1   H20 3085   0.480   1.063   7.985 -0.6918 -1.0864 -1.2249
   42CHL1   C21 3086   0.628   1.202   8.042  0.3304  0.7080 -0.0622
   42CHL1  H21A 3087   0.591   1.228   8.143 -0.0954 -0.5134  0.1164
   42CHL1  H21B 3088   0.575   1.271   7.972  2.2204  3.1362  0.7497
   42CHL1  H21C 3089   0.738   1.210   8.031  0.6318 -2.2111 -0.0917
   42CHL1   C22 3090   0.607   0.944   8.109 -0.6402 -0.7713  0.0335
   42CHL1  H22A 3091   0.567   0.846   8.076 -0.5546 -0.8305  0.1031
   42CHL1  H22B 3092   0.712   0.930   8.144 -1.2772 -1.3200  1.8375
   42CHL1   C23 3093   0.542   0.982   8.241  0.0869  0.7719 -0.3274
   42CHL1  H23A 3094   0.602   1.066   8.284  2.2801 -0.8531 -0.0577
   42CHL1  H23B 3095   0.437   1.017   8.230 -0.7616 -1.6611 -0.4813
   42CHL1   C24 3096   0.527   0.856   8.331  0.0681  0.2991 -0.5047
   42CHL1  H24A 3097   0.496   0.773   8.264 -2.8977  0.9361 -0.0686
   42CHL1  H24B 3098   0.627   0.833   8.372  0.2835  0.4276 -0.9547
   42CHL1   C25 3099   0.417   0.853   8.444  0.1511  0.0534  0.4091
   42CHL1   H25 3100   0.316   0.873   8.402  0.9785 -0.0981 -1.8019
   42CHL1   C26 3101   0.397   0.715   8.511  0.8693  0.1133  0.1446
   42CHL1  H26A 3102   0.402   0.631   8.438 -0.0387 -0.5357  0.8046
   42CHL1  H26B 3103   0.474   0.692   8.588  2.4302  1.3807 -0.9888
   42CHL1  H26C 3104   0.299   0.701   8.561  0.7828 -0.3795 -0.1541
   42CHL1   C27 3105   0.431   0.955   8.554 -0.1968 -0.0494  0.0229
   42CHL1  H27A 3106   0.431   1.062   8.524 -1.6024  0.0728  0.4018
   42CHL1  H27B 3107   0.536   0.954   8.591  0.7852  0.0588 -2.6037
   42CHL1  H27C 3108   0.376   0.944   8.650  1.8706 -4.7888  0.9636
   43CHL1    C3 3109   6.438   5.418   7.198  0.3691 -0.0988  0.6440
   43CHL1    H3 3110   6.330   5.441   7.206  0.8452  3.1752 -0.6758
   43CHL1    O3 3111   6.469   5.415   7.063  0.0529 -0.0835  0.1412
   43CHL1   H3' 3112   6.565   5.412   7.067  0.0321  0.4006  1.5342
   43CHL1    C4 3113   6.513   5.539   7.258  0.2362  0.4608  0.1737
   43CHL1   H4A 3114   6.623   5.536   7.242  0.0383 -1.6588 -1.2443
   43CHL1   H4B 3115   6.463   5.624   7.206 -1.6346 -0.4806  0.3371
   43CHL1    C5 3116   6.494   5.547   7.407 -1.7096 -0.0039 -0.2474
   43CHL1    C6 3117   6.450   5.662   7.464 -1.0145  0.0068  0.0484
   43CHL1    H6 3118   6.410   5.741   7.399 -2.0644  0.6422  1.4085
   43CHL1    C7 3119   6.430   5.671   7.610 -0.2843  0.1216  0.2233
   43CHL1   H7A 3120   6.467   5.768   7.649 -1.7067  1.3014 -1.2316
   43CHL1   H7B 3121   6.320   5.674   7.630 -0.3946  2.3485 -0.4458
   43CHL1    C8 3122   6.501   5.555   7.691  0.0203 -0.1843  0.2476
   43CHL1    H8 3123   6.610   5.580   7.690  0.3973 -1.6004  1.6655
   43CHL1   C14 3124   6.453   5.552   7.835  0.0521 -0.5699 -0.8996
   43CHL1   H14 3125   6.345   5.528   7.829 -0.5563  1.2486  1.2103
   43CHL1   C15 3126   6.475   5.675   7.922  0.5710  0.0721  0.1407
   43CHL1  H15A 3127   6.578   5.712   7.901  0.7240  0.3866  1.3643
   43CHL1  H15B 3128   6.417   5.766   7.898 -1.2029 -1.1754 -0.5281
   43CHL1   C16 3129   6.444   5.624   8.068 -0.7399  0.6224 -0.1929
   43CHL1  H16A 3130   6.522   5.671   8.132 -0.5055  0.0985 -0.0906
   43CHL1  H16B 3131   6.341   5.651   8.101 -0.8895 -1.3692  1.1633
   43CHL1   C17 3132   6.446   5.471   8.059 -0.0614 -0.3374  0.4519
   43CHL1   H17 3133   6.344   5.433   8.040  0.5374 -0.5321 -3.0153
   43CHL1   C13 3134   6.520   5.440   7.927  0.2247  0.0434 -0.0485
   43CHL1   C18 3135   6.668   5.463   7.939 -0.0381  0.4489  0.5496
   43CHL1  H18A 3136   6.690   5.549   8.006 -0.1415  1.3627 -0.5528
   43CHL1  H18B 3137   6.717   5.366   7.963  0.2809 -0.4899 -3.2616
   43CHL1  H18C 3138   6.704   5.492   7.838 -2.8084 -2.2039 -1.3644
   43CHL1   C12 3139   6.486   5.308   7.856  0.3916  0.3389  0.0701
   43CHL1  H12A 3140   6.524   5.230   7.926  0.0047 -0.4053 -0.5421
   43CHL1  H12B 3141   6.376   5.292   7.849  0.3881 -0.9134  2.1709
   43CHL1   C11 3142   6.537   5.301   7.714  0.4260  0.6094  0.6114
   43CHL1  H11A 3143   6.648   5.303   7.713  0.4878 -0.7584  1.6135
   43CHL1  H11B 3144   6.505   5.201   7.677  0.4747  0.6882  0.3578
   43CHL1    C9 3145   6.495   5.421   7.625  0.5104 -0.0482 -0.3615
   43CHL1    H9 3146   6.386   5.402   7.620  0.4591  0.1655 -0.0869
   43CHL1   C10 3147   6.540   5.418   7.485 -0.1203  0.7620  0.0462
   43CHL1   C19 3148   6.697   5.391   7.477 -0.0149  0.2288  0.4798
   43CHL1  H19A 3149   6.743   5.476   7.532 -2.5149  1.4889  0.8035
   43CHL1  H19B 3150   6.721   5.289   7.514  0.3687  0.3788  0.6401
   43CHL1  H19C 3151   6.738   5.403   7.375  0.3232  1.4958  0.7375
   43CHL1    C1 3152   6.470   5.298   7.415  0.7504 -0.8482 -0.5920
   43CHL1   H1A 3153   6.506   5.200   7.452 -0.4120 -0.8533  0.5999
   43CHL1   H1B 3154   6.362   5.295   7.440  1.1727 -3.0620  1.3212
   43CHL1    C2 3155   6.477   5.293   7.264 -0.4998 -0.1381  0.6120
   43CHL1   H2A 3156   6.422   5.204   7.225 -0.5307 -0.0504  0.4549
   43CHL1   H2B 3157   6.583   5.279   7.235 -0.3211  1.9506  0.1023
   43CHL1   C20 3158   6.501   5.418   8.196  0.5975 -0.2405 -0.3993
   43CHL1   H20 3159   6.604   5.457   8.213  1.5857 -1.6820 -2.5999
   43CHL1   C21 3160   6.499   5.264   8.191 -0.0493  0.7824  0.3991
   43CHL1  H21A 3161   6.593   5.234   8.141  0.3548 -1.6569  2.4454
   43CHL1  H21B 3162   6.408   5.229   8.139  0.1158  0.0500  0.5961
   43CHL1  H21C 3163   6.495   5.218   8.292  1.9474 -0.2681  0.0417
   43CHL1   C22 3164   6.415   5.480   8.311  0.0686 -0.1403  0.0413
   43CHL1  H22A 3165   6.463   5.450   8.406 -1.1600  0.6758  0.9575
   43CHL1  H22B 3166   6.423   5.591   8.308 -1.5380  0.0254 -3.5028
   43CHL1   C23 3167   6.270   5.440   8.321 -0.3643 -0.2385  0.1619
   43CHL1  H23A 3168   6.212   5.485   8.238 -0.3992  0.4595  0.5556
   43CHL1  H23B 3169   6.249   5.331   8.318  1.6725 -0.6905  0.9654
   43CHL1   C24 3170   6.209   5.503   8.454 -0.1400  0.8515  0.4342
   43CHL1  H24A 3171   6.108   5.457   8.455 -0.1821  0.7190 -2.2361
   43CHL1  H24B 3172   6.267   5.445   8.528  0.9914 -1.1647 -1.8759
   43CHL1   C25 3173   6.200   5.647   8.472 -0.6368 -0.4733 -0.6844
   43CHL1   H25 3174   6.305   5.683   8.467 -0.6718 -0.2197  0.2042
   43CHL1   C26 3175   6.122   5.717   8.367 -0.2183 -0.4528  0.1524
   43CHL1  H26A 3176   6.145   5.701   8.259 -0.6382  0.6438 -0.1155
   43CHL1  H26B 3177   6.013   5.712   8.387  0.0636  1.7866  2.8651
   43CHL1  H26C 3178   6.143   5.824   8.389 -0.3294 -0.7668  1.9281
   43CHL1   C27 3179   6.135   5.690   8.608  0.3140  0.2456 -0.1700
   43CHL1  H27A 3180   6.117   5.799   8.611  0.5430  0.2933 -0.4800
   43CHL1  H27B 3181   6.041   5.631   8.619  0.4912  0.1573  0.9290
   43CHL1  H27C 3182   6.205   5.655   8.686 -0.4528  0.6506  0.7117
   44CHL1    C3 3183   6.694   3.482   6.856 -0.7310 -0.3884  0.7053
   44CHL1    H3 3184   6.593   3.438   6.850 -0.4092 -1.0109 -0.6406
   44CHL1    O3 3185   6.738   3.495   6.717 -0.0756 -0.8498 -0.3350
   44CHL1   H3' 3186   6.796   3.571   6.725 -0.2532 -0.5820 -1.3999
   44CHL1    C4 3187   6.684   3.616   6.929 -0.2977  0.5714 -0.3214
   44CHL1   H4A 3188   6.783   3.666   6.934 -0.8268  1.5489  1.1587
   44CHL1   H4B 3189   6.613   3.679   6.871 -0.7793 -1.0632 -1.5860
   44CHL1    C5 3190   6.644   3.597   7.077  0.6359 -0.2652  0.7090
   44CHL1    C6 3191   6.531   3.647   7.130  0.7808 -0.1723 -0.4374
   44CHL1    H6 3192   6.450   3.695   7.073  0.7945  0.3717 -0.0034
   44CHL1    C7 3193   6.502   3.638   7.279 -0.3884  0.3207 -0.1335
   44CHL1   H7A 3194   6.477   3.740   7.313  0.0333 -0.4836  2.9139
   44CHL1   H7B 3195   6.406   3.583   7.293 -1.2147  1.3172 -1.6690
   44CHL1    C8 3196   6.619   3.593   7.370  0.2113 -0.5326  1.4844
   44CHL1    H8 3197   6.683   3.683   7.369 -1.4552  0.7831 -2.1953
   44CHL1   C14 3198   6.573   3.542   7.511  0.4414  0.2054  0.3246
   44CHL1   H14 3199   6.504   3.458   7.486 -0.5162  0.9118  0.5397
   44CHL1   C15 3200   6.479   3.642   7.591  0.1956  0.0950  0.6330
   44CHL1  H15A 3201   6.518   3.746   7.580 -0.1754  0.4786  2.5143
   44CHL1  H15B 3202   6.382   3.634   7.538  0.7215 -0.1270 -0.3274
   44CHL1   C16 3203   6.492   3.582   7.740 -0.3338  0.2540  0.6677
   44CHL1  H16A 3204   6.541   3.663   7.799 -0.2125 -0.6236  1.7996
   44CHL1  H16B 3205   6.395   3.538   7.769  0.0500 -0.4141  0.9750
   44CHL1   C17 3206   6.587   3.458   7.728  0.9456  0.3649 -0.4148
   44CHL1   H17 3207   6.515   3.380   7.695 -1.0618  1.8934  0.1579
   44CHL1   C13 3208   6.680   3.491   7.607  0.1445 -0.3450  0.4876
   44CHL1   C18 3209   6.778   3.606   7.641 -0.0377  0.4643 -0.1869
   44CHL1  H18A 3210   6.868   3.564   7.692  0.3991 -2.3517 -2.9259
   44CHL1  H18B 3211   6.826   3.648   7.550  2.6597  1.6738  1.6492
   44CHL1  H18C 3212   6.730   3.691   7.694 -2.6283 -0.7227 -0.4672
   44CHL1   C12 3213   6.754   3.374   7.543 -0.6763 -0.1809  0.4019
   44CHL1  H12A 3214   6.837   3.338   7.607 -2.2356 -2.3088  1.3376
   44CHL1  H12B 3215   6.672   3.299   7.533 -0.7574 -0.2036  1.2234
   44CHL1   C11 3216   6.798   3.419   7.402 -0.2577 -0.3376 -0.0717
   44CHL1  H11A 3217   6.874   3.500   7.405 -0.8585  0.4973 -3.4007
   44CHL1  H11B 3218   6.825   3.328   7.344  0.4461 -1.4173  1.8684
   44CHL1    C9 3219   6.692   3.477   7.308 -0.5103 -1.0455 -0.0144
   44CHL1    H9 3220   6.612   3.402   7.289 -0.7162 -0.6682 -0.7054
   44CHL1   C10 3221   6.743   3.511   7.154 -0.4071  0.0946 -0.1119
   44CHL1   C19 3222   6.880   3.588   7.157 -0.0946  0.6674  0.3687
   44CHL1  H19A 3223   6.920   3.618   7.058 -2.1446  0.6544 -0.5177
   44CHL1  H19B 3224   6.874   3.670   7.233 -0.4810  1.8254 -0.8767
   44CHL1  H19C 3225   6.954   3.519   7.202 -0.6315  0.3956  0.8585
   44CHL1    C1 3226   6.753   3.371   7.079  0.0915  0.5204 -0.0067
   44CHL1   H1A 3227   6.822   3.297   7.126 -2.2276 -0.8046  1.5550
   44CHL1   H1B 3228   6.651   3.326   7.075  0.1887 -0.0513  2.3549
   44CHL1    C2 3229   6.793   3.395   6.925 -0.2494 -0.5754 -0.0608
   44CHL1   H2A 3230   6.787   3.291   6.885 -0.0772 -1.1800  1.4134
   44CHL1   H2B 3231   6.897   3.432   6.928 -0.9690  1.5317  1.3616
   44CHL1   C20 3232   6.644   3.445   7.870 -0.3835  0.7211 -0.8360
   44CHL1   H20 3233   6.704   3.537   7.888 -1.0515  1.0206 -0.0574
   44CHL1   C21 3234   6.750   3.332   7.875  0.0348 -1.2357  0.0456
   44CHL1  H21A 3235   6.724   3.231   7.835 -0.2096 -0.4944 -1.7388
   44CHL1  H21B 3236   6.798   3.331   7.975 -0.3758  1.4890  0.3437
   44CHL1  H21C 3237   6.840   3.358   7.817  0.0537  2.3779  1.4473
   44CHL1   C22 3238   6.534   3.427   7.978 -0.0087  0.8461 -0.2568
   44CHL1  H22A 3239   6.463   3.513   7.984 -0.9922  0.0723 -0.5607
   44CHL1  H22B 3240   6.465   3.347   7.944  1.5691 -0.3684 -0.6851
   44CHL1   C23 3241   6.581   3.383   8.121  0.4148  0.4892 -0.2027
   44CHL1  H23A 3242   6.648   3.294   8.119 -0.5554 -0.4128  2.5913
   44CHL1  H23B 3243   6.640   3.464   8.169 -0.5269  1.2033 -0.2330
   44CHL1   C24 3244   6.463   3.334   8.193  0.1228 -0.0543 -0.5191
   44CHL1  H24A 3245   6.409   3.427   8.220  2.8100  1.1390  1.2229
   44CHL1  H24B 3246   6.411   3.254   8.137  1.3364 -2.1222  1.1411
   44CHL1   C25 3247   6.501   3.257   8.326 -0.5082  0.0179 -0.1736
   44CHL1   H25 3248   6.556   3.163   8.304  0.2644  0.1772  0.9572
   44CHL1   C26 3249   6.583   3.340   8.424 -0.0702  0.1538 -0.4463
   44CHL1  H26A 3250   6.538   3.439   8.447  0.7395  0.2797  0.7142
   44CHL1  H26B 3251   6.602   3.280   8.516  3.5820  0.4113 -0.8956
   44CHL1  H26C 3252   6.678   3.373   8.378  1.5251 -1.3079  1.6390
   44CHL1   C27 3253   6.366   3.210   8.391 -0.1344  0.2114  0.1219
   44CHL1  H27A 3254   6.327   3.305   8.433 -1.0237 -0.5222  1.0177
   44CHL1  H27B 3255   6.295   3.175   8.313 -0.5913  0.2460  0.5183
   44CHL1  H27C 3256   6.375   3.132   8.470 -2.1403  0.2335  0.4239
   45CHL1    C3 3257   1.362   0.899   6.834  0.3557 -0.3631 -0.4162
   45CHL1    H3 3258   1.268   0.841   6.840 -0.3467  0.6674 -1.0864
   45CHL1    O3 3259   1.377   0.923   6.694 -0.3879  0.4207 -0.1597
   45CHL1   H3' 3260   1.449   0.987   6.689  1.1253 -1.1635  0.5168
   45CHL1    C4 3261   1.340   1.032   6.910  0.2679 -0.0675 -0.5391
   45CHL1   H4A 3262   1.432   1.093   6.905  1.4394 -1.5457  1.6423
   45CHL1   H4B 3263   1.265   1.099   6.861  1.0075  0.0931 -1.4734
   45CHL1    C5 3264   1.306   0.995   7.055  0.1945 -0.4335 -0.5332
   45CHL1    C6 3265   1.189   1.030   7.114 -0.0989  0.1778  0.2786
   45CHL1    H6 3266   1.107   1.085   7.064  1.0452  1.7675  0.0794
   45CHL1    C7 3267   1.161   1.001   7.261 -0.2808  0.0666 -0.0755
   45CHL1   H7A 3268   1.112   1.089   7.307 -0.6053 -0.6124  0.9003
   45CHL1   H7B 3269   1.099   0.913   7.288  0.1270 -0.4125 -0.6578
   45CHL1    C8 3270   1.286   0.965   7.337 -0.0094  0.4875  0.0950
   45CHL1    H8 3271   1.345   1.059   7.343  2.5056 -1.0096 -0.1189
   45CHL1   C14 3272   1.261   0.922   7.486 -0.1315 -0.1706 -0.0188
   45CHL1   H14 3273   1.198   0.833   7.466 -0.6793  0.7295 -2.7633
   45CHL1   C15 3274   1.169   1.017   7.570 -0.2871  0.0237  0.2004
   45CHL1  H15A 3275   1.215   1.118   7.558  0.1248 -0.4566 -3.5048
   45CHL1  H15B 3276   1.064   1.006   7.535  0.1781 -1.1942 -0.8869
   45CHL1   C16 3277   1.191   0.977   7.711  0.0802  0.4372 -0.6554
   45CHL1  H16A 3278   1.242   1.067   7.751  0.2679  1.3392 -2.7921
   45CHL1  H16B 3279   1.101   0.930   7.758  0.0111  1.1902 -0.0125
   45CHL1   C17 3280   1.298   0.865   7.704 -0.3009 -0.4619  0.0027
   45CHL1   H17 3281   1.239   0.772   7.688 -0.0500 -0.5963 -0.1560
   45CHL1   C13 3282   1.376   0.883   7.575  0.1705  0.4071  0.7189
   45CHL1   C18 3283   1.465   1.008   7.584 -0.5398  0.2018 -0.1461
   45CHL1  H18A 3284   1.518   1.020   7.487  0.5615  1.8377  0.6197
   45CHL1  H18B 3285   1.408   1.102   7.604 -1.7964 -0.7461  0.8905
   45CHL1  H18C 3286   1.546   0.998   7.659 -0.6595 -1.6884 -0.2204
   45CHL1   C12 3287   1.454   0.766   7.508 -0.2138 -0.3903  0.2983
   45CHL1  H12A 3288   1.543   0.745   7.571  0.8253  0.2411 -0.9246
   45CHL1  H12B 3289   1.394   0.672   7.512 -1.2748  0.2375 -0.2958
   45CHL1   C11 3290   1.486   0.797   7.356  0.3621  0.1929  0.8464
   45CHL1  H11A 3291   1.574   0.865   7.357  1.4631 -1.1754  0.6109
   45CHL1  H11B 3292   1.522   0.699   7.318  2.4095  1.0021  0.5643
   45CHL1    C9 3293   1.374   0.863   7.264  0.8115  0.0891  0.4976
   45CHL1    H9 3294   1.305   0.778   7.242 -1.5120  2.2088 -0.9354
   45CHL1   C10 3295   1.414   0.908   7.121  0.2168 -0.1352 -0.6821
   45CHL1   C19 3296   1.532   1.007   7.138  0.5743  0.3542  0.1370
   45CHL1  H19A 3297   1.577   1.044   7.044 -0.1478  0.6560 -0.0913
   45CHL1  H19B 3298   1.516   1.093   7.207  1.4319 -0.2602  1.1344
   45CHL1  H19C 3299   1.619   0.949   7.176 -1.5703 -1.4900  2.6661
   45CHL1    C1 3300   1.468   0.795   7.033  0.4746 -0.1518  1.0604
   45CHL1   H1A 3301   1.568   0.756   7.061  2.5337  2.0479 -2.4320
   45CHL1   H1B 3302   1.402   0.706   7.042  0.4755 -0.4055 -0.9777
   45CHL1    C2 3303   1.487   0.834   6.887  0.3458  0.1299  0.4881
   45CHL1   H2A 3304   1.502   0.745   6.822 -3.1291 -0.6963  0.5689
   45CHL1   H2B 3305   1.574   0.897   6.862  1.0235 -0.3253  1.6282
   45CHL1   C20 3306   1.384   0.844   7.828 -0.1525  0.1970 -0.2493
   45CHL1   H20 3307   1.489   0.878   7.815 -0.7002  1.7456 -0.7663
   45CHL1   C21 3308   1.386   0.691   7.855 -0.4736  0.5852  0.2925
   45CHL1  H21A 3309   1.443   0.631   7.782  0.5073 -1.5995  2.6940
   45CHL1  H21B 3310   1.281   0.659   7.872 -1.8351  3.0877 -2.5429
   45CHL1  H21C 3311   1.442   0.666   7.948  0.5734  3.0281  0.3996
   45CHL1   C22 3312   1.345   0.923   7.956 -0.3212 -0.1312 -0.1713
   45CHL1  H22A 3313   1.346   1.033   7.940  2.8241 -0.1694 -0.8682
   45CHL1  H22B 3314   1.241   0.897   7.985  0.1521 -0.3451  1.4240
   45CHL1   C23 3315   1.452   0.912   8.071  0.4186  0.3679 -0.5698
   45CHL1  H23A 3316   1.451   0.809   8.113 -0.4580  1.1776  1.5193
   45CHL1  H23B 3317   1.548   0.927   8.016 -0.4534 -0.9277 -2.5400
   45CHL1   C24 3318   1.426   1.007   8.190 -0.7704 -1.1604 -0.0069
   45CHL1  H24A 3319   1.518   1.017   8.251 -2.1409 -2.8332  2.5259
   45CHL1  H24B 3320   1.388   1.106   8.156  1.1332 -0.5856 -0.5710
   45CHL1   C25 3321   1.328   0.944   8.292  0.4329 -0.7536  0.0788
   45CHL1   H25 3322   1.241   0.908   8.233  0.3247 -0.2487 -0.0715
   45CHL1   C26 3323   1.390   0.828   8.373  0.0747 -0.5342 -0.4904
   45CHL1  H26A 3324   1.306   0.784   8.430 -0.1623 -1.0829 -1.2566
   45CHL1  H26B 3325   1.423   0.751   8.301 -2.5087 -0.8143 -1.4620
   45CHL1  H26C 3326   1.470   0.873   8.437 -0.8889 -0.3769  0.6500
   45CHL1   C27 3327   1.274   1.047   8.396 -0.3990 -0.2874  0.3583
   45CHL1  H27A 3328   1.192   0.997   8.451  0.3602  0.4460  2.2168
   45CHL1  H27B 3329   1.345   1.081   8.474  0.5104  3.1289 -1.7456
   45CHL1  H27C 3330   1.238   1.142   8.352 -0.3573 -0.2246  0.4609
   46CHL1    C3 3331   1.041   2.969   7.121 -0.1732  0.0548 -0.2814
   46CHL1    H3 3332   1.144   2.944   7.154 -1.0287 -1.9362  1.0889
   46CHL1    O3 3333   1.044   2.979   6.976 -0.5887 -0.0100  0.0128
   46CHL1   H3' 3334   1.106   2.914   6.942 -0.6602 -1.1965  2.0072
   46CHL1    C4 3335   0.952   2.848   7.164  0.7816  0.8361  1.1949
   46CHL1   H4A 3336   0.849   2.867   7.128  1.3151  0.4619 -0.5944
   46CHL1   H4B 3337   0.980   2.762   7.100  0.3416  1.8070 -0.3421
   46CHL1    C5 3338   0.948   2.831   7.314 -0.3828 -0.4924 -0.0084
   46CHL1    C6 3339   0.997   2.722   7.371  1.1440 -0.2554  0.3673
   46CHL1    H6 3340   1.022   2.635   7.308  1.2400 -0.1094  0.2003
   46CHL1    C7 3341   1.000   2.697   7.514  0.3862 -0.8380 -0.2424
   46CHL1   H7A 3342   0.950   2.602   7.541  1.0761 -1.3106 -0.6195
   46CHL1   H7B 3343   1.103   2.711   7.552 -0.7260  0.9277  2.4603
   46CHL1    C8 3344   0.917   2.805   7.594 -0.0251 -0.0378  0.8502
   46CHL1    H8 3345   0.810   2.784   7.574  0.0458  1.0717 -0.8782
   46CHL1   C14 3346   0.961   2.799   7.743 -0.2013  0.5500  0.6108
   46CHL1   H14 3347   1.066   2.835   7.740  0.5301 -1.4449  0.6321
   46CHL1   C15 3348   0.971   2.657   7.803  0.6449  0.3857  0.1086
   46CHL1  H15A 3349   0.879   2.605   7.769 -0.3410  2.4770 -0.6359
   46CHL1  H15B 3350   1.063   2.607   7.766  0.7409  1.1976 -0.8184
   46CHL1   C16 3351   0.961   2.686   7.948 -0.8206 -0.3163 -0.6817
   46CHL1  H16A 3352   0.870   2.639   7.989 -0.6440  1.5530  2.0421
   46CHL1  H16B 3353   1.053   2.657   8.004 -0.8626 -0.8913 -0.9037
   46CHL1   C17 3354   0.936   2.843   7.970 -0.3908  0.2841  0.1606
   46CHL1   H17 3355   1.035   2.892   7.980  1.2141 -2.3488 -1.6884
   46CHL1   C13 3356   0.876   2.887   7.835  0.1370 -0.4799 -0.7138
   46CHL1   C18 3357   0.722   2.846   7.838  0.7914  0.0641  0.2347
   46CHL1  H18A 3358   0.712   2.740   7.870  1.3794 -0.2149 -0.4623
   46CHL1  H18B 3359   0.658   2.909   7.904 -1.0707 -0.6281 -0.8348
   46CHL1  H18C 3360   0.679   2.842   7.736 -0.5190  1.0556  0.7250
   46CHL1   C12 3361   0.900   3.036   7.795  0.0173 -0.0371  0.2802
   46CHL1  H12A 3362   0.827   3.108   7.839  0.3499  1.5728 -1.7039
   46CHL1  H12B 3363   1.003   3.067   7.824 -0.3660  0.3094  1.3260
   46CHL1   C11 3364   0.878   3.060   7.640  0.3838  0.0532  0.2273
   46CHL1  H11A 3365   0.767   3.065   7.633  0.3028  0.4126  1.6544
   46CHL1  H11B 3366   0.915   3.160   7.610  0.0892  0.1780  0.2824
   46CHL1    C9 3367   0.942   2.949   7.544  0.3419 -0.4191 -0.3387
   46CHL1    H9 3368   1.052   2.962   7.552  0.5134 -1.8628  0.0861
   46CHL1   C10 3369   0.908   2.962   7.393 -0.4310  0.2379 -0.0976
   46CHL1   C19 3370   0.756   2.965   7.364  0.9326 -0.1185 -0.6307
   46CHL1  H19A 3371   0.707   3.044   7.425 -0.4962 -0.6267 -1.0964
   46CHL1  H19B 3372   0.742   2.979   7.255 -1.5093 -2.6780 -0.7614
   46CHL1  H19C 3373   0.707   2.868   7.385 -0.9464  0.5608 -1.6883
   46CHL1    C1 3374   0.981   3.081   7.325  1.1660 -0.0870 -0.0955
   46CHL1   H1A 3375   0.929   3.173   7.362  0.9902 -0.0840 -0.3463
   46CHL1   H1B 3376   1.087   3.085   7.358  0.6112  0.8362  1.7740
   46CHL1    C2 3377   0.981   3.092   7.175  0.6411 -0.0173  0.2166
   46CHL1   H2A 3378   1.044   3.179   7.146  0.6330 -0.1051 -0.0671
   46CHL1   H2B 3379   0.877   3.105   7.137  0.5242 -3.3587 -0.9213
   46CHL1   C20 3380   0.863   2.870   8.102  0.4820 -0.9535 -0.2679
   46CHL1   H20 3381   0.763   2.821   8.100 -1.0900  1.7933  2.8282
   46CHL1   C21 3382   0.830   3.020   8.122  0.0673 -0.0295  0.0242
   46CHL1  H21A 3383   0.736   3.052   8.072 -1.2063  2.1923  3.4125
   46CHL1  H21B 3384   0.915   3.087   8.098  0.5629 -0.8508 -0.5537
   46CHL1  H21C 3385   0.808   3.041   8.229 -0.2046  1.2745 -0.2642
   46CHL1   C22 3386   0.933   2.804   8.224 -0.6184  0.1511 -0.5343
   46CHL1  H22A 3387   0.968   2.702   8.197  0.3780  0.4578 -0.4633
   46CHL1  H22B 3388   1.027   2.860   8.245 -0.3710  0.0441 -1.3362
   46CHL1   C23 3389   0.861   2.792   8.361  0.1332  0.2613  0.3559
   46CHL1  H23A 3390   0.829   2.892   8.398  2.3673  0.7238  1.1413
   46CHL1  H23B 3391   0.773   2.729   8.335  0.1496  0.7110 -0.8458
   46CHL1   C24 3392   0.946   2.734   8.478 -0.3805  0.4501 -0.1034
   46CHL1  H24A 3393   0.919   2.627   8.478 -1.8302  0.7843 -1.3782
   46CHL1  H24B 3394   1.054   2.723   8.454 -0.4798 -0.4643 -0.1732
   46CHL1   C25 3395   0.925   2.804   8.619  0.2917 -0.1182 -0.1390
   46CHL1   H25 3396   0.979   2.732   8.684 -0.3369  0.5830  1.1844
   46CHL1   C26 3397   0.994   2.938   8.647  0.0490 -0.6975  0.6488
   46CHL1  H26A 3398   0.971   3.015   8.570  0.3667 -1.5674 -0.3412
   46CHL1  H26B 3399   0.972   2.973   8.750  1.2131 -1.7938  1.3018
   46CHL1  H26C 3400   1.104   2.928   8.637 -0.0201 -1.6046  0.6797
   46CHL1   C27 3401   0.774   2.810   8.657 -0.1397 -0.4700  0.7836
   46CHL1  H27A 3402   0.748   2.811   8.765 -1.6085  1.4755  0.4795
   46CHL1  H27B 3403   0.730   2.903   8.614  0.5851 -1.4411 -2.3386
   46CHL1  H27C 3404   0.725   2.717   8.619  1.9194 -0.5342 -2.0787
   47CHL1    C3 3405   0.933   1.779   6.922 -0.3348  0.0825 -0.7863
   47CHL1    H3 3406   0.943   1.670   6.942 -2.6134 -0.2956 -1.3946
   47CHL1    O3 3407   0.967   1.811   6.791  0.3148 -0.4025 -0.0491
   47CHL1   H3' 3408   0.933   1.738   6.739  0.1125  0.4883 -1.2120
   47CHL1    C4 3409   0.781   1.803   6.969  0.3771 -0.6759  0.1255
   47CHL1   H4A 3410   0.757   1.905   6.933 -1.4276 -1.4459 -0.9874
   47CHL1   H4B 3411   0.719   1.735   6.906  1.0045 -0.8947 -0.2649
   47CHL1    C5 3412   0.756   1.781   7.115 -0.0715  0.3127 -0.2744
   47CHL1    C6 3413   0.648   1.704   7.155 -0.5864 -0.0766  0.0704
   47CHL1    H6 3414   0.596   1.659   7.068  0.6866 -1.5313  0.0217
   47CHL1    C7 3415   0.603   1.673   7.294 -0.1397  0.2084 -0.0952
   47CHL1   H7A 3416   0.494   1.690   7.305  0.0220  0.1227  1.8433
   47CHL1   H7B 3417   0.609   1.563   7.310  0.9949  0.1962 -0.4911
   47CHL1    C8 3418   0.689   1.746   7.404 -0.3580  0.5858  0.2796
   47CHL1    H8 3419   0.636   1.842   7.420 -1.1090 -0.1725  2.7395
   47CHL1   C14 3420   0.699   1.671   7.540 -0.0150  0.3188  0.1015
   47CHL1   H14 3421   0.765   1.585   7.513  1.3781  1.0875  0.9485
   47CHL1   C15 3422   0.569   1.624   7.589 -0.1959 -0.0237 -0.7832
   47CHL1  H15A 3423   0.490   1.701   7.582  2.3961  2.9441  0.3952
   47CHL1  H15B 3424   0.539   1.524   7.550  0.4150 -0.9908  1.0891
   47CHL1   C16 3425   0.584   1.597   7.742 -0.1363 -0.6155 -0.0628
   47CHL1  H16A 3426   0.508   1.657   7.797  0.6208 -0.8960  1.3432
   47CHL1  H16B 3427   0.575   1.492   7.776  0.1462 -0.9038 -0.8694
   47CHL1   C17 3428   0.726   1.651   7.766  0.6331 -0.0501  0.1186
   47CHL1   H17 3429   0.792   1.563   7.748  0.6185  0.3548 -2.2611
   47CHL1   C13 3430   0.763   1.751   7.649 -0.2537  0.3496 -0.9768
   47CHL1   C18 3431   0.688   1.889   7.672  0.0242  0.6086 -0.4228
   47CHL1  H18A 3432   0.587   1.875   7.716 -1.0965  1.5789 -2.5489
   47CHL1  H18B 3433   0.747   1.946   7.747 -0.7321  1.6971 -0.6387
   47CHL1  H18C 3434   0.680   1.953   7.581 -0.5250  3.3909  1.4566
   47CHL1   C12 3435   0.911   1.771   7.616  0.2901 -0.1602 -0.2882
   47CHL1  H12A 3436   0.971   1.829   7.689  0.6442 -3.3461  2.2061
   47CHL1  H12B 3437   0.964   1.673   7.612  1.4167  0.4249 -0.1921
   47CHL1   C11 3438   0.918   1.838   7.475 -0.4682 -0.8936  0.1541
   47CHL1  H11A 3439   0.890   1.943   7.493  1.3215 -0.7849  2.9082
   47CHL1  H11B 3440   1.024   1.830   7.443  0.0083  1.3605  1.0171
   47CHL1    C9 3441   0.836   1.773   7.362 -0.4750  0.0448  0.0386
   47CHL1    H9 3442   0.874   1.670   7.347  0.7572  0.7291 -1.9774
   47CHL1   C10 3443   0.847   1.846   7.219  0.0921  0.3752  0.1930
   47CHL1   C19 3444   0.810   1.998   7.227 -0.4605  0.1894  0.0602
   47CHL1  H19A 3445   0.701   2.013   7.245 -0.5445  1.2135 -1.1635
   47CHL1  H19B 3446   0.866   2.051   7.308  1.7132 -1.7602 -0.0773
   47CHL1  H19C 3447   0.834   2.034   7.125  0.8227 -2.1465 -0.5260
   47CHL1    C1 3448   0.992   1.833   7.168 -1.0910  0.0229  0.6819
   47CHL1   H1A 3449   1.060   1.897   7.227  0.7721 -0.3420 -0.9441
   47CHL1   H1B 3450   1.028   1.728   7.172 -1.7848 -0.2477  0.1357
   47CHL1    C2 3451   1.021   1.864   7.018 -0.5592 -0.2209 -0.4895
   47CHL1   H2A 3452   1.128   1.838   7.000 -0.3588 -1.8784  2.3007
   47CHL1   H2B 3453   0.999   1.972   7.004 -1.0134 -0.1102  0.9110
   47CHL1   C20 3454   0.741   1.689   7.912  0.0434 -0.0752 -0.4874
   47CHL1   H20 3455   0.668   1.772   7.919 -2.1815 -1.7998 -1.6141
   47CHL1   C21 3456   0.878   1.741   7.946  0.4359  0.0539  0.1468
   47CHL1  H21A 3457   0.953   1.664   7.918  2.7901  2.5829 -0.9712
   47CHL1  H21B 3458   0.891   1.760   8.055 -1.8966 -0.5091  0.5818
   47CHL1  H21C 3459   0.896   1.831   7.883 -0.5067  0.5191  0.5086
   47CHL1   C22 3460   0.700   1.578   8.017  0.7911 -0.5368  0.4945
   47CHL1  H22A 3461   0.608   1.523   7.988  1.7838 -0.9206 -2.1746
   47CHL1  H22B 3462   0.777   1.498   8.016  0.1833 -1.1339  0.5011
   47CHL1   C23 3463   0.680   1.643   8.153  0.4185  0.5893 -0.0949
   47CHL1  H23A 3464   0.777   1.664   8.202 -0.7648  2.0776  1.7302
   47CHL1  H23B 3465   0.636   1.741   8.128 -0.7661 -0.6903 -3.8182
   47CHL1   C24 3466   0.592   1.562   8.249  0.1898  0.2543  0.8462
   47CHL1  H24A 3467   0.485   1.585   8.233  0.7015  2.6851  0.6363
   47CHL1  H24B 3468   0.602   1.451   8.238  1.4018  0.5197 -1.3427
   47CHL1   C25 3469   0.608   1.594   8.393 -0.4398 -0.1286  0.1167
   47CHL1   H25 3470   0.713   1.579   8.426 -1.1119 -0.8287  2.1275
   47CHL1   C26 3471   0.577   1.740   8.435  0.7786 -0.1360 -0.2968
   47CHL1  H26A 3472   0.659   1.809   8.404  1.7522 -0.9499  0.4077
   47CHL1  H26B 3473   0.489   1.775   8.376  0.7965 -1.6828 -1.3047
   47CHL1  H26C 3474   0.560   1.741   8.544 -0.1229 -3.9428 -0.2529
   47CHL1   C27 3475   0.530   1.494   8.477  0.3674 -0.2004 -0.2102
   47CHL1  H27A 3476   0.557   1.502   8.585  1.1068 -0.7852 -0.3468
   47CHL1  H27B 3477   0.420   1.504   8.468  0.3808  0.3784  0.2224
   47CHL1  H27C 3478   0.558   1.393   8.441  1.2266  0.2594 -0.8642
   48CHL1    C3 3479   5.815   5.164   6.428 -0.2350  0.3705  0.8773
   48CHL1    H3 3480   5.874   5.081   6.473  0.2504 -0.5083 -1.2280
   48CHL1    O3 3481   5.876   5.197   6.304  0.4136  0.2706 -0.1505
   48CHL1   H3' 3482   5.969   5.185   6.323 -0.0837  0.3024  2.7692
   48CHL1    C4 3483   5.665   5.125   6.414 -0.3869 -0.1947  0.7747
   48CHL1   H4A 3484   5.623   5.203   6.348 -0.8298 -0.9485  0.1448
   48CHL1   H4B 3485   5.679   5.030   6.358  0.6361 -0.1620  0.9444
   48CHL1    C5 3486   5.595   5.106   6.556 -0.0600  0.0221  0.1631
   48CHL1    C6 3487   5.536   4.991   6.582  1.0897  0.4489  0.3768
   48CHL1    H6 3488   5.529   4.905   6.513  1.4552 -1.9077  3.1111
   48CHL1    C7 3489   5.446   4.967   6.706 -0.1797 -0.0656  0.4103
   48CHL1   H7A 3490   5.351   4.919   6.673  1.5684 -3.7905  0.2960
   48CHL1   H7B 3491   5.500   4.899   6.775 -0.2474 -0.7360 -0.1821
   48CHL1    C8 3492   5.421   5.109   6.781  0.0101  0.7631  0.6513
   48CHL1    H8 3493   5.351   5.160   6.712  0.8032  2.8342  1.3028
   48CHL1   C14 3494   5.372   5.086   6.924  0.5460  0.1306 -0.6551
   48CHL1   H14 3495   5.458   5.043   6.978  0.9729 -0.3663 -1.7034
   48CHL1   C15 3496   5.253   4.980   6.946  0.0797 -0.3643 -0.0936
   48CHL1  H15A 3497   5.180   4.990   6.864 -0.5568  2.4030  0.7277
   48CHL1  H15B 3498   5.306   4.882   6.945  0.7310 -0.0259  0.3114
   48CHL1   C16 3499   5.200   5.023   7.092 -0.1043  0.1656  0.0325
   48CHL1  H16A 3500   5.096   5.057   7.072 -0.2735 -0.0650  0.5160
   48CHL1  H16B 3501   5.195   4.936   7.161  1.3306  0.5334  0.6384
   48CHL1   C17 3502   5.293   5.146   7.138  0.4200  0.4228  0.3068
   48CHL1   H17 3503   5.374   5.095   7.193 -1.9359  0.1541  3.8834
   48CHL1   C13 3504   5.345   5.214   7.008  0.5206  0.0014 -0.3060
   48CHL1   C18 3505   5.231   5.291   6.950 -0.1146 -0.0972  0.0192
   48CHL1  H18A 3506   5.133   5.238   6.942 -1.1965  0.8081  4.3409
   48CHL1  H18B 3507   5.206   5.379   7.012  0.0034  0.0812 -0.1865
   48CHL1  H18C 3508   5.272   5.319   6.851 -0.6797 -4.3274 -1.6321
   48CHL1   C12 3509   5.479   5.288   7.018 -0.6995 -0.1111 -0.0601
   48CHL1  H12A 3510   5.455   5.383   7.069 -0.6276  0.7852 -1.6551
   48CHL1  H12B 3511   5.543   5.211   7.068 -1.1938 -0.7728 -0.4232
   48CHL1   C11 3512   5.541   5.322   6.880  0.0458  0.0674 -0.2754
   48CHL1  H11A 3513   5.480   5.399   6.826 -0.4345  0.2763  0.5446
   48CHL1  H11B 3514   5.646   5.353   6.897 -0.3055  0.4119  1.5257
   48CHL1    C9 3515   5.547   5.198   6.792  0.1444  0.4545  0.5777
   48CHL1    H9 3516   5.623   5.135   6.843 -0.3586  1.5718  2.8653
   48CHL1   C10 3517   5.606   5.230   6.646  0.0308  0.1632 -0.4508
   48CHL1   C19 3518   5.518   5.338   6.572  0.0855  0.4813  0.6542
   48CHL1  H19A 3519   5.548   5.361   6.468 -1.3903 -1.6159 -0.3101
   48CHL1  H19B 3520   5.411   5.309   6.562  0.0203  1.4028 -2.3551
   48CHL1  H19C 3521   5.528   5.434   6.627  0.9761 -0.1685  1.6588
   48CHL1    C1 3522   5.758   5.267   6.650  0.1578  0.2120  0.0850
   48CHL1   H1A 3523   5.770   5.364   6.704  0.9290  1.7177 -2.5752
   48CHL1   H1B 3524   5.808   5.190   6.712  0.3633  1.4253  1.4770
   48CHL1    C2 3525   5.824   5.290   6.517 -0.4523  0.4413 -0.3375
   48CHL1   H2A 3526   5.931   5.317   6.524 -0.4630  0.2023  0.9185
   48CHL1   H2B 3527   5.782   5.376   6.460  1.4831  1.1044 -0.8312
   48CHL1   C20 3528   5.229   5.224   7.256  0.4305 -0.3161 -0.7455
   48CHL1   H20 3529   5.138   5.272   7.214  0.0603 -0.2344  0.1354
   48CHL1   C21 3530   5.311   5.344   7.305 -0.0131  0.9653  0.2735
   48CHL1  H21A 3531   5.267   5.376   7.402 -1.9482 -1.9439  0.4610
   48CHL1  H21B 3532   5.309   5.419   7.223 -1.2111  2.1088  1.2898
   48CHL1  H21C 3533   5.412   5.312   7.336 -0.8620 -2.2995 -0.0288
   48CHL1   C22 3534   5.184   5.136   7.382  0.5512  0.0593  0.5106
   48CHL1  H22A 3535   5.137   5.047   7.335 -0.0988  0.9713 -0.6212
   48CHL1  H22B 3536   5.276   5.114   7.440  0.1205 -0.2705  1.0810
   48CHL1   C23 3537   5.083   5.206   7.469 -0.1231  0.0823 -0.2654
   48CHL1  H23A 3538   5.117   5.308   7.499  0.8478 -0.1784 -0.4405
   48CHL1  H23B 3539   4.993   5.215   7.404  0.8220 -0.3415 -1.6764
   48CHL1   C24 3540   5.042   5.120   7.592 -0.1647  1.0056 -0.0997
   48CHL1  H24A 3541   5.020   5.017   7.556  1.8703  0.8159 -0.9145
   48CHL1  H24B 3542   5.134   5.097   7.650  0.0940  0.3211 -0.7602
   48CHL1   C25 3543   4.930   5.181   7.679  0.1972 -1.0490  0.0106
   48CHL1   H25 3544   4.845   5.209   7.613 -0.0672 -1.7364  0.0445
   48CHL1   C26 3545   4.888   5.082   7.787 -0.6231 -0.4916  0.1123
   48CHL1  H26A 3546   4.975   5.080   7.857 -0.3056  0.5075 -0.2310
   48CHL1  H26B 3547   4.805   5.129   7.845 -0.2529  0.1844  0.0999
   48CHL1  H26C 3548   4.878   4.980   7.744  0.0801 -1.0371  1.1802
   48CHL1   C27 3549   4.966   5.317   7.738  0.1857 -0.3934 -0.2184
   48CHL1  H27A 3550   4.885   5.368   7.796 -0.7095 -0.8441 -1.0423
   48CHL1  H27B 3551   5.063   5.322   7.791  0.6342 -0.0158 -1.0564
   48CHL1  H27C 3552   4.985   5.385   7.652  3.1768 -0.5263  0.2599
   49CHL1    C3 3553   2.455   0.175   6.798  0.2780  0.3119 -0.2292
   49CHL1    H3 3554   2.541   0.245   6.797  2.1257 -1.8427 -1.6503
   49CHL1    O3 3555   2.416   0.124   6.674  0.3701 -0.0349  0.1005
   49CHL1   H3' 3556   2.384   0.035   6.692 -0.2691 -0.4118 -2.4695
   49CHL1    C4 3557   2.487   0.056   6.890 -0.3052  0.2817 -0.3029
   49CHL1   H4A 3558   2.421  -0.032   6.873  0.5067 -0.6272  0.9580
   49CHL1   H4B 3559   2.586   0.021   6.851 -0.5988  2.9532 -3.9525
   49CHL1    C5 3560   2.491   0.072   7.044  0.3451  0.1349 -0.1345
   49CHL1    C6 3561   2.598   0.047   7.123 -0.4702 -0.2438 -0.0851
   49CHL1    H6 3562   2.683  -0.006   7.078  0.3347  0.9145  0.0166
   49CHL1    C7 3563   2.596   0.068   7.269 -0.2343 -0.7263  0.0583
   49CHL1   H7A 3564   2.625  -0.028   7.316 -0.5302 -1.5171 -1.3294
   49CHL1   H7B 3565   2.658   0.157   7.294 -0.2555 -0.2503 -1.4731
   49CHL1    C8 3566   2.459   0.078   7.338 -0.2089  0.0050  0.0289
   49CHL1    H8 3567   2.408  -0.020   7.333 -1.0120  0.3489  1.0837
   49CHL1   C14 3568   2.473   0.130   7.479  0.5593  0.2543  1.1500
   49CHL1   H14 3569   2.532   0.223   7.463  0.4292 -0.2544 -3.7567
   49CHL1   C15 3570   2.560   0.051   7.578  0.0047 -0.0837 -0.9983
   49CHL1  H15A 3571   2.517  -0.051   7.587 -2.6786  1.1266  1.3591
   49CHL1  H15B 3572   2.668   0.041   7.554  1.2599 -0.5132  3.8546
   49CHL1   C16 3573   2.531   0.114   7.716 -0.0125  0.4910 -0.0890
   49CHL1  H16A 3574   2.514   0.045   7.801  1.0285  1.6094  1.0757
   49CHL1  H16B 3575   2.617   0.178   7.746 -0.7288  1.0422  0.8104
   49CHL1   C17 3576   2.414   0.211   7.682  0.2210  0.6696  0.1753
   49CHL1   H17 3577   2.456   0.309   7.652  0.6273  0.4051 -0.1196
   49CHL1   C13 3578   2.340   0.162   7.552 -0.2007  0.1961 -0.1026
   49CHL1   C18 3579   2.261   0.033   7.581 -0.5723  0.4588  0.0482
   49CHL1  H18A 3580   2.219   0.010   7.480  0.6596 -0.5869 -0.2546
   49CHL1  H18B 3581   2.320  -0.055   7.616 -0.1441  0.6736 -0.1314
   49CHL1  H18C 3582   2.181   0.056   7.655 -1.7237  0.2238 -1.0750
   49CHL1   C12 3583   2.262   0.268   7.472 -0.1907 -0.1357 -0.4382
   49CHL1  H12A 3584   2.158   0.285   7.507 -0.1350 -1.0001  0.1779
   49CHL1  H12B 3585   2.322   0.360   7.484 -1.0275  0.6345 -1.8504
   49CHL1   C11 3586   2.250   0.223   7.325  0.1134 -0.0982 -0.4342
   49CHL1  H11A 3587   2.190   0.131   7.335  0.1243  0.0098  0.6935
   49CHL1  H11B 3588   2.199   0.295   7.257 -2.2651 -1.6648 -0.4053
   49CHL1    C9 3589   2.381   0.184   7.254 -0.3270  0.0288 -0.5759
   49CHL1    H9 3590   2.440   0.277   7.243  0.1412 -0.4285 -2.2005
   49CHL1   C10 3591   2.370   0.148   7.097 -0.2677  0.1974  0.3589
   49CHL1   C19 3592   2.255   0.052   7.081  0.2305 -0.5431  0.2521
   49CHL1  H19A 3593   2.233   0.006   6.983  0.0727 -2.6519  1.2313
   49CHL1  H19B 3594   2.263  -0.034   7.151 -1.3209  0.2110  1.4138
   49CHL1  H19C 3595   2.158   0.105   7.090 -1.2706 -1.8431 -5.0749
   49CHL1    C1 3596   2.339   0.277   7.009 -0.0617  0.5479 -0.2031
   49CHL1   H1A 3597   2.241   0.317   7.042 -0.9636  0.2139 -2.3406
   49CHL1   H1B 3598   2.420   0.351   7.031 -0.0295  0.1971  0.9265
   49CHL1    C2 3599   2.337   0.256   6.850  0.0472  1.2244 -0.3521
   49CHL1   H2A 3600   2.342   0.356   6.801  0.7125  1.1101 -0.5305
   49CHL1   H2B 3601   2.240   0.209   6.823 -0.4617  1.6256  0.7240
   49CHL1   C20 3602   2.326   0.228   7.810  0.1766 -0.1735 -0.2245
   49CHL1   H20 3603   2.284   0.129   7.835  1.4748 -0.5714  0.4840
   49CHL1   C21 3604   2.230   0.341   7.777  0.1003  0.0454  0.4063
   49CHL1  H21A 3605   2.188   0.386   7.870 -2.8673  1.9195 -1.6430
   49CHL1  H21B 3606   2.142   0.313   7.715  0.4726 -0.7415  0.2238
   49CHL1  H21C 3607   2.278   0.419   7.714 -1.6605 -0.2596 -1.4544
   49CHL1   C22 3608   2.408   0.257   7.942 -0.1765  0.6759 -0.5817
   49CHL1  H22A 3609   2.492   0.187   7.958 -1.3144 -0.5845  0.1145
   49CHL1  H22B 3610   2.449   0.360   7.947 -2.8926  1.8505 -0.6077
   49CHL1   C23 3611   2.323   0.237   8.067  0.7650  0.6693 -0.2612
   49CHL1  H23A 3612   2.373   0.282   8.156 -1.2386  1.0786  0.7329
   49CHL1  H23B 3613   2.226   0.291   8.065 -0.0171 -0.5758  1.3298
   49CHL1   C24 3614   2.282   0.090   8.094 -0.1274  0.0157 -0.9234
   49CHL1  H24A 3615   2.221   0.048   8.011 -4.3036 -3.0614  3.2217
   49CHL1  H24B 3616   2.383   0.044   8.103  1.6519  3.7460  0.4794
   49CHL1   C25 3617   2.238   0.072   8.247  0.0884 -0.6264 -0.1712
   49CHL1   H25 3618   2.160   0.150   8.262  3.5379  2.7000  2.3274
   49CHL1   C26 3619   2.162  -0.059   8.260  0.3496 -0.4495  0.1985
   49CHL1  H26A 3620   2.079  -0.061   8.186 -0.2972 -1.1146  0.9131
   49CHL1  H26B 3621   2.230  -0.144   8.244 -0.3992 -1.1077  0.4302
   49CHL1  H26C 3622   2.125  -0.083   8.362  0.8759 -1.5604  0.1351
   49CHL1   C27 3623   2.354   0.089   8.346  0.0259  0.1783 -0.3217
   49CHL1  H27A 3624   2.316   0.074   8.449 -0.7748 -0.8331 -0.7443
   49CHL1  H27B 3625   2.432   0.017   8.315 -1.1567  0.1232 -3.5368
   49CHL1  H27C 3626   2.390   0.194   8.354 -1.5584  0.7599 -0.3374
   50CHL1    C3 3627   3.927   1.358   6.899 -0.3715  0.6240  0.6291
   50CHL1    H3 3628   4.003   1.438   6.887  1.2339 -0.9206  0.1576
   50CHL1    O3 3629   3.884   1.314   6.768 -0.3726  0.8581  0.2622
   50CHL1   H3' 3630   3.963   1.279   6.727 -0.1973 -0.6392  1.8010
   50CHL1    C4 3631   3.985   1.235   6.964  0.0333 -0.0281 -0.5150
   50CHL1   H4A 3632   3.908   1.155   6.968 -0.1931  0.1773 -0.6998
   50CHL1   H4B 3633   4.068   1.190   6.904  1.6345  1.3915  0.5442
   50CHL1    C5 3634   4.016   1.265   7.110  0.6353 -0.4304  0.8931
   50CHL1    C6 3635   4.138   1.250   7.153  0.1515 -0.9382  0.0324
   50CHL1    H6 3636   4.224   1.235   7.087  2.5547  1.6927  2.3239
   50CHL1    C7 3637   4.184   1.272   7.291  0.0891  0.4156  0.6874
   50CHL1   H7A 3638   4.243   1.187   7.330  0.3288  0.3694  0.2252
   50CHL1   H7B 3639   4.251   1.360   7.288  1.9913 -0.9931 -2.0940
   50CHL1    C8 3640   4.068   1.287   7.384 -0.0119  0.2598 -0.1851
   50CHL1    H8 3641   4.031   1.187   7.415  3.6213 -0.5498  2.1361
   50CHL1   C14 3642   4.114   1.348   7.517 -0.9169 -0.8269 -0.8501
   50CHL1   H14 3643   4.149   1.448   7.483 -0.7750 -0.1406  1.1724
   50CHL1   C15 3644   4.240   1.284   7.592  0.2896  0.2986  0.1691
   50CHL1  H15A 3645   4.213   1.178   7.610  1.8420 -0.4538 -1.6052
   50CHL1  H15B 3646   4.331   1.286   7.529 -1.0118 -2.4061 -1.9748
   50CHL1   C16 3647   4.239   1.374   7.716 -0.0046 -0.4577  0.6538
   50CHL1  H16A 3648   4.270   1.305   7.797  0.3231 -2.3123 -0.9701
   50CHL1  H16B 3649   4.317   1.454   7.715 -0.7080  0.2486  1.1876
   50CHL1   C17 3650   4.096   1.435   7.731 -0.6220  0.8942  0.5038
   50CHL1   H17 3651   4.102   1.545   7.717 -0.2356  0.7039 -1.0062
   50CHL1   C13 3652   4.005   1.368   7.623 -1.1682 -0.1562  0.3848
   50CHL1   C18 3653   3.945   1.240   7.672 -0.2858  0.1546 -0.2332
   50CHL1  H18A 3654   3.880   1.243   7.762  0.0959 -4.0218  0.3800
   50CHL1  H18B 3655   3.891   1.181   7.594  2.2999 -0.0732 -1.9637
   50CHL1  H18C 3656   4.017   1.164   7.711 -0.1159  0.3927 -0.0799
   50CHL1   C12 3657   3.911   1.462   7.549  0.0875  0.9857 -0.0823
   50CHL1  H12A 3658   3.831   1.499   7.617  0.3334  0.6006  0.4213
   50CHL1  H12B 3659   3.969   1.548   7.508  0.2901  1.0041  0.2368
   50CHL1   C11 3660   3.845   1.397   7.429  0.2391  0.0914  0.1881
   50CHL1  H11A 3661   3.799   1.300   7.459  1.7825 -0.0827  2.2378
   50CHL1  H11B 3662   3.772   1.467   7.383  0.4465  1.8825  2.4115
   50CHL1    C9 3663   3.957   1.370   7.328  0.4546  1.2945  0.2881
   50CHL1    H9 3664   3.993   1.472   7.305  0.2760  1.3551  0.2764
   50CHL1   C10 3665   3.901   1.317   7.193 -0.0102 -0.3339 -0.0004
   50CHL1   C19 3666   3.794   1.205   7.205 -0.4750  0.0431 -0.5984
   50CHL1  H19A 3667   3.699   1.259   7.224  0.0278  0.4195  1.0112
   50CHL1  H19B 3668   3.769   1.141   7.117  1.0351  0.1962 -1.1673
   50CHL1  H19C 3669   3.822   1.138   7.289  2.0707 -0.9133 -2.0844
   50CHL1    C1 3670   3.842   1.437   7.119  0.7120 -0.4469 -0.1611
   50CHL1   H1A 3671   3.752   1.460   7.180 -0.1102 -2.4372 -0.5608
   50CHL1   H1B 3672   3.915   1.521   7.114  0.2971  0.2096  2.8805
   50CHL1    C2 3673   3.802   1.411   6.974 -0.1585 -0.0515 -0.0044
   50CHL1   H2A 3674   3.771   1.503   6.921  1.8296  0.6321 -0.0313
   50CHL1   H2B 3675   3.717   1.339   6.973 -1.7653  1.6182  2.7010
   50CHL1   C20 3676   4.048   1.430   7.873  0.3785  0.4055  0.6687
   50CHL1   H20 3677   4.039   1.328   7.914  0.8996  0.8910  2.0425
   50CHL1   C21 3678   3.904   1.499   7.881  0.1889 -0.0614  0.2944
   50CHL1  H21A 3679   3.837   1.440   7.816  0.9301  0.3681 -0.8945
   50CHL1  H21B 3680   3.913   1.603   7.842  0.7708  0.0650  0.7536
   50CHL1  H21C 3681   3.861   1.481   7.982 -1.8539  0.7899 -0.3591
   50CHL1   C22 3682   4.146   1.507   7.963  0.5316 -0.7998 -0.6887
   50CHL1  H22A 3683   4.242   1.451   7.956  1.2180  0.4345 -1.7769
   50CHL1  H22B 3684   4.161   1.607   7.917 -2.0233  0.0231  0.1199
   50CHL1   C23 3685   4.107   1.516   8.114  0.1310 -0.0754 -0.8028
   50CHL1  H23A 3686   4.013   1.566   8.142 -0.3478 -2.1614  1.6650
   50CHL1  H23B 3687   4.089   1.412   8.149  1.0724  0.2860  0.8250
   50CHL1   C24 3688   4.224   1.583   8.202  0.2854  0.3427 -0.7120
   50CHL1  H24A 3689   4.314   1.518   8.196  0.1274  0.1230 -0.7174
   50CHL1  H24B 3690   4.239   1.684   8.158 -0.0316  0.8852  0.3932
   50CHL1   C25 3691   4.194   1.595   8.351  0.0973 -0.1638  0.1782
   50CHL1   H25 3692   4.287   1.650   8.378  0.0255  1.7654 -2.9586
   50CHL1   C26 3693   4.073   1.689   8.382 -0.3105  0.2084 -0.2041
   50CHL1  H26A 3694   4.077   1.779   8.317  1.4432  0.5917  0.3790
   50CHL1  H26B 3695   3.987   1.619   8.378  1.2508 -2.1665  3.1238
   50CHL1  H26C 3696   4.085   1.727   8.486  1.3465  1.7107 -0.8995
   50CHL1   C27 3697   4.197   1.466   8.438 -0.1502 -0.0509 -0.4194
   50CHL1  H27A 3698   4.293   1.415   8.414  0.4513  0.7046  0.3189
   50CHL1  H27B 3699   4.200   1.483   8.548  1.7682 -2.1786 -0.0679
   50CHL1  H27C 3700   4.107   1.404   8.416  0.6552 -1.5414  0.3160
   51CHL1    C3 3701   2.651   6.340   7.007 -0.2597 -0.4977 -0.0696
   51CHL1    H3 3702   2.567   6.269   6.996 -2.8694  1.9591  2.1613
   51CHL1    O3 3703   2.698   6.392   6.883 -0.3473 -0.3633 -0.5779
   51CHL1   H3' 3704   2.793   6.401   6.891 -0.5169  0.0294  1.3040
   51CHL1    C4 3705   2.606   6.461   7.094  0.7463  0.5894 -0.5701
   51CHL1   H4A 3706   2.686   6.537   7.100  0.4583  0.8752 -0.2774
   51CHL1   H4B 3707   2.520   6.495   7.033  0.9181 -0.3667 -1.3775
   51CHL1    C5 3708   2.555   6.420   7.235  0.3021 -0.5985 -0.7118
   51CHL1    C6 3709   2.433   6.452   7.279 -0.3374  0.3432 -0.1699
   51CHL1    H6 3710   2.371   6.523   7.221  0.0430  0.7093 -0.1310
   51CHL1    C7 3711   2.368   6.411   7.408 -0.3250 -0.5536  0.2748
   51CHL1   H7A 3712   2.310   6.499   7.444 -1.7140 -0.5884 -1.7139
   51CHL1   H7B 3713   2.308   6.320   7.390  0.6954 -0.9368 -1.3916
   51CHL1    C8 3714   2.478   6.373   7.510 -0.5076  0.3835 -0.4022
   51CHL1    H8 3715   2.542   6.460   7.536 -0.8409  0.0809  1.5908
   51CHL1   C14 3716   2.418   6.307   7.640  0.7792 -0.4087  0.6726
   51CHL1   H14 3717   2.369   6.215   7.602  0.1029 -0.4317  1.5733
   51CHL1   C15 3718   2.305   6.385   7.716 -0.7161 -0.0398 -0.6690
   51CHL1  H15A 3719   2.338   6.491   7.730 -0.0714 -0.0669 -1.8357
   51CHL1  H15B 3720   2.212   6.378   7.656 -0.4361  0.1008 -1.1274
   51CHL1   C16 3721   2.301   6.305   7.843  0.0353  0.8588  0.1404
   51CHL1  H16A 3722   2.318   6.376   7.926  0.8370  0.9843 -0.1334
   51CHL1  H16B 3723   2.202   6.254   7.855 -1.6304  3.6870 -0.6708
   51CHL1   C17 3724   2.417   6.196   7.847  0.1158  0.2115  0.0443
   51CHL1   H17 3725   2.370   6.101   7.816 -1.6898  0.9374  0.4070
   51CHL1   C13 3726   2.517   6.248   7.739  0.4523  0.1006 -0.1766
   51CHL1   C18 3727   2.604   6.352   7.794 -0.3824  0.1861  0.1073
   51CHL1  H18A 3728   2.687   6.305   7.851 -0.0689 -1.9305 -1.9024
   51CHL1  H18B 3729   2.663   6.409   7.720  2.1415  2.0830  3.3406
   51CHL1  H18C 3730   2.546   6.427   7.852  1.1677  0.8561  0.8329
   51CHL1   C12 3731   2.591   6.142   7.658  0.5524 -0.0775  0.7180
   51CHL1  H12A 3732   2.663   6.078   7.713 -0.7861 -0.7328  1.7578
   51CHL1  H12B 3733   2.518   6.071   7.614  0.0945  0.7323  0.1375
   51CHL1   C11 3734   2.673   6.204   7.542  0.6928  0.0842  0.0672
   51CHL1  H11A 3735   2.749   6.272   7.586 -1.1779  1.2619  1.6376
   51CHL1  H11B 3736   2.725   6.123   7.487 -0.3102 -1.1261  0.8558
   51CHL1    C9 3737   2.575   6.270   7.444 -0.8035  0.1383  0.2506
   51CHL1    H9 3738   2.504   6.195   7.402 -0.7308  0.3384 -0.2322
   51CHL1   C10 3739   2.651   6.341   7.323 -0.4267  0.3157  0.3674
   51CHL1   C19 3740   2.765   6.426   7.386  0.2255 -0.7603 -0.0543
   51CHL1  H19A 3741   2.844   6.371   7.442  0.5973  0.4768  0.6714
   51CHL1  H19B 3742   2.812   6.487   7.305 -0.7485 -0.9569 -0.7843
   51CHL1  H19C 3743   2.730   6.494   7.466 -0.2998 -2.1295  0.9235
   51CHL1    C1 3744   2.719   6.229   7.230 -0.2678  0.1205 -0.2368
   51CHL1   H1A 3745   2.802   6.178   7.282  0.8381  0.1279 -1.9116
   51CHL1   H1B 3746   2.653   6.144   7.201 -0.4093  0.0885  0.1824
   51CHL1    C2 3747   2.772   6.275   7.095  0.5156  0.1420  0.2835
   51CHL1   H2A 3748   2.806   6.189   7.034 -1.0070 -0.2859 -0.0146
   51CHL1   H2B 3749   2.847   6.357   7.105 -0.5659  1.2968 -0.6866
   51CHL1   C20 3750   2.479   6.183   7.988  0.0785  0.0952  0.0424
   51CHL1   H20 3751   2.529   6.276   8.021 -1.1466  1.4347 -1.7270
   51CHL1   C21 3752   2.583   6.062   7.976  0.1709 -0.3419  0.4281
   51CHL1  H21A 3753   2.609   6.020   8.076  0.3009 -2.2636 -0.3736
   51CHL1  H21B 3754   2.679   6.086   7.926 -0.1267 -0.4765 -0.2142
   51CHL1  H21C 3755   2.534   5.987   7.911  1.5094 -1.8971  1.1387
   51CHL1   C22 3756   2.369   6.142   8.091 -0.3267 -0.5073  0.3686
   51CHL1  H22A 3757   2.277   6.204   8.086 -0.3904 -0.5280  1.1385
   51CHL1  H22B 3758   2.329   6.041   8.067 -2.9905 -0.0304  2.3560
   51CHL1   C23 3759   2.400   6.157   8.240 -0.4693  0.7187  0.5604
   51CHL1  H23A 3760   2.489   6.098   8.268 -0.3514  1.3600  1.6090
   51CHL1  H23B 3761   2.437   6.256   8.275  2.9636  0.0008 -0.7459
   51CHL1   C24 3762   2.285   6.092   8.317 -0.2689 -0.2908  0.5073
   51CHL1  H24A 3763   2.184   6.129   8.289 -1.2947 -2.6099  0.8548
   51CHL1  H24B 3764   2.266   5.988   8.282 -2.9131  0.3736 -0.2751
   51CHL1   C25 3765   2.290   6.099   8.474  0.3737  0.0216 -0.3796
   51CHL1   H25 3766   2.387   6.065   8.517  0.8930  2.5880  0.6425
   51CHL1   C26 3767   2.282   6.248   8.525  0.2885 -0.0908 -0.0763
   51CHL1  H26A 3768   2.369   6.313   8.506  0.0412  0.2754  0.0401
   51CHL1  H26B 3769   2.202   6.297   8.465  0.8857  0.8314 -0.1299
   51CHL1  H26C 3770   2.255   6.249   8.632 -1.1105  0.1294 -0.4076
   51CHL1   C27 3771   2.174   6.011   8.529 -0.4208 -0.8649  0.6328
   51CHL1  H27A 3772   2.185   5.901   8.522  0.4743 -0.7177 -0.7675
   51CHL1  H27B 3773   2.162   6.040   8.636  3.6939 -0.0318  1.0317
   51CHL1  H27C 3774   2.079   6.034   8.476  0.3502  1.0159 -0.0285
   52CHL1    C3 3775   4.332   6.455   6.967  1.3325 -0.9022 -0.1918
   52CHL1    H3 3776   4.423   6.404   7.006  1.7579  0.7787  1.1040
   52CHL1    O3 3777   4.318   6.435   6.826 -0.4221 -0.2821  0.5085
   52CHL1   H3' 3778   4.243   6.490   6.801  1.3449  2.9921  1.7058
   52CHL1    C4 3779   4.207   6.409   7.040  0.0966 -0.5389  0.9021
   52CHL1   H4A 3780   4.115   6.444   6.988 -0.8331 -3.5043  0.3250
   52CHL1   H4B 3781   4.205   6.300   7.016 -0.8413 -0.2345 -0.4766
   52CHL1    C5 3782   4.217   6.426   7.188  0.2078  0.6168  0.9074
   52CHL1    C6 3783   4.214   6.318   7.270  0.1673 -0.6218 -0.5293
   52CHL1    H6 3784   4.190   6.220   7.227  0.2032 -0.9205  0.1162
   52CHL1    C7 3785   4.212   6.338   7.424 -0.7527  0.1126 -0.1963
   52CHL1   H7A 3786   4.138   6.274   7.478 -0.5261  1.2311  1.5053
   52CHL1   H7B 3787   4.306   6.295   7.465 -2.7989 -1.8264  2.9597
   52CHL1    C8 3788   4.196   6.485   7.471  0.0966 -0.0028  0.6138
   52CHL1    H8 3789   4.091   6.519   7.454  0.2465  1.1198  1.7819
   52CHL1   C14 3790   4.230   6.496   7.616 -0.0935 -1.1591 -0.0498
   52CHL1   H14 3791   4.330   6.449   7.615 -1.0071 -3.1984 -0.6348
   52CHL1   C15 3792   4.154   6.419   7.724  0.4440  0.4636 -0.1821
   52CHL1  H15A 3793   4.045   6.433   7.706  0.6010  1.4970 -0.3886
   52CHL1  H15B 3794   4.188   6.313   7.725  1.1019  0.6688  0.5207
   52CHL1   C16 3795   4.181   6.493   7.861  0.0414  0.6992  0.1803
   52CHL1  H16A 3796   4.084   6.536   7.896 -0.0382  0.0120  0.8232
   52CHL1  H16B 3797   4.218   6.429   7.944  2.3522 -0.8856 -1.9308
   52CHL1   C17 3798   4.277   6.609   7.819 -0.2508 -0.0311  0.1808
   52CHL1   H17 3799   4.378   6.564   7.808  0.7309  1.9228  0.7101
   52CHL1   C13 3800   4.236   6.642   7.673  0.2209  0.2744  0.1707
   52CHL1   C18 3801   4.100   6.712   7.678 -0.0467  1.0545  1.0402
   52CHL1  H18A 3802   4.051   6.704   7.579  0.2956  0.8423  0.8856
   52CHL1  H18B 3803   4.023   6.671   7.746 -0.2000 -0.5344 -0.0253
   52CHL1  H18C 3804   4.118   6.819   7.701  2.6173  0.6843  1.0151
   52CHL1   C12 3805   4.349   6.723   7.594  0.1265 -0.4152 -0.1486
   52CHL1  H12A 3806   4.354   6.832   7.617  0.4550  0.0524 -2.2750
   52CHL1  H12B 3807   4.447   6.678   7.622 -0.2491 -0.6866  0.7752
   52CHL1   C11 3808   4.321   6.714   7.443 -0.6820  0.0617 -0.5548
   52CHL1  H11A 3809   4.226   6.765   7.415 -1.7088 -0.8285  1.1081
   52CHL1  H11B 3810   4.406   6.760   7.389 -0.7489  0.5712 -0.2278
   52CHL1    C9 3811   4.284   6.576   7.385  0.1696  0.9012 -0.5945
   52CHL1    H9 3812   4.379   6.518   7.392 -0.8475 -0.5918  2.8467
   52CHL1   C10 3813   4.242   6.565   7.227  0.0988  0.0621 -0.8036
   52CHL1   C19 3814   4.107   6.647   7.205 -0.3504  0.6748  0.0654
   52CHL1  H19A 3815   4.103   6.745   7.255 -1.8307 -0.5926  2.6422
   52CHL1  H19B 3816   4.090   6.656   7.096  1.3059 -2.2648 -0.5571
   52CHL1  H19C 3817   4.026   6.581   7.243  0.3908 -0.1642  0.2472
   52CHL1    C1 3818   4.349   6.630   7.146  0.0259  0.2599 -0.1006
   52CHL1   H1A 3819   4.346   6.740   7.157 -0.9115  0.2875 -0.5649
   52CHL1   H1B 3820   4.448   6.599   7.188  0.2941 -1.3675 -1.8044
   52CHL1    C2 3821   4.346   6.606   6.991 -0.6931 -0.3025  0.0729
   52CHL1   H2A 3822   4.435   6.657   6.948  0.3347 -1.6124  0.5595
   52CHL1   H2B 3823   4.252   6.656   6.961 -2.3476 -2.6333  1.0322
   52CHL1   C20 3824   4.291   6.737   7.916  0.2621  0.2412 -0.7923
   52CHL1   H20 3825   4.214   6.815   7.895 -0.5872  0.6132  2.9803
   52CHL1   C21 3826   4.430   6.797   7.890 -0.2197  0.1199 -0.1773
   52CHL1  H21A 3827   4.505   6.717   7.905 -1.2733 -0.7326  0.6695
   52CHL1  H21B 3828   4.455   6.872   7.969 -1.6479  0.3309  0.1071
   52CHL1  H21C 3829   4.452   6.846   7.793  0.9607  1.4716  0.7204
   52CHL1   C22 3830   4.269   6.697   8.069 -0.5308  0.5636 -0.4713
   52CHL1  H22A 3831   4.259   6.796   8.119  0.5025  0.9817 -1.0518
   52CHL1  H22B 3832   4.177   6.641   8.095 -0.2774  1.2659  2.2261
   52CHL1   C23 3833   4.396   6.626   8.132 -0.4347  0.3661  0.2337
   52CHL1  H23A 3834   4.425   6.544   8.064 -2.6026  0.5122 -0.9680
   52CHL1  H23B 3835   4.475   6.704   8.128 -0.0155 -0.1121 -2.2012
   52CHL1   C24 3836   4.359   6.573   8.272 -0.0189  0.1131 -0.4566
   52CHL1  H24A 3837   4.349   6.662   8.338  4.0606  0.9989 -0.7934
   52CHL1  H24B 3838   4.266   6.512   8.277  0.7080 -0.9254  2.3670
   52CHL1   C25 3839   4.483   6.501   8.340  0.2974  0.0866  0.5013
   52CHL1   H25 3840   4.570   6.559   8.302  0.3022 -1.4592 -2.0040
   52CHL1   C26 3841   4.463   6.514   8.496  0.1105  0.9283  0.2674
   52CHL1  H26A 3842   4.479   6.621   8.520  0.8673  0.6788  0.9293
   52CHL1  H26B 3843   4.357   6.496   8.523  0.2196  0.7075  0.5531
   52CHL1  H26C 3844   4.537   6.456   8.555 -1.4678  0.3724  1.8139
   52CHL1   C27 3845   4.510   6.358   8.286  0.1507 -0.5278  0.0615
   52CHL1  H27A 3846   4.430   6.289   8.320 -0.2928  0.9196  2.1632
   52CHL1  H27B 3847   4.533   6.354   8.177  0.9074 -1.7839  0.2446
   52CHL1  H27C 3848   4.604   6.324   8.335  1.8241 -1.9842 -3.7026
   53CHL1    C3 3849   0.546   4.951   7.218 -0.3149 -0.3161  0.3670
   53CHL1    H3 3850   0.468   5.026   7.243 -0.4064 -1.0008  2.3415
   53CHL1    O3 3851   0.576   4.963   7.083 -0.0712 -0.0025  0.0637
   53CHL1   H3' 3852   0.645   4.901   7.060 -0.8369 -0.0663 -2.2979
   53CHL1    C4 3853   0.674   4.978   7.316 -0.7308  0.0433  0.0149
   53CHL1   H4A 3854   0.756   4.915   7.276  1.7965  2.8613  0.4130
   53CHL1   H4B 3855   0.706   5.082   7.292  3.4004 -0.9198  0.6561
   53CHL1    C5 3856   0.651   4.947   7.463  0.5141  0.8425  0.1078
   53CHL1    C6 3857   0.684   5.034   7.558 -0.1741  0.0927 -0.3139
   53CHL1    H6 3858   0.735   5.124   7.522  0.0884  0.3705  0.7154
   53CHL1    C7 3859   0.680   5.002   7.710  0.0822  0.9190  0.2755
   53CHL1   H7A 3860   0.773   5.034   7.762  0.5620 -0.7723  0.4987
   53CHL1   H7B 3861   0.593   5.062   7.747 -2.4205 -1.1073 -1.9464
   53CHL1    C8 3862   0.648   4.846   7.742  0.5519 -0.2556 -0.4971
   53CHL1    H8 3863   0.743   4.788   7.732 -0.5835 -2.2419 -0.3751
   53CHL1   C14 3864   0.593   4.842   7.888 -0.1232 -0.1053 -0.3358
   53CHL1   H14 3865   0.503   4.905   7.873 -1.3990 -1.6809  0.4270
   53CHL1   C15 3866   0.671   4.909   8.006  0.0493 -0.4467 -0.4137
   53CHL1  H15A 3867   0.779   4.884   7.999 -0.0897 -1.0461 -0.4687
   53CHL1  H15B 3868   0.655   5.019   8.002  4.2068  0.2989 -0.8993
   53CHL1   C16 3869   0.616   4.837   8.136 -0.4059  0.7268  0.5998
   53CHL1  H16A 3870   0.693   4.767   8.175  0.6901  0.6081 -1.6186
   53CHL1  H16B 3871   0.584   4.916   8.207 -2.1045  0.4672  0.1661
   53CHL1   C17 3872   0.505   4.742   8.082  0.4566 -0.0466  0.3578
   53CHL1   H17 3873   0.422   4.816   8.076  0.6750  0.0691 -3.2495
   53CHL1   C13 3874   0.542   4.708   7.935 -0.6335 -0.6838  0.2303
   53CHL1   C18 3875   0.650   4.601   7.948 -0.3748  0.1540  0.7201
   53CHL1  H18A 3876   0.699   4.587   7.849  0.7850 -0.7295  1.3964
   53CHL1  H18B 3877   0.724   4.608   8.030 -1.1938 -3.2415  1.8910
   53CHL1  H18C 3878   0.593   4.507   7.965  0.7217 -0.2513  2.3056
   53CHL1   C12 3879   0.427   4.675   7.838 -0.1637 -0.6888 -0.3317
   53CHL1  H12A 3880   0.375   4.582   7.870 -1.4020  1.1347  3.5216
   53CHL1  H12B 3881   0.352   4.756   7.839 -0.1535 -0.6725 -0.6392
   53CHL1   C11 3882   0.476   4.662   7.691 -0.2567  0.2913 -0.5591
   53CHL1  H11A 3883   0.551   4.582   7.672 -0.9634 -0.1239 -1.6807
   53CHL1  H11B 3884   0.384   4.648   7.631 -0.6404 -2.9375  0.5642
   53CHL1    C9 3885   0.537   4.797   7.644 -0.2342  0.2718  1.0864
   53CHL1    H9 3886   0.447   4.862   7.646 -1.0547 -0.7344 -0.7756
   53CHL1   C10 3887   0.582   4.805   7.494  0.1245  0.5486  0.3308
   53CHL1   C19 3888   0.692   4.695   7.473  0.3397 -0.0460  0.0169
   53CHL1  H19A 3889   0.779   4.710   7.540 -0.2735  3.2612  0.2379
   53CHL1  H19B 3890   0.643   4.596   7.470 -0.5485  0.4046 -1.5402
   53CHL1  H19C 3891   0.728   4.709   7.369 -2.6795  2.4246 -0.8593
   53CHL1    C1 3892   0.463   4.777   7.397  0.2152  0.0637  0.2499
   53CHL1   H1A 3893   0.439   4.669   7.391  0.7459 -0.1589  1.8368
   53CHL1   H1B 3894   0.370   4.828   7.430  0.0025  0.0259 -0.2726
   53CHL1    C2 3895   0.491   4.812   7.248  0.8016 -0.3117  0.3839
   53CHL1   H2A 3896   0.399   4.812   7.185  0.9193 -0.2367  0.2108
   53CHL1   H2B 3897   0.562   4.734   7.212  1.0516 -0.4297  1.1254
   53CHL1   C20 3898   0.462   4.621   8.171  0.1193  0.0116 -0.1018
   53CHL1   H20 3899   0.503   4.527   8.128  1.0738  0.6365 -0.5841
   53CHL1   C21 3900   0.312   4.599   8.153  0.1783 -0.2104 -0.9005
   53CHL1  H21A 3901   0.285   4.629   8.050 -1.9701  0.0494 -0.3320
   53CHL1  H21B 3902   0.249   4.657   8.225  1.3484  1.2435 -0.9950
   53CHL1  H21C 3903   0.293   4.490   8.163  1.3360 -0.3002  0.7055
   53CHL1   C22 3904   0.504   4.625   8.318 -0.2349  0.3388 -0.3349
   53CHL1  H22A 3905   0.614   4.634   8.328  0.1126 -2.2436 -1.2281
   53CHL1  H22B 3906   0.447   4.703   8.374  1.7022 -0.1746  2.5637
   53CHL1   C23 3907   0.466   4.489   8.388  0.0233  0.7852  0.7133
   53CHL1  H23A 3908   0.358   4.466   8.383  0.4084 -1.2148  0.7091
   53CHL1  H23B 3909   0.514   4.401   8.341  1.2681  1.6068  0.3836
   53CHL1   C24 3910   0.521   4.483   8.530  0.4339  0.3228 -0.1031
   53CHL1  H24A 3911   0.623   4.524   8.541  0.4358 -0.2926  2.8842
   53CHL1  H24B 3912   0.469   4.568   8.578  0.0576 -1.2163  2.3495
   53CHL1   C25 3913   0.499   4.351   8.594 -0.2119 -0.2959  0.0201
   53CHL1   H25 3914   0.395   4.322   8.569 -1.0407  2.1090  0.4233
   53CHL1   C26 3915   0.583   4.233   8.556 -0.8437  0.4462 -0.3527
   53CHL1  H26A 3916   0.683   4.240   8.603 -1.0375 -0.0547  0.1515
   53CHL1  H26B 3917   0.543   4.133   8.585  1.0819  0.1777  1.6047
   53CHL1  H26C 3918   0.611   4.227   8.449 -1.1386 -1.2625 -0.3610
   53CHL1   C27 3919   0.483   4.350   8.745  0.6900 -0.8968 -0.2012
   53CHL1  H27A 3920   0.580   4.371   8.796 -0.2508  2.8941  0.3303
   53CHL1  H27B 3921   0.413   4.434   8.767 -0.0672 -1.2827 -1.0538
   53CHL1  H27C 3922   0.444   4.250   8.773  0.0810 -1.9471 -4.2047
   54CHL1    C3 3923   1.493   5.683   7.159  0.0831 -0.1112  0.8445
   54CHL1    H3 3924   1.403   5.628   7.124  0.2075  1.0995 -1.6071
   54CHL1    O3 3925   1.546   5.738   7.041  0.1981  0.3758 -0.5778
   54CHL1   H3' 3926   1.562   5.663   6.984 -0.7792 -0.8536  0.6980
   54CHL1    C4 3927   1.455   5.784   7.262 -0.1228  0.3499 -0.0426
   54CHL1   H4A 3928   1.540   5.853   7.283  1.0448 -1.0586 -0.0412
   54CHL1   H4B 3929   1.376   5.852   7.223 -2.2237 -0.9956  1.6101
   54CHL1    C5 3930   1.402   5.729   7.393 -0.1996  0.7344 -0.0259
   54CHL1    C6 3931   1.280   5.765   7.443 -0.0911 -0.6227 -0.3953
   54CHL1    H6 3932   1.210   5.835   7.395 -1.5283 -2.0990 -0.5378
   54CHL1    C7 3933   1.236   5.712   7.576 -0.0109 -0.1201  0.8230
   54CHL1   H7A 3934   1.196   5.797   7.635  2.0365  1.0842  0.5658
   54CHL1   H7B 3935   1.150   5.645   7.554 -2.5969  3.0922  0.2961
   54CHL1    C8 3936   1.344   5.641   7.659  1.0602  0.6715  0.4749
   54CHL1    H8 3937   1.408   5.719   7.704 -0.5153  1.1976  1.8761
   54CHL1   C14 3938   1.276   5.556   7.766 -1.0076  0.4982 -0.2496
   54CHL1   H14 3939   1.224   5.473   7.713 -2.3119  0.0636  1.5771
   54CHL1   C15 3940   1.170   5.623   7.856 -0.2561  0.0107  0.7452
   54CHL1  H15A 3941   1.210   5.726   7.871  2.2724 -0.3350 -2.4974
   54CHL1  H15B 3942   1.079   5.631   7.794  0.6586  1.4935 -0.4823
   54CHL1   C16 3943   1.171   5.539   7.983 -0.0265 -0.9811 -0.7116
   54CHL1  H16A 3944   1.172   5.617   8.063 -0.8178  0.0901 -1.6988
   54CHL1  H16B 3945   1.078   5.481   7.999  0.4157 -1.0158  2.3304
   54CHL1   C17 3946   1.281   5.432   7.968  0.0253 -0.1895 -0.4517
   54CHL1   H17 3947   1.237   5.346   7.914  0.3489 -0.0746 -0.8994
   54CHL1   C13 3948   1.378   5.481   7.859  0.3256  0.1671 -0.2406
   54CHL1   C18 3949   1.472   5.585   7.924  0.1720  0.6968  0.6447
   54CHL1  H18A 3950   1.416   5.654   7.991  0.4291  3.1568 -1.5175
   54CHL1  H18B 3951   1.544   5.542   7.997  0.8579  0.4336 -0.1722
   54CHL1  H18C 3952   1.534   5.638   7.849 -1.9543 -0.4098 -2.1141
   54CHL1   C12 3953   1.459   5.378   7.778 -0.4461 -0.3362 -0.2359
   54CHL1  H12A 3954   1.543   5.330   7.832  0.8785  2.3984  0.2776
   54CHL1  H12B 3955   1.389   5.296   7.748 -1.4575  0.1255  0.7800
   54CHL1   C11 3956   1.522   5.449   7.660  0.5756 -0.7633  0.1528
   54CHL1  H11A 3957   1.593   5.525   7.700 -0.0734 -0.8685  1.5875
   54CHL1  H11B 3958   1.566   5.367   7.599 -0.1322 -1.7631  0.9462
   54CHL1    C9 3959   1.430   5.540   7.571  0.1415  0.3428 -0.8528
   54CHL1    H9 3960   1.347   5.483   7.524 -0.8427  1.7919 -0.9112
   54CHL1   C10 3961   1.499   5.619   7.454  1.0409 -0.3095 -0.2634
   54CHL1   C19 3962   1.628   5.679   7.500 -0.1106 -0.5847 -0.2357
   54CHL1  H19A 3963   1.704   5.599   7.509 -0.5700 -0.8831  1.5445
   54CHL1  H19B 3964   1.661   5.752   7.423 -0.3687 -1.0271 -0.7679
   54CHL1  H19C 3965   1.605   5.742   7.589  2.0244  1.5474 -1.1092
   54CHL1    C1 3966   1.535   5.514   7.347 -0.3504  0.3614 -0.1283
   54CHL1   H1A 3967   1.606   5.439   7.387 -0.3147  1.1892  1.4579
   54CHL1   H1B 3968   1.439   5.465   7.320  0.1331 -0.2850 -0.7122
   54CHL1    C2 3969   1.588   5.578   7.220  0.0053 -0.4838  0.7922
   54CHL1   H2A 3970   1.600   5.499   7.143 -0.6583  0.3125 -0.1507
   54CHL1   H2B 3971   1.689   5.623   7.221 -0.4851  0.6362  2.1353
   54CHL1   C20 3972   1.333   5.390   8.109  0.3302 -0.9235  0.5855
   54CHL1   H20 3973   1.377   5.481   8.156 -1.1223 -0.8927  1.9760
   54CHL1   C21 3974   1.445   5.279   8.107 -0.0572 -0.3636 -0.7752
   54CHL1  H21A 3975   1.475   5.247   8.209  0.2588  1.8903 -0.1050
   54CHL1  H21B 3976   1.540   5.308   8.057  1.1315  0.6971  1.9180
   54CHL1  H21C 3977   1.409   5.197   8.041  0.4719 -2.4631  1.4234
   54CHL1   C22 3978   1.225   5.354   8.213  1.0489 -0.3150 -1.0077
   54CHL1  H22A 3979   1.144   5.431   8.215  0.9217 -0.4487  0.9249
   54CHL1  H22B 3980   1.175   5.257   8.190  0.4383  0.0387 -1.2013
   54CHL1   C23 3981   1.274   5.335   8.362 -0.2789  0.7212  1.1181
   54CHL1  H23A 3982   1.317   5.233   8.374 -0.1282  0.4885 -1.0822
   54CHL1  H23B 3983   1.347   5.417   8.381  2.4325 -1.3113  0.1450
   54CHL1   C24 3984   1.171   5.352   8.477 -0.1735 -0.1186  0.5368
   54CHL1  H24A 3985   1.130   5.454   8.458  0.1886  0.2728  1.7402
   54CHL1  H24B 3986   1.082   5.285   8.475 -1.7189  1.8464 -0.2525
   54CHL1   C25 3987   1.222   5.342   8.624  1.5257  0.7354 -0.0593
   54CHL1   H25 3988   1.302   5.417   8.640  2.5821  0.2577 -2.5953
   54CHL1   C26 3989   1.104   5.371   8.720 -1.0076  0.6343  0.3291
   54CHL1  H26A 3990   1.027   5.291   8.712  0.7540 -1.2174  0.7727
   54CHL1  H26B 3991   1.138   5.364   8.826 -1.0425 -0.5704  0.2739
   54CHL1  H26C 3992   1.060   5.472   8.706 -0.0861  1.2064  1.3808
   54CHL1   C27 3993   1.258   5.196   8.647  0.5522 -0.0729 -0.3359
   54CHL1  H27A 3994   1.294   5.191   8.751 -0.3334  1.5593  0.0857
   54CHL1  H27B 3995   1.164   5.138   8.636 -0.0221  1.0155 -1.4705
   54CHL1  H27C 3996   1.332   5.162   8.571 -0.1541 -0.1698 -0.9937
   55CHL1    C3 3997   1.895   0.761   6.935  0.8348  0.6239 -0.3103
   55CHL1    H3 3998   1.789   0.791   6.946  0.2706 -0.3599 -2.4163
   55CHL1    O3 3999   1.925   0.767   6.793  0.2580 -0.3012 -0.3377
   55CHL1   H3' 4000   2.006   0.718   6.777  0.3995 -0.2718  0.2553
   55CHL1    C4 4001   1.986   0.853   7.017  0.0967 -0.1614 -0.2663
   55CHL1   H4A 4002   2.093   0.825   7.001  0.0992 -1.2480  1.4242
   55CHL1   H4B 4003   1.979   0.953   6.968  1.2078  0.3849  0.6502
   55CHL1    C5 4004   1.953   0.850   7.161 -0.2346  0.3136 -0.0847
   55CHL1    C6 4005   1.917   0.964   7.218 -0.1770 -0.1316 -0.6506
   55CHL1    H6 4006   1.914   1.058   7.161 -1.2268 -0.8297 -1.8046
   55CHL1    C7 4007   1.894   0.965   7.364  0.2643 -0.0128 -0.4333
   55CHL1   H7A 4008   1.943   1.054   7.409 -2.2669  1.0291  0.4660
   55CHL1   H7B 4009   1.783   0.971   7.371  0.0760 -2.7634 -0.1087
   55CHL1    C8 4010   1.943   0.843   7.442  0.3547  0.1634  0.4803
   55CHL1    H8 4011   2.052   0.849   7.460  0.5074 -0.8838 -0.0370
   55CHL1   C14 4012   1.883   0.840   7.583 -0.7556  0.0070  0.5162
   55CHL1   H14 4013   1.774   0.819   7.581 -0.6674 -0.5462  1.0237
   55CHL1   C15 4014   1.900   0.966   7.674  0.3790  0.3017  0.6954
   55CHL1  H15A 4015   2.004   1.003   7.663  0.8061 -1.4818 -2.3547
   55CHL1  H15B 4016   1.823   1.043   7.649 -0.8542 -1.4813 -1.3317
   55CHL1   C16 4017   1.880   0.913   7.816 -0.4923  0.3265 -0.7670
   55CHL1  H16A 4018   1.967   0.932   7.883 -0.6280 -1.2784 -0.0882
   55CHL1  H16B 4019   1.797   0.962   7.871 -0.6996 -0.0109 -0.7724
   55CHL1   C17 4020   1.850   0.761   7.808  0.4627  0.1575  0.3322
   55CHL1   H17 4021   1.740   0.759   7.794  0.3899  0.4453  0.8031
   55CHL1   C13 4022   1.919   0.720   7.669 -0.1443 -0.3884 -0.2557
   55CHL1   C18 4023   2.071   0.711   7.700 -0.1092 -0.2585 -0.6651
   55CHL1  H18A 4024   2.125   0.705   7.603  2.0259 -1.7146  0.5332
   55CHL1  H18B 4025   2.103   0.809   7.742 -1.5469 -1.8211  4.9104
   55CHL1  H18C 4026   2.091   0.626   7.768 -2.1005  2.0023  3.0789
   55CHL1   C12 4027   1.868   0.594   7.595 -0.0417  0.3586 -0.3361
   55CHL1  H12A 4028   1.888   0.505   7.658  1.4417  0.8524 -0.0802
   55CHL1  H12B 4029   1.759   0.613   7.587 -0.2891 -1.1344 -0.7577
   55CHL1   C11 4030   1.929   0.580   7.455 -0.4662 -0.4930  0.0620
   55CHL1  H11A 4031   2.036   0.557   7.474 -0.6921  0.8810  3.8544
   55CHL1  H11B 4032   1.879   0.496   7.402 -0.3553  0.1924 -1.1554
   55CHL1    C9 4033   1.900   0.708   7.371 -0.0042  0.0714 -0.0273
   55CHL1    H9 4034   1.789   0.715   7.363  0.2070  4.9884 -2.0029
   55CHL1   C10 4035   1.960   0.708   7.228 -0.2827 -0.1794 -0.3879
   55CHL1   C19 4036   2.115   0.659   7.238  0.4256  0.1436  0.1556
   55CHL1  H19A 4037   2.168   0.669   7.141  1.1798 -3.1669  0.1139
   55CHL1  H19B 4038   2.160   0.715   7.324  0.7379  0.9531 -0.5230
   55CHL1  H19C 4039   2.116   0.553   7.269 -4.6878 -0.2837 -0.2229
   55CHL1    C1 4040   1.878   0.604   7.142  0.0922  0.5952  0.1917
   55CHL1   H1A 4041   1.888   0.499   7.175 -2.5779 -0.4553 -1.9503
   55CHL1   H1B 4042   1.769   0.619   7.157  0.4234  0.7560  2.9303
   55CHL1    C2 4043   1.901   0.611   6.989  0.8370  0.1141  0.4608
   55CHL1   H2A 4044   1.811   0.567   6.941  0.2897  2.7698 -1.2042
   55CHL1   H2B 4045   1.994   0.559   6.959  0.6272  0.3052 -0.5833
   55CHL1   C20 4046   1.888   0.688   7.937  0.0645 -0.7771 -0.1390
   55CHL1   H20 4047   1.997   0.703   7.951  0.2214 -0.5333 -1.5012
   55CHL1   C21 4048   1.854   0.541   7.930 -0.4658  0.2474 -0.0844
   55CHL1  H21A 4049   1.919   0.480   7.865 -2.2435  0.4471 -2.1795
   55CHL1  H21B 4050   1.752   0.508   7.900  0.7998 -2.8060 -1.4203
   55CHL1  H21C 4051   1.878   0.490   8.026  1.2680 -0.5754 -0.9046
   55CHL1   C22 4052   1.815   0.771   8.058  0.0886  0.7757 -0.1699
   55CHL1  H22A 4053   1.857   0.870   8.088 -0.2262 -0.0259  3.3091
   55CHL1  H22B 4054   1.704   0.771   8.059  0.0620 -1.0208  1.1570
   55CHL1   C23 4055   1.859   0.711   8.197  0.2302  0.0020  0.6508
   55CHL1  H23A 4056   1.812   0.610   8.201 -0.5048  0.2026 -1.6627
   55CHL1  H23B 4057   1.970   0.707   8.187  0.0660 -2.4948 -1.3198
   55CHL1   C24 4058   1.803   0.796   8.318 -0.3062 -0.4976  0.8473
   55CHL1  H24A 4059   1.863   0.889   8.307  0.3638 -0.8976  1.0289
   55CHL1  H24B 4060   1.696   0.825   8.312  0.0503  0.7250  0.0771
   55CHL1   C25 4061   1.820   0.744   8.458  1.1630 -0.2594 -0.8203
   55CHL1   H25 4062   1.923   0.710   8.480  0.6007 -1.7140 -0.3463
   55CHL1   C26 4063   1.801   0.871   8.545  0.0583  0.2649  0.0741
   55CHL1  H26A 4064   1.884   0.944   8.526  0.5129 -0.2978 -0.1380
   55CHL1  H26B 4065   1.709   0.926   8.518  0.8589  1.7284  0.2288
   55CHL1  H26C 4066   1.786   0.845   8.652  0.8845 -1.0451 -0.1070
   55CHL1   C27 4067   1.713   0.632   8.506 -0.5533  0.1054  0.0396
   55CHL1  H27A 4068   1.733   0.607   8.613 -0.0856 -1.0178 -0.2969
   55CHL1  H27B 4069   1.606   0.661   8.498 -0.3215  1.4281  1.3659
   55CHL1  H27C 4070   1.731   0.541   8.445  0.3079  0.9661 -1.0228
   56CHL1    C3 4071   0.141   5.798   6.939  0.3421  0.1568  0.4013
   56CHL1    H3 4072   0.052   5.732   6.936  1.8102 -1.9602  1.4906
   56CHL1    O3 4073   0.185   5.812   6.805 -0.4702 -0.0155 -0.7036
   56CHL1   H3' 4074   0.271   5.852   6.819  0.4356 -1.9632 -0.2724
   56CHL1    C4 4075   0.113   5.936   7.004  0.3341 -0.1835  0.0977
   56CHL1   H4A 4076   0.191   6.014   6.994 -0.4720  1.0678  2.5211
   56CHL1   H4B 4077   0.022   5.969   6.949  2.2706 -0.5504 -3.6050
   56CHL1    C5 4078   0.088   5.931   7.152  0.0708  0.2715 -0.5652
   56CHL1    C6 4079  -0.019   5.980   7.213 -0.7348  0.4733  0.0409
   56CHL1    H6 4080  -0.103   6.019   7.153 -1.2419  0.1585  0.5344
   56CHL1    C7 4081  -0.052   5.980   7.363  0.7569 -0.4293  0.8459
   56CHL1   H7A 4082  -0.079   6.077   7.408 -1.6152 -0.7685  0.2784
   56CHL1   H7B 4083  -0.138   5.914   7.387  1.3308 -1.1882  0.8908
   56CHL1    C8 4084   0.067   5.926   7.443 -0.4432  0.0874  0.3383
   56CHL1    H8 4085   0.141   6.008   7.447 -0.8036  0.3713  1.6752
   56CHL1   C14 4086   0.026   5.889   7.583 -0.4320 -0.1320 -0.3259
   56CHL1   H14 4087  -0.037   5.798   7.579  0.4601 -0.8131  0.4533
   56CHL1   C15 4088  -0.072   5.978   7.662 -0.0343  0.1652  0.4976
   56CHL1  H15A 4089  -0.054   6.085   7.639  0.5060 -0.0922 -0.3106
   56CHL1  H15B 4090  -0.177   5.945   7.646 -0.1681  0.6362  0.3800
   56CHL1   C16 4091  -0.036   5.964   7.808 -0.2854 -0.2705  0.6710
   56CHL1  H16A 4092   0.022   6.057   7.827 -1.2418  0.4636  0.0560
   56CHL1  H16B 4093  -0.121   5.961   7.880 -2.0174  1.3299 -1.2022
   56CHL1   C17 4094   0.073   5.848   7.806  0.7253  0.5441 -0.5470
   56CHL1   H17 4095   0.028   5.747   7.800  1.3037  0.2347  0.0995
   56CHL1   C13 4096   0.147   5.861   7.678  0.5084  0.1991  0.7953
   56CHL1   C18 4097   0.240   5.988   7.697 -0.5569  0.1789  0.3454
   56CHL1  H18A 4098   0.191   6.082   7.730  1.0930  0.1445  3.2792
   56CHL1  H18B 4099   0.320   5.982   7.774 -0.4618  3.4681  0.6311
   56CHL1  H18C 4100   0.282   6.005   7.595 -0.0355 -1.6183  0.2314
   56CHL1   C12 4101   0.216   5.735   7.626  0.1859  0.7088 -0.0084
   56CHL1  H12A 4102   0.307   5.706   7.683 -0.2412 -0.8133 -0.0785
   56CHL1  H12B 4103   0.151   5.645   7.628  0.8029  0.2628  0.4017
   56CHL1   C11 4104   0.252   5.765   7.477  0.0942 -0.9290 -0.2056
   56CHL1  H11A 4105   0.331   5.842   7.487 -1.5654  0.7108  1.2032
   56CHL1  H11B 4106   0.297   5.674   7.432  0.3470 -1.1086  0.3938
   56CHL1    C9 4107   0.138   5.809   7.376 -1.0146  0.5366 -0.1007
   56CHL1    H9 4108   0.074   5.718   7.375  0.0590 -0.2559 -1.7580
   56CHL1   C10 4109   0.189   5.837   7.231  0.2375 -0.4863  0.9583
   56CHL1   C19 4110   0.323   5.918   7.229 -0.5242 -0.4412 -0.0376
   56CHL1  H19A 4111   0.402   5.857   7.278  0.3114 -0.8044 -1.7760
   56CHL1  H19B 4112   0.364   5.952   7.132 -1.1374 -1.9299 -0.8462
   56CHL1  H19C 4113   0.306   6.005   7.297 -1.8109 -0.7096  0.0029
   56CHL1    C1 4114   0.204   5.702   7.158  0.4293 -0.0995 -0.3338
   56CHL1   H1A 4115   0.272   5.631   7.210  0.5977  0.6397  0.4789
   56CHL1   H1B 4116   0.103   5.656   7.164  0.0921  0.8327  2.0674
   56CHL1    C2 4117   0.249   5.720   7.013 -0.0493 -0.0346 -1.3520
   56CHL1   H2A 4118   0.262   5.624   6.960 -0.3507 -0.3509 -0.8587
   56CHL1   H2B 4119   0.346   5.773   7.024 -0.2349  0.3472 -1.5392
   56CHL1   C20 4120   0.156   5.856   7.942 -0.1541  0.1060  0.0564
   56CHL1   H20 4121   0.204   5.956   7.956  0.4475 -0.2213  0.3532
   56CHL1   C21 4122   0.270   5.754   7.954 -0.6966  0.1557  0.0851
   56CHL1  H21A 4123   0.227   5.653   7.968  0.0322 -0.1220  0.4162
   56CHL1  H21B 4124   0.332   5.781   8.042  0.9716  0.6039 -1.1759
   56CHL1  H21C 4125   0.347   5.761   7.874  0.0233  0.8075  0.8153
   56CHL1   C22 4126   0.055   5.844   8.054 -0.5814  0.7468  0.1386
   56CHL1  H22A 4127  -0.011   5.933   8.066 -0.7211  0.3402  3.0837
   56CHL1  H22B 4128  -0.016   5.759   8.042 -1.1271  1.1558  0.4304
   56CHL1   C23 4129   0.119   5.808   8.191  0.0866  0.2976  0.5883
   56CHL1  H23A 4130   0.168   5.708   8.188 -0.9150 -0.1783 -0.9939
   56CHL1  H23B 4131   0.192   5.882   8.232 -1.1432  1.6667  0.3845
   56CHL1   C24 4132   0.006   5.806   8.300  0.4411  0.2597  0.0301
   56CHL1  H24A 4133   0.025   5.890   8.371  0.6767  0.5206 -0.3401
   56CHL1  H24B 4134  -0.094   5.828   8.256  0.1186 -0.0505  0.5848
   56CHL1   C25 4135  -0.000   5.665   8.371  0.1757 -0.5849  0.2917
   56CHL1   H25 4136  -0.026   5.590   8.293 -0.7801 -0.7666  0.7760
   56CHL1   C26 4137   0.133   5.603   8.426  0.0434 -0.1334 -0.1730
   56CHL1  H26A 4138   0.146   5.640   8.530 -2.7759  1.3919 -0.2544
   56CHL1  H26B 4139   0.215   5.648   8.366  1.9992  0.1787  2.5492
   56CHL1  H26C 4140   0.127   5.492   8.426  2.3898 -0.3164 -1.7086
   56CHL1   C27 4141  -0.098   5.667   8.485 -0.3345 -0.7343 -0.1374
   56CHL1  H27A 4142  -0.071   5.748   8.556  1.4276 -1.1165 -0.3402
   56CHL1  H27B 4143  -0.194   5.701   8.440 -1.0468 -0.7458  1.3195
   56CHL1  H27C 4144  -0.107   5.569   8.537  1.1795 -0.9529 -0.2509
   57SAPC     N 4145   1.989   2.873  11.191  0.2785 -0.4918  0.3076
   57SAPC   C12 4146   1.968   2.771  11.076 -0.5015  0.3731  0.3902
   57SAPC  H12A 4147   2.004   2.809  10.981 -0.1981  0.4616  0.5374
   57SAPC  H12B 4148   1.861   2.756  11.072 -0.5315  0.6698  0.0199
   57SAPC   C13 4149   1.958   3.009  11.146  0.4402  0.2829 -0.0948
   57SAPC  H13A 4150   2.023   3.048  11.069 -0.4275  2.1426  0.0516
   57SAPC  H13B 4151   1.859   3.025  11.107  0.6451 -0.6276 -1.0187
   57SAPC  H13C 4152   1.971   3.073  11.232 -0.2430  1.1774 -0.6471
   57SAPC   C14 4153   1.917   2.836  11.315  0.1883  0.0974 -0.2129
   57SAPC  H14A 4154   1.811   2.837  11.294  0.1849 -1.0336 -0.2840
   57SAPC  H14B 4155   1.950   2.744  11.360 -0.5877 -0.1948 -0.2397
   57SAPC  H14C 4156   1.944   2.908  11.391 -0.8095 -0.6599  0.8823
   57SAPC   C15 4157   2.135   2.869  11.230 -0.3427  0.0073 -0.4805
   57SAPC  H15A 4158   2.195   2.868  11.140 -1.3128 -3.3071 -1.2280
   57SAPC  H15B 4159   2.162   2.946  11.300 -0.0663  0.6146 -1.2333
   57SAPC  H15C 4160   2.153   2.773  11.275  1.1690 -0.0032 -1.0547
   57SAPC   C11 4161   2.031   2.624  11.095  0.5685 -0.2502  0.4233
   57SAPC  H11A 4162   1.991   2.562  11.178  1.0724  0.4652  1.2110
   57SAPC  H11B 4163   2.139   2.648  11.102  0.0881  2.1924  0.4029
   57SAPC     P 4164   1.878   2.500  10.926  0.5500 -0.0911 -0.2429
   57SAPC   O13 4165   1.899   2.374  10.855 -0.0537  0.0879 -0.3295
   57SAPC   O14 4166   1.783   2.498  11.040 -0.1436 -0.3269  0.7295
   57SAPC   O12 4167   2.016   2.551  10.974 -0.1919  0.3715 -0.6766
   57SAPC   O11 4168   1.838   2.610  10.820  0.1264  0.1719  0.0556
   57SAPC    C1 4169   1.918   2.655  10.711 -0.2907  0.2886  0.2627
   57SAPC    HA 4170   1.885   2.755  10.674 -0.3171 -0.3254 -1.4342
   57SAPC    HB 4171   2.022   2.664  10.748 -1.1450 -1.2836  3.3593
   57SAPC    C2 4172   1.913   2.557  10.593  0.4239 -0.5701 -0.2472
   57SAPC    HS 4173   1.945   2.457  10.630 -0.6394 -0.6849  0.3673
   57SAPC   O21 4174   2.004   2.608  10.492 -0.4811 -0.1277  0.1116
   57SAPC   C21 4175   2.044   2.514  10.406  0.4413 -0.5824 -0.0408
   57SAPC   O22 4176   2.025   2.393  10.411  0.1993 -0.0791 -0.5494
   57SAPC   C22 4177   2.103   2.583  10.290  1.3271 -0.3436  0.0152
   57SAPC   H2R 4178   2.016   2.604  10.223 -0.2208  1.4185  2.3963
   57SAPC   H2S 4179   2.139   2.683  10.322  0.3531  0.2357 -0.6485
   57SAPC    C3 4180   1.762   2.551  10.532  0.3313 -0.2780  0.6904
   57SAPC    HX 4181   1.697   2.519  10.616  0.1884 -0.5152  0.4903
   57SAPC    HY 4182   1.771   2.479  10.448  1.5558  0.2631  0.3322
   57SAPC   O31 4183   1.715   2.683  10.486 -0.3182  0.3691 -0.3017
   57SAPC   C31 4184   1.715   2.708  10.356 -0.2485 -0.0669 -0.9231
   57SAPC   O32 4185   1.754   2.642  10.265  0.1989 -0.5817 -0.6025
   57SAPC   C32 4186   1.665   2.851  10.341 -0.1455  0.0756 -0.7259
   57SAPC   H2X 4187   1.719   2.921  10.408  0.5026 -0.1021 -1.0643
   57SAPC   H2Y 4188   1.560   2.853  10.378 -0.5027 -0.5026 -1.6779
   57SAPC   C23 4189   2.211   2.501  10.220  0.0120 -1.1349 -0.2136
   57SAPC   H3R 4190   2.228   2.407  10.278  0.3624 -0.3989  0.9099
   57SAPC   H3S 4191   2.305   2.558  10.238 -0.0674 -1.2822  0.7746
   57SAPC   C24 4192   2.184   2.481  10.073  0.3331  0.7250  0.3505
   57SAPC   H4R 4193   2.084   2.432  10.068  1.0624 -0.8603  0.8469
   57SAPC   H4S 4194   2.258   2.404  10.044 -0.6588 -1.1965  2.6728
   57SAPC   C25 4195   2.195   2.613   9.996 -0.9209 -0.6351  0.2043
   57SAPC   H5R 4196   2.269   2.680  10.044  0.3165 -1.9958  0.2795
   57SAPC   C26 4197   2.123   2.665   9.897  0.0998  0.7400 -0.0422
   57SAPC   H6R 4198   2.156   2.762   9.856  1.3907  0.5994  0.6373
   57SAPC   C27 4199   2.007   2.596   9.830  0.7590  0.0853  0.1754
   57SAPC   H7R 4200   2.042   2.494   9.804  0.7077 -0.3018  1.5473
   57SAPC   H7S 4201   1.986   2.638   9.730  0.4384  1.7950  0.9145
   57SAPC   C28 4202   1.882   2.595   9.916 -0.0906  0.0308 -0.1477
   57SAPC   H8R 4203   1.844   2.694   9.945  0.5493 -0.0411  0.9956
   57SAPC   C29 4204   1.810   2.483   9.943 -0.0612 -1.1276 -0.1032
   57SAPC   H9R 4205   1.723   2.493  10.011  1.0988 -0.3683  1.3250
   57SAPC  C210 4206   1.827   2.343   9.889 -0.5046 -0.2261 -0.2811
   57SAPC  H10R 4207   1.875   2.284   9.970 -0.2065  2.0108  1.2703
   57SAPC  H10S 4208   1.905   2.340   9.810  0.7775  0.3707  0.9165
   57SAPC  C211 4209   1.698   2.276   9.840  0.6199 -0.2096 -0.3916
   57SAPC  H11R 4210   1.654   2.199   9.905 -0.9629  2.0010  1.2986
   57SAPC  C212 4211   1.633   2.295   9.721  0.7229  0.2718 -0.1770
   57SAPC  H12R 4212   1.536   2.246   9.703  1.5040 -0.1519 -4.0943
   57SAPC  C213 4213   1.676   2.393   9.612 -0.2449  0.4891  0.1578
   57SAPC  H13R 4214   1.769   2.446   9.645  0.3790  0.3096 -1.2672
   57SAPC  H13S 4215   1.605   2.478   9.611 -0.3002  0.4405  0.0351
   57SAPC  C214 4216   1.693   2.335   9.478  0.0071  0.4982  0.3565
   57SAPC  H14R 4217   1.620   2.380   9.409  1.2301  3.3476  0.7642
   57SAPC  C215 4218   1.785   2.244   9.433  0.2563  0.4573 -0.5005
   57SAPC  H15R 4219   1.764   2.199   9.335  1.1470 -0.2601 -0.3672
   57SAPC  C216 4220   1.895   2.180   9.517  0.1356 -0.3709  0.0005
   57SAPC  H16R 4221   1.837   2.104   9.575 -0.2130 -0.6229 -0.6671
   57SAPC  H16S 4222   1.945   2.248   9.588 -0.7720  0.8706 -0.5181
   57SAPC  C217 4223   2.004   2.119   9.426  0.1348 -0.0810  0.6848
   57SAPC  H17R 4224   1.952   2.056   9.351  1.0649  1.3862 -1.2781
   57SAPC  H17S 4225   2.083   2.069   9.486 -0.0225 -0.6959  0.3795
   57SAPC  C218 4226   2.090   2.231   9.363  0.1631 -0.3766  0.0875
   57SAPC  H18R 4227   2.151   2.272   9.446 -0.6086  0.2362  0.3700
   57SAPC  H18S 4228   2.040   2.322   9.321 -0.3572 -0.9819 -0.6283
   57SAPC  C219 4229   2.190   2.184   9.255 -0.6552 -0.2697 -0.1168
   57SAPC  H19R 4230   2.128   2.182   9.162  0.5649 -1.1910 -0.9415
   57SAPC  H19S 4231   2.243   2.095   9.295  1.6988  1.4058  0.7091
   57SAPC  C220 4232   2.305   2.281   9.232  0.1893  0.9527 -0.5447
   57SAPC  H20R 4233   2.371   2.245   9.151  0.1523 -1.2130  0.3271
   57SAPC  H20S 4234   2.376   2.272   9.317 -1.6779 -2.0974  0.8836
   57SAPC  H20T 4235   2.268   2.385   9.216 -1.7180  0.3266 -0.5006
   57SAPC   C33 4236   1.686   2.914  10.202  0.6677  0.0620 -0.6817
   57SAPC   H3X 4237   1.792   2.909  10.169  1.2853 -2.4179  1.3405
   57SAPC   H3Y 4238   1.664   3.022  10.213  0.3600 -0.0007 -0.6585
   57SAPC   C34 4239   1.599   2.854  10.096  0.3419  0.4094 -0.3118
   57SAPC   H4X 4240   1.500   2.865  10.144  0.4063  0.1008 -0.1078
   57SAPC   H4Y 4241   1.622   2.746  10.091  1.1311  0.4764  1.3141
   57SAPC   C35 4242   1.617   2.931   9.961  0.6444  0.1365 -0.1048
   57SAPC   H5X 4243   1.705   2.908   9.897 -1.6186  1.1536 -3.9231
   57SAPC   H5Y 4244   1.619   3.040   9.985 -2.0071  0.0110  1.0655
   57SAPC   C36 4245   1.492   2.917   9.869  0.5404  1.0100 -0.6740
   57SAPC   H6X 4246   1.497   2.979   9.777 -1.8079  0.5038 -1.1954
   57SAPC   H6Y 4247   1.399   2.943   9.924  0.4701  1.2356 -0.9032
   57SAPC   C37 4248   1.482   2.769   9.826  0.2679  0.4060 -0.6772
   57SAPC   H7X 4249   1.483   2.703   9.916 -0.9748 -0.3166 -1.1659
   57SAPC   H7Y 4250   1.579   2.751   9.773  3.3375  3.0349  3.4167
   57SAPC   C38 4251   1.354   2.746   9.739  0.1301  0.0573  0.0963
   57SAPC   H8X 4252   1.325   2.840   9.687 -0.0010 -0.7460 -1.3280
   57SAPC   H8Y 4253   1.267   2.735   9.806 -0.2988 -1.8792 -0.7213
   57SAPC   C39 4254   1.363   2.625   9.648 -0.3115 -0.2800  0.4340
   57SAPC   H9X 4255   1.390   2.542   9.717 -0.0917 -0.0346  0.6458
   57SAPC   H9Y 4256   1.439   2.624   9.567 -0.2738 -2.1312  0.4336
   57SAPC  C310 4257   1.228   2.581   9.582  0.9788 -0.2925 -0.1281
   57SAPC  H10X 4258   1.200   2.659   9.508  0.2469  0.2452  0.7006
   57SAPC  H10Y 4259   1.154   2.586   9.665 -1.1281 -0.2608 -1.9140
   57SAPC  C311 4260   1.235   2.444   9.519  0.1134 -0.5066 -0.1466
   57SAPC  H11X 4261   1.263   2.363   9.590 -0.0025  0.3096  0.8405
   57SAPC  H11Y 4262   1.319   2.441   9.446  3.1021  0.4411  3.0444
   57SAPC  C312 4263   1.115   2.399   9.431  0.4212 -0.3879 -0.1437
   57SAPC  H12X 4264   1.017   2.405   9.483  0.4170 -1.8467  0.0729
   57SAPC  H12Y 4265   1.118   2.292   9.401 -0.9299 -0.5015  0.0848
   57SAPC  C313 4266   1.101   2.489   9.307  0.3492  0.3047 -0.4415
   57SAPC  H13X 4267   1.198   2.494   9.254  0.0337 -2.2062 -1.3779
   57SAPC  H13Y 4268   1.072   2.595   9.320  2.7993  1.1044 -0.8272
   57SAPC  C314 4269   1.003   2.427   9.200  0.4027  0.3146  0.1941
   57SAPC  H14X 4270   0.912   2.396   9.255  0.9455 -0.9228  0.4266
   57SAPC  H14Y 4271   1.043   2.338   9.148 -0.2250 -0.3598  0.8262
   57SAPC  C315 4272   0.967   2.525   9.097  0.1754  0.3897  0.1334
   57SAPC  H15X 4273   1.046   2.556   9.025 -0.3070 -2.0087 -1.5455
   57SAPC  H15Y 4274   0.922   2.615   9.142 -1.9929 -0.7577  0.4177
   57SAPC  C316 4275   0.855   2.455   9.007 -0.6441  0.1630 -1.1449
   57SAPC  H16X 4276   0.780   2.405   9.072 -1.2792 -1.3043 -2.9370
   57SAPC  H16Y 4277   0.911   2.374   8.957 -1.3673 -0.8639 -0.3395
   57SAPC  C317 4278   0.810   2.540   8.891 -0.7768 -0.4363  0.0585
   57SAPC  H17X 4279   0.890   2.553   8.815 -0.9671  2.1526  0.2200
   57SAPC  H17Y 4280   0.787   2.643   8.924  2.3518  0.7487 -1.1226
   57SAPC  C318 4281   0.694   2.476   8.817 -0.9357 -0.8072  0.7513
   57SAPC  H18X 4282   0.714   2.367   8.804  1.5020 -0.4493  1.1679
   57SAPC  H18Y 4283   0.675   2.524   8.719  1.6625 -1.3245 -0.0720
   57SAPC  H18Z 4284   0.605   2.484   8.884  0.6387  1.9535  2.6678
   58SAPC     N 4285   4.762   0.801  11.009 -0.5944  0.1546  0.3683
   58SAPC   C12 4286   4.647   0.753  10.922 -0.3733  0.9613  0.7968
   58SAPC  H12A 4287   4.551   0.780  10.962 -1.4429 -1.5288  0.0557
   58SAPC  H12B 4288   4.650   0.646  10.913  2.3067  1.1263 -3.2704
   58SAPC   C13 4289   4.764   0.951  11.029 -0.7760 -0.2828 -0.3838
   58SAPC  H13A 4290   4.829   0.977  11.111  0.3027  2.6761 -2.0123
   58SAPC  H13B 4291   4.822   0.998  10.951 -0.5325 -0.5172 -0.3453
   58SAPC  H13C 4292   4.664   0.992  11.041 -2.4332 -3.2350 -2.7111
   58SAPC   C14 4293   4.755   0.743  11.152 -1.0681  0.2056  0.0377
   58SAPC  H14A 4294   4.853   0.711  11.184 -0.9654 -0.2241 -0.7024
   58SAPC  H14B 4295   4.721   0.820  11.221 -4.6088 -1.6437  0.5751
   58SAPC  H14C 4296   4.679   0.666  11.152 -0.3987 -0.4805 -1.2960
   58SAPC   C15 4297   4.886   0.757  10.952 -1.1682  0.9045  0.0226
   58SAPC  H15A 4298   4.910   0.653  10.968  2.4659  1.5082 -0.4312
   58SAPC  H15B 4299   4.900   0.771  10.846  0.5636 -0.1498  0.0726
   58SAPC  H15C 4300   4.968   0.807  11.002 -1.2011 -0.2727  1.3193
   58SAPC   C11 4301   4.641   0.818  10.773 -0.1058  0.6072 -0.3415
   58SAPC  H11A 4302   4.554   0.776  10.719  0.0752  0.5635 -0.5988
   58SAPC  H11B 4303   4.736   0.782  10.727 -0.9325 -1.9196 -0.2472
   58SAPC     P 4304   4.495   1.036  10.794 -0.0805  0.1495  0.2720
   58SAPC   O13 4305   4.423   0.979  10.916 -0.9405 -0.0566  0.3301
   58SAPC   O14 4306   4.522   1.181  10.797  0.1443  0.7032  0.1778
   58SAPC   O12 4307   4.631   0.959  10.773 -0.2909 -0.3364 -0.1107
   58SAPC   O11 4308   4.427   1.008  10.661 -0.0214  0.2671 -0.2864
   58SAPC    C1 4309   4.332   0.903  10.628 -0.4147  0.1144 -0.0102
   58SAPC    HA 4310   4.329   0.809  10.687 -1.8929  0.3606  0.3353
   58SAPC    HB 4311   4.227   0.938  10.622 -0.2600  1.3127  2.6928
   58SAPC    C2 4312   4.355   0.848  10.487  0.1244 -0.0627 -0.3198
   58SAPC    HS 4313   4.272   0.782  10.453 -1.2872  1.4870 -0.0280
   58SAPC   O21 4314   4.473   0.762  10.490 -0.4220  0.0401 -0.4980
   58SAPC   C21 4315   4.486   0.676  10.386 -0.4123 -0.2977 -0.5602
   58SAPC   O22 4316   4.413   0.680  10.286 -0.0453 -0.4576 -0.0485
   58SAPC   C22 4317   4.602   0.580  10.404 -0.5315 -0.3412 -0.1019
   58SAPC   H2R 4318   4.582   0.506  10.484 -0.8627  0.7073  0.8030
   58SAPC   H2S 4319   4.601   0.513  10.315 -0.7255 -1.9326  1.0556
   58SAPC    C3 4320   4.369   0.969  10.382 -1.2012  0.4984  0.1918
   58SAPC    HX 4321   4.384   0.924  10.282  1.1079  0.7910  0.3446
   58SAPC    HY 4322   4.457   1.030  10.414 -0.7562 -0.3037  0.5170
   58SAPC   O31 4323   4.246   1.050  10.380 -0.3029 -0.3494 -0.6916
   58SAPC   C31 4324   4.155   1.010  10.297 -0.9000  0.2215 -0.0296
   58SAPC   O32 4325   4.141   0.898  10.253  0.2792  0.4500  0.0667
   58SAPC   C32 4326   4.060   1.127  10.280 -0.8147 -0.3137  0.3651
   58SAPC   H2X 4327   4.058   1.189  10.372 -0.7431 -0.5497  0.5259
   58SAPC   H2Y 4328   3.963   1.075  10.262 -0.8985 -0.3457  0.8821
   58SAPC   C23 4329   4.733   0.656  10.413 -0.4189 -0.3823  0.4872
   58SAPC   H3R 4330   4.816   0.587  10.443 -0.7685 -0.4450  1.3384
   58SAPC   H3S 4331   4.746   0.723  10.501  1.9105  0.8060 -0.6764
   58SAPC   C24 4332   4.790   0.728  10.287 -0.2139  0.4718  0.3179
   58SAPC   H4R 4333   4.895   0.760  10.304 -0.2979  1.3374 -0.7082
   58SAPC   H4S 4334   4.732   0.816  10.253 -2.7413 -1.3628 -0.4188
   58SAPC   C25 4335   4.795   0.630  10.171  0.1776  0.0948  0.3643
   58SAPC   H5R 4336   4.797   0.525  10.201  2.3695  0.5653  2.1559
   58SAPC   C26 4337   4.769   0.657  10.036 -0.4828 -0.0717 -0.9410
   58SAPC   H6R 4338   4.767   0.575   9.963  0.9085  1.7351 -3.1704
   58SAPC   C27 4339   4.735   0.789   9.969  0.3879 -0.2936 -0.5086
   58SAPC   H7R 4340   4.760   0.780   9.861  0.3587  1.8724 -0.7483
   58SAPC   H7S 4341   4.788   0.881  10.002 -0.7518  0.3002 -0.2857
   58SAPC   C28 4342   4.589   0.810   9.986  0.0555  0.4267 -0.3415
   58SAPC   H8R 4343   4.560   0.797  10.092 -1.1040 -2.1198 -0.8785
   58SAPC   C29 4344   4.499   0.841   9.889 -0.8324 -0.6165 -0.3274
   58SAPC   H9R 4345   4.391   0.830   9.908 -0.6341 -0.6390  0.9135
   58SAPC  C210 4346   4.534   0.869   9.746 -0.0722  0.0874  0.2591
   58SAPC  H10R 4347   4.634   0.916   9.752 -0.2848  0.3789  1.9431
   58SAPC  H10S 4348   4.462   0.943   9.705 -0.2435  0.4156  1.1326
   58SAPC  C211 4349   4.546   0.742   9.658  0.3544  0.0148 -0.5231
   58SAPC  H11R 4350   4.530   0.656   9.724  0.7799 -0.8280 -1.5005
   58SAPC  C212 4351   4.562   0.738   9.525  0.0249 -0.5929 -0.0201
   58SAPC  H12R 4352   4.556   0.645   9.467  0.2235 -1.5754  1.5042
   58SAPC  C213 4353   4.583   0.866   9.442  0.6239  0.3621 -0.1031
   58SAPC  H13R 4354   4.589   0.958   9.503  1.5511  0.4243 -0.2617
   58SAPC  H13S 4355   4.490   0.874   9.382  1.0626 -2.5078 -1.3507
   58SAPC  C214 4356   4.710   0.862   9.358  0.5171  0.3357 -0.5697
   58SAPC  H14R 4357   4.793   0.908   9.414 -1.3270  1.9134  1.0203
   58SAPC  C215 4358   4.718   0.814   9.236 -0.1350 -0.2349  0.1032
   58SAPC  H15R 4359   4.812   0.819   9.178  0.0122  0.6854  0.4074
   58SAPC  C216 4360   4.605   0.755   9.152  0.9491 -0.1469  0.3241
   58SAPC  H16R 4361   4.518   0.718   9.211 -1.7429  1.5916 -2.2408
   58SAPC  H16S 4362   4.652   0.678   9.088  0.7809  0.7637 -0.9362
   58SAPC  C217 4363   4.538   0.876   9.068 -0.0652  0.0800 -1.0699
   58SAPC  H17R 4364   4.615   0.916   9.000 -0.4795  0.8080 -1.1228
   58SAPC  H17S 4365   4.510   0.956   9.140 -3.7199 -1.5810 -0.4181
   58SAPC  C218 4366   4.404   0.851   8.988 -0.3938 -0.1696  0.5508
   58SAPC  H18R 4367   4.369   0.953   8.959  2.1594  0.9901  1.2454
   58SAPC  H18S 4368   4.332   0.800   9.055  0.6071 -1.9858  0.2996
   58SAPC  C219 4369   4.423   0.759   8.864 -0.1181  0.2176 -0.6929
   58SAPC  H19R 4370   4.320   0.735   8.832 -0.0471 -0.4871 -0.4014
   58SAPC  H19S 4371   4.475   0.666   8.895 -1.8599 -0.7551 -0.5750
   58SAPC  C220 4372   4.498   0.827   8.753 -0.1510  0.4058  0.7212
   58SAPC  H20R 4373   4.494   0.762   8.663 -1.7417  1.1674  0.2137
   58SAPC  H20S 4374   4.603   0.851   8.783  0.0870 -0.1157  0.3152
   58SAPC  H20T 4375   4.439   0.915   8.719 -2.4567 -1.6607 -0.9788
   58SAPC   C33 4376   4.099   1.208  10.151  0.3881  0.4275 -0.3304
   58SAPC   H3X 4377   4.174   1.280  10.190 -0.2461  1.2435 -0.5847
   58SAPC   H3Y 4378   4.010   1.267  10.119  0.4249  0.7000  0.0758
   58SAPC   C34 4379   4.142   1.120  10.037  0.3029  0.8913 -0.4412
   58SAPC   H4X 4380   4.066   1.040  10.022 -1.2929  2.0129  1.2440
   58SAPC   H4Y 4381   4.242   1.079  10.062 -0.0519  0.8877  1.0420
   58SAPC   C35 4382   4.151   1.177   9.892 -0.5427  0.2493 -0.1837
   58SAPC   H5X 4383   4.239   1.244   9.886 -1.4193  1.4087 -0.3716
   58SAPC   H5Y 4384   4.059   1.234   9.869 -1.7618 -1.6057 -0.1647
   58SAPC   C36 4385   4.174   1.066   9.784  0.5401  0.2651 -0.1912
   58SAPC   H6X 4386   4.089   0.995   9.794  1.7578 -1.1985  0.2612
   58SAPC   H6Y 4387   4.269   1.010   9.800  1.6110  1.6762 -1.3676
   58SAPC   C37 4388   4.170   1.111   9.637  0.2818 -0.2497 -0.3754
   58SAPC   H7X 4389   4.244   1.189   9.609 -0.2933  0.5686  0.3311
   58SAPC   H7Y 4390   4.074   1.166   9.624  1.1586  1.5204  0.2679
   58SAPC   C38 4391   4.168   0.999   9.533  0.5674  0.5420 -0.2255
   58SAPC   H8X 4392   4.100   0.916   9.561  0.2389 -0.0026 -2.4397
   58SAPC   H8Y 4393   4.267   0.949   9.527  0.0978 -0.6002  0.9764
   58SAPC   C39 4394   4.126   1.030   9.382 -0.5817  0.8202 -0.3203
   58SAPC   H9X 4395   4.015   1.028   9.377 -0.8437 -4.2943  1.7124
   58SAPC   H9Y 4396   4.156   0.941   9.323  0.2360 -0.4847  1.9287
   58SAPC  C310 4397   4.184   1.165   9.331  0.3840  0.6871  0.1631
   58SAPC  H10X 4398   4.294   1.152   9.328  0.1275 -1.7267 -0.1171
   58SAPC  H10Y 4399   4.153   1.248   9.398 -0.3952  0.4206  0.1440
   58SAPC  C311 4400   4.121   1.194   9.193  0.2824 -0.4803  0.9559
   58SAPC  H11X 4401   4.174   1.279   9.144  0.4943 -1.5294 -0.7170
   58SAPC  H11Y 4402   4.019   1.233   9.211  0.6642  0.2032  1.7163
   58SAPC  C312 4403   4.133   1.084   9.085  0.0358 -0.5832 -0.4934
   58SAPC  H12X 4404   4.067   0.997   9.106  2.6473 -2.1645  2.0532
   58SAPC  H12Y 4405   4.232   1.033   9.094  0.0911 -0.2611  1.1543
   58SAPC  C313 4406   4.102   1.152   8.950 -0.3167  0.0842 -0.0426
   58SAPC  H13X 4407   4.178   1.225   8.913 -0.0469 -0.3239 -0.2951
   58SAPC  H13Y 4408   4.006   1.208   8.960 -0.6849  0.1123 -2.8545
   58SAPC  C314 4409   4.105   1.046   8.832  0.0799 -0.3148  0.3877
   58SAPC  H14X 4410   4.045   0.957   8.862 -0.8431 -0.0504 -0.6427
   58SAPC  H14Y 4411   4.210   1.011   8.846 -0.7067 -2.5535  1.2702
   58SAPC  C315 4412   4.071   1.099   8.697 -0.2937  0.7128 -0.3541
   58SAPC  H15X 4413   4.152   1.158   8.649 -1.9482  3.7847  0.3681
   58SAPC  H15Y 4414   3.980   1.162   8.704 -1.2143 -0.7190  1.0622
   58SAPC  C316 4415   4.025   0.978   8.608 -1.1199 -0.5981  0.2685
   58SAPC  H16X 4416   4.110   0.908   8.601  0.0950  0.9568 -3.6886
   58SAPC  H16Y 4417   4.021   1.036   8.513  0.0351  1.2233  1.2573
   58SAPC  C317 4418   3.894   0.905   8.622 -0.2939  0.2939  0.1965
   58SAPC  H17X 4419   3.812   0.979   8.626 -1.0843 -0.5160 -0.4643
   58SAPC  H17Y 4420   3.901   0.844   8.714  3.0584 -3.5060 -2.2203
   58SAPC  C318 4421   3.864   0.815   8.504  0.7937  1.1085 -0.5360
   58SAPC  H18X 4422   3.762   0.774   8.518  1.1444  0.0530 -0.9492
   58SAPC  H18Y 4423   3.940   0.733   8.500 -2.1478 -1.9651  1.4694
   58SAPC  H18Z 4424   3.851   0.855   8.402 -1.2135 -1.0102 -1.1813
   59SAPC     N 4425   6.277   2.185  11.196  0.4960  0.3330  0.2808
   59SAPC   C12 4426   6.206   2.222  11.323 -0.4459 -0.2128  0.3215
   59SAPC  H12A 4427   6.282   2.215  11.400 -1.6848 -1.0095  1.5314
   59SAPC  H12B 4428   6.127   2.152  11.347 -1.7716  1.6357  1.6784
   59SAPC   C13 4429   6.201   2.226  11.072  0.4926 -0.0824  0.1126
   59SAPC  H13A 4430   6.186   2.333  11.067 -0.5579 -0.2204  0.1213
   59SAPC  H13B 4431   6.264   2.197  10.990  2.1307 -1.0782  1.6445
   59SAPC  H13C 4432   6.110   2.169  11.063  0.7826 -0.5499  0.1281
   59SAPC   C14 4433   6.407   2.259  11.198  0.3735 -0.4526 -0.1686
   59SAPC  H14A 4434   6.471   2.232  11.115 -0.5956 -0.5790 -0.9006
   59SAPC  H14B 4435   6.388   2.365  11.206  1.0559 -0.4110  1.2005
   59SAPC  H14C 4436   6.462   2.233  11.287 -0.4989 -2.2005 -0.0996
   59SAPC   C15 4437   6.312   2.032  11.194  0.0067  0.0623 -0.3536
   59SAPC  H15A 4438   6.227   1.974  11.162  0.3787 -0.6580 -0.0637
   59SAPC  H15B 4439   6.386   2.011  11.118  2.4263  3.5731  0.8230
   59SAPC  H15C 4440   6.337   1.989  11.290  0.2755 -1.7239 -1.1690
   59SAPC   C11 4441   6.123   2.357  11.311  0.4762  0.1689 -0.2690
   59SAPC  H11A 4442   6.060   2.369  11.401 -0.4264  1.5446 -1.0430
   59SAPC  H11B 4443   6.042   2.350  11.235  0.5606  2.2618 -0.5975
   59SAPC     P 4444   6.158   2.591  11.199  0.0870  0.0335 -0.2611
   59SAPC   O13 4445   6.042   2.652  11.264  0.0442 -0.5031  0.2564
   59SAPC   O14 4446   6.269   2.686  11.184  0.1036  0.6754  0.2691
   59SAPC   O12 4447   6.208   2.475  11.296  0.1421  0.0669  0.5793
   59SAPC   O11 4448   6.119   2.534  11.053  0.9025  0.7066 -0.2426
   59SAPC    C1 4449   6.063   2.628  10.963 -0.0371 -0.6399  0.0013
   59SAPC    HA 4450   5.952   2.631  10.973 -0.1318  0.1012 -1.0834
   59SAPC    HB 4451   6.101   2.731  10.982 -0.8823 -0.3337  0.1029
   59SAPC    C2 4452   6.093   2.579  10.823  0.3041 -0.3433 -0.0262
   59SAPC    HS 4453   6.052   2.476  10.817  0.0644 -0.2764  0.4712
   59SAPC   O21 4454   6.239   2.575  10.803  0.3749 -0.2189  0.4133
   59SAPC   C21 4455   6.292   2.488  10.719  0.6424 -0.0863  0.0016
   59SAPC   O22 4456   6.225   2.401  10.661  0.1567 -0.4715  0.1438
   59SAPC   C22 4457   6.442   2.505  10.722  0.7874 -0.0116  0.3934
   59SAPC   H2R 4458   6.476   2.502  10.828  0.2157  1.1027  0.6215
   59SAPC   H2S 4459   6.500   2.422  10.676  1.7025 -0.5738  2.4424
   59SAPC    C3 4460   6.020   2.662  10.717 -0.1438 -0.4509  0.7733
   59SAPC    HX 4461   6.060   2.765  10.712  0.0478 -0.4611  1.7816
   59SAPC    HY 4462   5.918   2.680  10.756  0.4473  1.1655  1.6742
   59SAPC   O31 4463   6.034   2.615  10.582  0.0929  0.2093  0.2386
   59SAPC   C31 4464   5.962   2.504  10.556  0.6046  0.4670 -0.2735
   59SAPC   O32 4465   5.864   2.470  10.617 -0.1131  0.0355  0.5750
   59SAPC   C32 4466   6.017   2.444  10.425 -0.3111 -0.0043 -0.4512
   59SAPC   H2X 4467   5.976   2.344  10.398  0.9186 -0.5556 -0.3485
   59SAPC   H2Y 4468   6.128   2.436  10.436 -0.0746 -0.0914 -2.4790
   59SAPC   C23 4469   6.503   2.639  10.677 -0.0007  0.4199  0.6061
   59SAPC   H3R 4470   6.614   2.639  10.683 -0.0797  1.1587  2.5017
   59SAPC   H3S 4471   6.469   2.710  10.754  0.4118  1.9313 -0.5585
   59SAPC   C24 4472   6.440   2.679  10.538  0.2740  0.3712  0.2637
   59SAPC   H4R 4473   6.456   2.786  10.512 -0.2124  0.8730  1.8964
   59SAPC   H4S 4474   6.330   2.671  10.546  0.2643 -0.1068 -0.3245
   59SAPC   C25 4475   6.487   2.590  10.426  0.4193 -0.5566 -1.0814
   59SAPC   H5R 4476   6.487   2.482  10.445  2.8224 -0.5585 -0.7509
   59SAPC   C26 4477   6.518   2.631  10.298 -0.1312 -0.3102  1.2224
   59SAPC   H6R 4478   6.551   2.562  10.219  0.5655  1.4982 -0.1544
   59SAPC   C27 4479   6.512   2.777  10.252  0.3427  0.6020  0.0533
   59SAPC   H7R 4480   6.575   2.788  10.162 -0.2862 -3.0015 -1.0040
   59SAPC   H7S 4481   6.567   2.837  10.327  1.1964  0.0889 -0.1467
   59SAPC   C28 4482   6.372   2.817  10.221  0.3758 -0.0084  1.2218
   59SAPC   H8R 4483   6.299   2.806  10.302 -1.0127  3.0434  0.5229
   59SAPC   C29 4484   6.318   2.855  10.103  0.2741  0.8866 -0.4646
   59SAPC   H9R 4485   6.208   2.860  10.103  0.2089  1.0116  2.2857
   59SAPC  C210 4486   6.395   2.881   9.975  0.1949  0.4328  0.2013
   59SAPC  H10R 4487   6.444   2.786   9.943 -0.0458  0.2669  0.3290
   59SAPC  H10S 4488   6.480   2.948  10.002  1.7962 -0.7971 -1.4649
   59SAPC  C211 4489   6.323   2.950   9.868  0.8613 -0.0138  0.3689
   59SAPC  H11R 4490   6.228   2.996   9.899  0.4842 -1.2598  1.1431
   59SAPC  C212 4491   6.355   2.945   9.736 -0.4817 -0.6069 -0.0325
   59SAPC  H12R 4492   6.303   3.009   9.663 -1.5964  0.6616  1.8101
   59SAPC  C213 4493   6.463   2.863   9.667 -0.4053 -0.8810 -0.2276
   59SAPC  H13R 4494   6.516   2.817   9.753  0.0420  0.5647  0.3076
   59SAPC  H13S 4495   6.536   2.935   9.623 -1.6975  2.5898  2.7491
   59SAPC  C214 4496   6.410   2.753   9.572 -0.0383 -0.5638 -0.6174
   59SAPC  H14R 4497   6.381   2.660   9.624  1.1465 -1.3254 -1.2784
   59SAPC  C215 4498   6.383   2.752   9.442 -0.3053 -0.3496 -0.0843
   59SAPC  H15R 4499   6.330   2.663   9.405 -0.5508 -1.0881  1.9334
   59SAPC  C216 4500   6.399   2.864   9.344  0.0952  0.0179  0.2716
   59SAPC  H16R 4501   6.419   2.957   9.402  1.6858 -1.0996  1.6367
   59SAPC  H16S 4502   6.307   2.870   9.282  0.3638  1.5248 -0.0151
   59SAPC  C217 4503   6.521   2.838   9.253 -0.0405 -0.3915  0.1189
   59SAPC  H17R 4504   6.492   2.751   9.190 -1.1735  1.9362 -2.8494
   59SAPC  H17S 4505   6.617   2.818   9.306  0.8421  1.8426 -0.5104
   59SAPC  C218 4506   6.552   2.949   9.148 -0.2684 -0.2249  0.5801
   59SAPC  H18R 4507   6.608   3.036   9.189  1.0708 -0.3215 -0.9289
   59SAPC  H18S 4508   6.455   2.986   9.109 -0.0584 -1.3058 -1.0843
   59SAPC  C219 4509   6.624   2.890   9.029 -0.4888 -0.0439 -0.3041
   59SAPC  H19R 4510   6.708   2.829   9.067 -0.3680  1.3050  1.7736
   59SAPC  H19S 4511   6.660   2.977   8.969 -1.6541  0.5022 -0.2434
   59SAPC  C220 4512   6.538   2.805   8.941 -0.0931 -0.1179  0.3585
   59SAPC  H20R 4513   6.586   2.796   8.841  2.1735 -0.6486  1.4348
   59SAPC  H20S 4514   6.446   2.865   8.930  0.5785  0.6913 -1.1666
   59SAPC  H20T 4515   6.515   2.704   8.983  1.0852 -0.1624  0.9453
   59SAPC   C33 4516   5.997   2.534  10.306  0.7025 -0.8126 -0.4580
   59SAPC   H3X 4517   6.036   2.634  10.330 -1.2491 -0.6051  2.2371
   59SAPC   H3Y 4518   5.888   2.554  10.299  0.8158  0.6806  1.4641
   59SAPC   C34 4519   6.050   2.471  10.179  0.1970 -0.6353 -0.4930
   59SAPC   H4X 4520   5.980   2.389  10.152  0.4639 -1.2728  0.6910
   59SAPC   H4Y 4521   6.146   2.421  10.202  0.1610  0.1212  1.5487
   59SAPC   C35 4522   6.049   2.574  10.066  0.8205 -0.5971  0.0256
   59SAPC   H5X 4523   6.121   2.655  10.095  1.5350 -1.2797  0.1923
   59SAPC   H5Y 4524   5.946   2.615  10.059  0.8619 -0.1332  1.5858
   59SAPC   C36 4525   6.101   2.518   9.933 -0.2456  0.4289  0.3766
   59SAPC   H6X 4526   6.058   2.416   9.918  0.0127  0.6281 -2.0476
   59SAPC   H6Y 4527   6.210   2.497   9.937 -0.2581  0.5197  2.3237
   59SAPC   C37 4528   6.076   2.612   9.816  0.4058  0.6524 -0.0966
   59SAPC   H7X 4529   6.160   2.683   9.808  1.4417 -0.3902  1.0800
   59SAPC   H7Y 4530   5.979   2.659   9.846 -0.4830 -0.6667 -0.8264
   59SAPC   C38 4531   6.052   2.551   9.673  0.3316 -0.1207 -0.2804
   59SAPC   H8X 4532   5.970   2.477   9.678  0.8649 -0.7648 -0.7818
   59SAPC   H8Y 4533   6.145   2.493   9.653 -0.9591 -1.3949 -3.1427
   59SAPC   C39 4534   6.036   2.657   9.564 -0.3238  0.4503  0.0402
   59SAPC   H9X 4535   6.111   2.738   9.577 -0.2115  0.5738 -1.2059
   59SAPC   H9Y 4536   5.939   2.710   9.577 -0.5932  0.8869 -2.8957
   59SAPC  C310 4537   6.046   2.596   9.427 -0.1656  0.0688 -0.5483
   59SAPC  H10X 4538   5.978   2.510   9.403  0.4346 -0.6047  0.1102
   59SAPC  H10Y 4539   6.144   2.545   9.424 -0.3385 -0.4043  1.0155
   59SAPC  C311 4540   6.024   2.702   9.316  0.2386 -0.1208 -0.4729
   59SAPC  H11X 4541   6.110   2.772   9.322 -0.0757  0.2622 -0.3874
   59SAPC  H11Y 4542   5.931   2.762   9.330 -0.4686 -1.4308  0.6024
   59SAPC  C312 4543   6.029   2.639   9.176 -0.2345  0.1057 -0.1084
   59SAPC  H12X 4544   5.935   2.580   9.178  1.0883 -2.0833  0.6704
   59SAPC  H12Y 4545   6.110   2.564   9.172 -0.0688  0.2507  0.4853
   59SAPC  C313 4546   6.047   2.738   9.073  1.1083  0.0879  0.2353
   59SAPC  H13X 4547   6.142   2.790   9.096  1.6632 -0.4093 -0.8753
   59SAPC  H13Y 4548   5.963   2.812   9.075  0.1347 -1.0020  1.8470
   59SAPC  C314 4549   6.045   2.677   8.925 -0.9619 -0.4940 -0.0734
   59SAPC  H14X 4550   5.945   2.629   8.920 -0.2503 -2.0219 -0.1611
   59SAPC  H14Y 4551   6.124   2.599   8.914  2.3608  2.7006 -0.8519
   59SAPC  C315 4552   6.061   2.787   8.820 -0.1418 -0.2313 -0.0561
   59SAPC  H15X 4553   6.152   2.846   8.846  0.2986 -0.2150 -1.5442
   59SAPC  H15Y 4554   5.981   2.864   8.821  0.2101  0.1663 -1.2529
   59SAPC  C316 4555   6.080   2.717   8.685 -0.6771 -0.2401  0.6257
   59SAPC  H16X 4556   5.994   2.647   8.678 -1.1378  0.2269  1.3445
   59SAPC  H16Y 4557   6.181   2.671   8.678 -1.5841 -2.2107 -0.1178
   59SAPC  C317 4558   6.073   2.809   8.570  0.4676 -0.2540  0.4295
   59SAPC  H17X 4559   6.127   2.904   8.589  0.4153  0.1773 -1.3581
   59SAPC  H17Y 4560   5.969   2.838   8.543  1.1290 -0.2629 -2.4039
   59SAPC  C318 4561   6.130   2.746   8.450 -0.2036  0.1374  0.4818
   59SAPC  H18X 4562   6.132   2.805   8.356 -0.3453 -3.1175 -1.7412
   59SAPC  H18Y 4563   6.104   2.643   8.417  1.4607 -0.1420 -0.0834
   59SAPC  H18Z 4564   6.238   2.725   8.467 -0.7855 -2.4746  1.4580
   60SAPC     N 4565   0.543   0.905  11.007  0.4080 -0.4518  0.5649
   60SAPC   C12 4566   0.604   0.947  10.875  0.2663 -0.7057 -0.3794
   60SAPC  H12A 4567   0.548   0.902  10.795  1.7826  1.5686 -2.8852
   60SAPC  H12B 4568   0.699   0.905  10.849 -0.0489 -0.9976 -1.0587
   60SAPC   C13 4569   0.546   0.755  11.020  0.4286  0.1816  0.2017
   60SAPC  H13A 4570   0.518   0.719  11.117 -0.2493  0.0677 -0.0370
   60SAPC  H13B 4571   0.474   0.711  10.953 -0.2590 -2.3460  2.4325
   60SAPC  H13C 4572   0.646   0.719  10.998  0.3810  0.3640 -0.3373
   60SAPC   C14 4573   0.616   0.966  11.117  0.4843  0.4554  0.1162
   60SAPC  H14A 4574   0.721   0.942  11.113  0.5060  0.4246  0.6855
   60SAPC  H14B 4575   0.610   1.073  11.101  0.9481  0.2454 -1.6233
   60SAPC  H14C 4576   0.580   0.945  11.217 -0.4767 -0.6965 -0.4434
   60SAPC   C15 4577   0.400   0.935  11.018 -0.4906  0.7153  0.2771
   60SAPC  H15A 4578   0.364   0.885  11.106  1.1892  0.2776  0.7558
   60SAPC  H15B 4579   0.377   1.041  11.018 -0.0143  0.8395 -0.6897
   60SAPC  H15C 4580   0.349   0.888  10.936  1.0868 -0.6522  0.0255
   60SAPC   C11 4581   0.610   1.097  10.849 -0.4585  0.5446  0.1749
   60SAPC  H11A 4582   0.678   1.117  10.763 -1.3568  1.2164 -0.3960
   60SAPC  H11B 4583   0.656   1.152  10.933  0.9301  0.3013 -0.4020
   60SAPC     P 4584   0.399   1.157  10.710 -0.4164  0.2546  0.0310
   60SAPC   O13 4585   0.468   1.051  10.625  0.2227 -0.0985  0.2105
   60SAPC   O14 4586   0.260   1.136  10.746 -0.7816 -0.0192  0.5570
   60SAPC   O12 4587   0.480   1.160  10.840 -0.0551  0.5343 -0.1441
   60SAPC   O11 4588   0.430   1.303  10.653 -0.0580 -0.2933 -0.0704
   60SAPC    C1 4589   0.547   1.374  10.666 -0.6115 -0.6416 -1.1925
   60SAPC    HA 4590   0.537   1.440  10.755  1.5990  0.5239 -1.7380
   60SAPC    HB 4591   0.641   1.317  10.676  1.8857  2.9580 -2.2477
   60SAPC    C2 4592   0.560   1.459  10.543 -0.2863  0.5740 -0.4529
   60SAPC    HS 4593   0.643   1.529  10.568 -1.4649  0.6449  4.1060
   60SAPC   O21 4594   0.433   1.524  10.519 -0.1107  0.0091 -0.0539
   60SAPC   C21 4595   0.429   1.635  10.589  0.4244  0.0536  0.3574
   60SAPC   O22 4596   0.515   1.685  10.661  0.3489  0.3404  0.5098
   60SAPC   C22 4597   0.295   1.692  10.564  0.2441 -0.4651 -0.0569
   60SAPC   H2R 4598   0.296   1.739  10.463  1.4021 -2.6056 -1.1107
   60SAPC   H2S 4599   0.221   1.609  10.570  1.7940 -1.7896  1.3695
   60SAPC    C3 4600   0.595   1.369  10.418  0.4610  0.5169  0.3389
   60SAPC    HX 4601   0.512   1.296  10.401  1.8485 -0.7025 -1.6811
   60SAPC    HY 4602   0.688   1.313  10.439 -0.5403 -0.9338  1.1624
   60SAPC   O31 4603   0.597   1.437  10.289  0.1140  0.2289  0.1006
   60SAPC   C31 4604   0.704   1.503  10.260  0.5193  0.2561  0.4170
   60SAPC   O32 4605   0.799   1.519  10.336 -0.4581 -0.3081 -0.0617
   60SAPC   C32 4606   0.686   1.583  10.125  0.3005  0.2887 -0.3522
   60SAPC   H2X 4607   0.700   1.511  10.041  1.8760  1.4473 -1.1443
   60SAPC   H2Y 4608   0.772   1.652  10.108  0.8588 -0.7444 -1.9423
   60SAPC   C23 4609   0.264   1.806  10.665 -0.5243 -0.1565  0.7556
   60SAPC   H3R 4610   0.343   1.883  10.656 -1.6803  1.3555  2.5963
   60SAPC   H3S 4611   0.262   1.768  10.770 -3.2037  0.5206  1.0351
   60SAPC   C24 4612   0.128   1.883  10.645  0.2701  0.3415 -0.9870
   60SAPC   H4R 4613   0.147   1.932  10.547  1.7810  0.3521 -0.7084
   60SAPC   H4S 4614   0.127   1.971  10.713  0.4104 -1.5295  1.5929
   60SAPC   C25 4615  -0.006   1.818  10.664 -0.1121  0.7397 -0.0844
   60SAPC   H5R 4616   0.004   1.726  10.724  0.1702 -0.4330 -1.8533
   60SAPC   C26 4617  -0.116   1.860  10.605  0.7991 -0.8429 -0.5697
   60SAPC   H6R 4618  -0.214   1.827  10.643 -0.9426  3.6342 -0.5793
   60SAPC   C27 4619  -0.132   1.981  10.513  0.5492  0.7825 -0.2334
   60SAPC   H7R 4620  -0.135   1.944  10.408 -1.1616  0.6397 -0.1553
   60SAPC   H7S 4621  -0.051   2.056  10.528 -0.2959  1.8514 -0.8604
   60SAPC   C28 4622  -0.257   2.056  10.556  0.5452  0.3215  0.8432
   60SAPC   H8R 4623  -0.277   2.057  10.664  0.5989  3.6720  0.9266
   60SAPC   C29 4624  -0.333   2.138  10.474  0.8743  0.1621  0.5347
   60SAPC   H9R 4625  -0.416   2.198  10.514 -0.7793 -1.1415 -0.8286
   60SAPC  C210 4626  -0.306   2.161  10.329 -0.3085 -0.2975  0.2808
   60SAPC  H10R 4627  -0.380   2.229  10.280  0.8042  0.3637 -0.5388
   60SAPC  H10S 4628  -0.328   2.063  10.281  2.2025 -0.2267 -1.1746
   60SAPC  C211 4629  -0.173   2.199  10.277 -0.3326  0.5895 -0.2452
   60SAPC  H11R 4630  -0.087   2.168  10.339 -0.1218  0.4233 -0.6133
   60SAPC  C212 4631  -0.139   2.256  10.158  0.4221  0.1799  0.0116
   60SAPC  H12R 4632  -0.037   2.293  10.142  0.9514 -1.4865 -0.5980
   60SAPC  C213 4633  -0.238   2.288  10.053  0.1137 -0.0264 -0.4433
   60SAPC  H13R 4634  -0.314   2.358  10.094 -1.5282 -1.7860 -0.2937
   60SAPC  H13S 4635  -0.292   2.194  10.030  0.7630 -0.2891 -0.9273
   60SAPC  C214 4636  -0.192   2.344   9.921 -0.1331  0.9443  0.0503
   60SAPC  H14R 4637  -0.090   2.385   9.923  0.2493  0.0509 -0.2012
   60SAPC  C215 4638  -0.255   2.341   9.804  0.2707  1.3719  0.1180
   60SAPC  H15R 4639  -0.208   2.396   9.721 -0.7665  1.7313 -0.2517
   60SAPC  C216 4640  -0.382   2.272   9.773  0.3075 -0.4757 -0.1431
   60SAPC  H16R 4641  -0.461   2.350   9.786 -0.4725 -0.9877 -1.5202
   60SAPC  H16S 4642  -0.409   2.190   9.842  0.7723  0.7328  1.5208
   60SAPC  C217 4643  -0.409   2.240   9.620  0.0091  0.1185 -0.3411
   60SAPC  H17R 4644  -0.519   2.235   9.606 -0.1046  0.2110  0.4278
   60SAPC  H17S 4645  -0.360   2.144   9.595  1.4015  1.0491 -1.3574
   60SAPC  C218 4646  -0.356   2.347   9.528 -0.3301  0.2591  0.0590
   60SAPC  H18R 4647  -0.245   2.339   9.527 -0.1331  1.9921  1.6278
   60SAPC  H18S 4648  -0.374   2.449   9.570 -0.0421 -0.3000  1.6065
   60SAPC  C219 4649  -0.410   2.319   9.387 -1.1317 -0.2469  0.5473
   60SAPC  H19R 4650  -0.516   2.349   9.376 -1.2627  0.0030  2.1693
   60SAPC  H19S 4651  -0.391   2.212   9.366  0.7906  0.3502 -1.0996
   60SAPC  C220 4652  -0.342   2.394   9.268 -0.3460  0.0166  0.3908
   60SAPC  H20R 4653  -0.235   2.364   9.263  0.0554  1.5521 -2.2048
   60SAPC  H20S 4654  -0.354   2.503   9.285 -0.5096  0.0290  0.2056
   60SAPC  H20T 4655  -0.392   2.356   9.176 -0.1611  1.3804 -0.2878
   60SAPC   C33 4656   0.540   1.632  10.102 -0.2768 -0.6047 -0.5353
   60SAPC   H3X 4657   0.505   1.694  10.188 -1.6031 -1.1386 -0.6563
   60SAPC   H3Y 4658   0.474   1.543  10.104 -1.0929 -0.0066  0.9374
   60SAPC   C34 4659   0.522   1.716   9.975 -0.3332 -0.3047 -0.5890
   60SAPC   H4X 4660   0.590   1.803   9.973 -0.0376 -0.4037  1.9485
   60SAPC   H4Y 4661   0.420   1.754   9.953  0.2648  1.3590 -0.5863
   60SAPC   C35 4662   0.561   1.628   9.847  0.4880 -0.5621 -0.1242
   60SAPC   H5X 4663   0.484   1.548   9.855  1.0044 -0.9853  0.7312
   60SAPC   H5Y 4664   0.666   1.595   9.864  0.3635 -0.7221  0.3414
   60SAPC   C36 4665   0.530   1.696   9.719  0.7214  0.4756  0.0058
   60SAPC   H6X 4666   0.596   1.784   9.704 -1.0362  1.5629 -1.9432
   60SAPC   H6Y 4667   0.428   1.740   9.722 -0.5851 -2.3466  0.0405
   60SAPC   C37 4668   0.544   1.601   9.600 -0.0797  0.2773  0.1902
   60SAPC   H7X 4669   0.476   1.513   9.605  2.0507 -1.5594 -1.4348
   60SAPC   H7Y 4670   0.646   1.560   9.614  0.6019  1.4002 -1.2877
   60SAPC   C38 4671   0.534   1.678   9.465 -0.0708  0.4860 -0.3888
   60SAPC   H8X 4672   0.529   1.589   9.399 -1.7577 -1.2105  1.8576
   60SAPC   H8Y 4673   0.620   1.745   9.442  1.3726 -0.6012  1.4961
   60SAPC   C39 4674   0.401   1.747   9.452  0.0982  0.1765 -0.0434
   60SAPC   H9X 4675   0.394   1.840   9.513 -1.7217 -0.1146  0.2408
   60SAPC   H9Y 4676   0.318   1.681   9.484  1.4641 -1.6029 -0.0308
   60SAPC  C310 4677   0.389   1.801   9.307 -0.1326 -0.0482 -0.3411
   60SAPC  H10X 4678   0.486   1.842   9.272 -0.0350 -0.1941 -0.2432
   60SAPC  H10Y 4679   0.311   1.880   9.304 -0.2055 -0.0790 -3.7617
   60SAPC  C311 4680   0.321   1.691   9.220 -0.4675 -0.6672 -0.0394
   60SAPC  H11X 4681   0.281   1.750   9.134 -2.7165 -0.2355  1.2100
   60SAPC  H11Y 4682   0.237   1.633   9.264  1.6566 -2.2237  2.2429
   60SAPC  C312 4683   0.423   1.595   9.163  0.7308  1.3231 -0.7210
   60SAPC  H12X 4684   0.450   1.508   9.227 -0.2928  0.0331 -1.9500
   60SAPC  H12Y 4685   0.516   1.646   9.132  0.6670  0.9726 -1.5063
   60SAPC  C313 4686   0.375   1.524   9.024 -0.0200 -0.0288 -0.3465
   60SAPC  H13X 4687   0.363   1.597   8.941  3.1880  0.2592 -0.6678
   60SAPC  H13Y 4688   0.270   1.501   9.051 -1.0456  2.8628 -1.5156
   60SAPC  C314 4689   0.459   1.404   8.983 -0.6169  0.2584  0.3748
   60SAPC  H14X 4690   0.474   1.338   9.071 -0.1416  0.1798  0.2391
   60SAPC  H14Y 4691   0.556   1.458   8.976 -0.0944 -0.7639 -0.5540
   60SAPC  C315 4692   0.404   1.339   8.856  0.3434  0.0325  0.5260
   60SAPC  H15X 4693   0.347   1.408   8.791  1.1209  0.0340 -0.1753
   60SAPC  H15Y 4694   0.338   1.257   8.892 -0.3893  0.9589  1.3711
   60SAPC  C316 4695   0.516   1.264   8.773  0.0660  0.2002 -0.7536
   60SAPC  H16X 4696   0.582   1.346   8.736 -0.0885  1.0222  0.7276
   60SAPC  H16Y 4697   0.458   1.218   8.690 -0.5856 -2.2381  0.9217
   60SAPC  C317 4698   0.590   1.162   8.863 -0.5725 -0.6671  0.7374
   60SAPC  H17X 4699   0.641   1.218   8.944  0.2161 -1.0626  0.5208
   60SAPC  H17Y 4700   0.657   1.116   8.787 -2.1095 -1.4298 -0.2321
   60SAPC  C318 4701   0.509   1.052   8.924  0.1007  0.1321 -0.5103
   60SAPC  H18X 4702   0.460   0.987   8.849 -0.5141  0.1863 -0.1685
   60SAPC  H18Y 4703   0.416   1.088   8.973  1.5044  1.8970  1.0308
   60SAPC  H18Z 4704   0.572   0.991   8.992 -0.1225 -1.6075 -1.8108
   61SAPC     N 4705   0.170   5.394  11.268 -0.0017  0.4558 -0.4361
   61SAPC   C12 4706   0.243   5.429  11.146  0.0999  0.3289  0.4202
   61SAPC  H12A 4707   0.281   5.335  11.108 -2.8264 -1.0896  0.7388
   61SAPC  H12B 4708   0.335   5.480  11.172  0.4608 -0.3128  0.4360
   61SAPC   C13 4709   0.089   5.509  11.335 -0.6797 -0.2130  0.0671
   61SAPC  H13A 4710   0.151   5.598  11.336 -2.2075  0.9081 -0.7124
   61SAPC  H13B 4711   0.023   5.538  11.255 -0.1865  1.0117  0.0828
   61SAPC  H13C 4712   0.035   5.479  11.423  1.7683  1.4900  2.2978
   61SAPC   C14 4713   0.076   5.289  11.241 -0.1778 -0.5092  0.0195
   61SAPC  H14A 4714   0.111   5.195  11.200  0.6279 -0.8433  1.3921
   61SAPC  H14B 4715   0.011   5.275  11.327  0.9538  0.5390  1.0786
   61SAPC  H14C 4716   0.006   5.318  11.164  0.3989 -0.1862 -0.3796
   61SAPC   C15 4717   0.268   5.344  11.367  0.0444 -0.5883 -0.3970
   61SAPC  H15A 4718   0.345   5.288  11.316 -0.4346 -0.2260 -1.5510
   61SAPC  H15B 4719   0.310   5.425  11.426  3.8507 -3.6141  1.5038
   61SAPC  H15C 4720   0.225   5.275  11.438  2.7880 -0.2328  1.7666
   61SAPC   C11 4721   0.167   5.510  11.034 -0.3672 -0.4768  0.5309
   61SAPC  H11A 4722   0.071   5.462  11.003 -0.5280  0.7938 -1.0840
   61SAPC  H11B 4723   0.210   5.508  10.932  0.9557 -0.2149  1.0649
   61SAPC     P 4724   0.242   5.756  11.066  0.2886 -0.2348 -0.3729
   61SAPC   O13 4725   0.187   5.861  11.150 -0.5390 -0.2708  0.1419
   61SAPC   O14 4726   0.374   5.712  11.105  0.0485 -0.1471  0.0990
   61SAPC   O12 4727   0.142   5.648  11.082 -0.5265 -0.0150  0.6787
   61SAPC   O11 4728   0.237   5.798  10.913 -0.4655  0.1044  0.2075
   61SAPC    C1 4729   0.110   5.823  10.847 -0.6268 -0.2278 -0.2611
   61SAPC    HA 4730   0.019   5.794  10.904 -0.8226  0.4193 -0.2360
   61SAPC    HB 4731   0.101   5.931  10.822 -1.5082 -0.6935 -2.1812
   61SAPC    C2 4732   0.091   5.743  10.716  0.2252 -0.4134 -0.3713
   61SAPC    HS 4733   0.119   5.638  10.739  1.6893 -0.0949 -0.5770
   61SAPC   O21 4734   0.163   5.814  10.617  0.0307  0.5031 -0.1539
   61SAPC   C21 4735   0.239   5.739  10.540 -0.1946 -0.4609 -0.0820
   61SAPC   O22 4736   0.253   5.617  10.549 -0.0947  0.1258 -1.1735
   61SAPC   C22 4737   0.301   5.829  10.432  0.0218  0.2961 -0.0729
   61SAPC   H2R 4738   0.221   5.904  10.415 -0.2140  0.5040  1.7948
   61SAPC   H2S 4739   0.389   5.878  10.478  1.6424  0.8729 -3.4359
   61SAPC    C3 4740  -0.063   5.743  10.678  0.3394  0.8276 -1.1655
   61SAPC    HX 4741  -0.107   5.846  10.678 -0.6097  0.4609  0.3360
   61SAPC    HY 4742  -0.113   5.674  10.750  2.4113 -0.5997 -1.0362
   61SAPC   O31 4743  -0.096   5.688  10.549 -0.0844  0.2124 -0.1195
   61SAPC   C31 4744  -0.089   5.554  10.531 -0.0623 -0.0965  0.1716
   61SAPC   O32 4745  -0.061   5.475  10.624  0.7952 -0.1033 -0.4021
   61SAPC   C32 4746  -0.146   5.517  10.391 -0.3750  0.1209  0.8617
   61SAPC   H2X 4747  -0.154   5.609  10.330 -0.1290 -0.7074 -0.4699
   61SAPC   H2Y 4748  -0.246   5.473  10.413  0.2273 -0.6054  2.2334
   61SAPC   C23 4749   0.339   5.746  10.308  0.6926 -0.6876  0.2143
   61SAPC   H3R 4750   0.252   5.697  10.261  0.4084  1.1897 -1.3479
   61SAPC   H3S 4751   0.420   5.674  10.332  0.1188 -1.1606  0.7502
   61SAPC   C24 4752   0.391   5.841  10.194 -1.0279 -0.5403 -0.6314
   61SAPC   H4R 4753   0.471   5.897  10.248 -1.7282  0.2027 -0.3369
   61SAPC   H4S 4754   0.318   5.918  10.160 -0.9421 -0.0592  0.2400
   61SAPC   C25 4755   0.454   5.772  10.076 -0.5781 -0.3673  0.6054
   61SAPC   H5R 4756   0.557   5.736  10.082 -0.5577 -0.8870 -1.7784
   61SAPC   C26 4757   0.389   5.755   9.962  0.3103 -0.0376 -0.0390
   61SAPC   H6R 4758   0.440   5.703   9.880 -0.2362  0.3462 -0.6332
   61SAPC   C27 4759   0.251   5.810   9.929  0.3018  0.2618 -1.1508
   61SAPC   H7R 4760   0.272   5.881   9.845  0.7292  0.7583 -0.6329
   61SAPC   H7S 4761   0.203   5.863  10.014 -1.3159 -2.3974 -0.2745
   61SAPC   C28 4762   0.156   5.700   9.890  0.6869 -0.4792 -0.2826
   61SAPC   H8R 4763   0.100   5.660   9.976  3.0234 -1.9418  0.6857
   61SAPC   C29 4764   0.150   5.630   9.781  0.2106  0.2339  0.4470
   61SAPC   H9R 4765   0.074   5.552   9.791  0.8900 -0.4748  0.1937
   61SAPC  C210 4766   0.236   5.645   9.654 -0.1964 -0.0857  0.3080
   61SAPC  H10R 4767   0.294   5.551   9.653  0.1952  0.1392  1.3077
   61SAPC  H10S 4768   0.306   5.731   9.651  0.3161 -0.4688  1.0664
   61SAPC  C211 4769   0.163   5.641   9.523  0.0080 -0.2116  0.4618
   61SAPC  H11R 4770   0.055   5.658   9.538 -0.2374 -1.4522  0.2063
   61SAPC  C212 4771   0.221   5.624   9.403  0.4750 -0.8490 -0.1319
   61SAPC  H12R 4772   0.167   5.611   9.308  1.9802 -3.8327 -0.6912
   61SAPC  C213 4773   0.369   5.619   9.387  0.6126 -0.4731 -0.3660
   61SAPC  H13R 4774   0.419   5.598   9.484  0.5114 -1.3086 -0.4843
   61SAPC  H13S 4775   0.409   5.717   9.353  1.8084 -0.8886 -0.2199
   61SAPC  C214 4776   0.403   5.503   9.290  0.5824  0.0059 -0.3078
   61SAPC  H14R 4777   0.370   5.411   9.340 -0.1786  0.5874  0.2902
   61SAPC  C215 4778   0.450   5.513   9.161 -0.1577  0.0560  0.9163
   61SAPC  H15R 4779   0.463   5.414   9.115  1.6068  0.7373 -0.1471
   61SAPC  C216 4780   0.492   5.633   9.078 -0.3122 -0.1726 -0.4164
   61SAPC  H16R 4781   0.512   5.716   9.148 -0.1976 -0.7037  0.1972
   61SAPC  H16S 4782   0.413   5.661   9.005  0.1908 -3.1212 -2.2682
   61SAPC  C217 4783   0.611   5.610   8.988 -0.1968  0.1913  0.5426
   61SAPC  H17R 4784   0.688   5.569   9.056  0.8997 -1.0442 -1.3609
   61SAPC  H17S 4785   0.656   5.703   8.946 -0.7406  0.1611 -0.1222
   61SAPC  C218 4786   0.595   5.503   8.878 -0.5662 -0.3490  0.6260
   61SAPC  H18R 4787   0.508   5.529   8.814 -0.6082  1.4819  1.3712
   61SAPC  H18S 4788   0.586   5.406   8.931  0.5329 -0.2139  1.0845
   61SAPC  C219 4789   0.721   5.501   8.786 -0.0955 -0.2518  0.1782
   61SAPC  H19R 4790   0.806   5.478   8.855  1.8625  0.0877 -1.9920
   61SAPC  H19S 4791   0.729   5.600   8.736  0.7326 -1.2538 -1.7642
   61SAPC  C220 4792   0.710   5.383   8.688 -0.3238 -0.0870 -0.3053
   61SAPC  H20R 4793   0.627   5.416   8.622  0.3809  0.5376 -0.9063
   61SAPC  H20S 4794   0.688   5.292   8.747 -0.4988 -0.9701 -1.6985
   61SAPC  H20T 4795   0.802   5.366   8.628  0.2802  2.3006 -0.1825
   61SAPC   C33 4796  -0.068   5.406  10.308 -0.0825 -0.0148 -0.0103
   61SAPC   H3X 4797  -0.055   5.313  10.368  1.3367  1.0111  1.3574
   61SAPC   H3Y 4798   0.029   5.459  10.297  1.2686 -2.1345  1.0395
   61SAPC   C34 4799  -0.140   5.384  10.169 -0.2272  0.3221 -0.0300
   61SAPC   H4X 4800  -0.175   5.485  10.139  1.6984  1.1109  0.2406
   61SAPC   H4Y 4801  -0.229   5.319  10.179 -0.3718  0.6789  1.2127
   61SAPC   C35 4802  -0.047   5.323  10.061  0.6320 -0.2601  0.2150
   61SAPC   H5X 4803  -0.040   5.216  10.090 -1.9289 -1.0981 -1.8552
   61SAPC   H5Y 4804   0.051   5.375  10.053  1.3581 -1.5896  0.0865
   61SAPC   C36 4805  -0.123   5.338   9.929 -0.5922  0.1421 -0.5047
   61SAPC   H6X 4806  -0.149   5.441   9.896  0.8884  1.2379  1.5395
   61SAPC   H6Y 4807  -0.219   5.286   9.948 -0.6670  0.9602  1.5063
   61SAPC   C37 4808  -0.050   5.266   9.816 -0.1689 -0.8570  0.1211
   61SAPC   H7X 4809  -0.039   5.157   9.835  0.4017 -0.8394 -0.1046
   61SAPC   H7Y 4810   0.054   5.304   9.811 -0.4021 -0.3475 -1.6224
   61SAPC   C38 4811  -0.104   5.290   9.669 -0.2565  0.4486 -0.2158
   61SAPC   H8X 4812  -0.122   5.399   9.661  1.7012  1.0515  2.0985
   61SAPC   H8Y 4813  -0.199   5.243   9.638 -1.5251  1.7712  1.4882
   61SAPC   C39 4814  -0.008   5.252   9.550  0.2775 -0.5769 -0.1415
   61SAPC   H9X 4815   0.013   5.143   9.561 -0.5005 -0.9239 -1.7706
   61SAPC   H9Y 4816   0.089   5.304   9.564  0.0091 -0.0811 -0.0919
   61SAPC  C310 4817  -0.062   5.289   9.416  0.6689  0.2174 -0.0736
   61SAPC  H10X 4818  -0.098   5.394   9.424 -0.6373 -0.0818 -1.6693
   61SAPC  H10Y 4819  -0.154   5.232   9.394 -0.1242  1.6549 -0.6079
   61SAPC  C311 4820   0.039   5.274   9.307 -0.3234  0.2610 -0.0626
   61SAPC  H11X 4821   0.026   5.179   9.250 -1.3364  0.4423 -0.1634
   61SAPC  H11Y 4822   0.138   5.288   9.356 -0.8760  1.1448  0.8464
   61SAPC  C312 4823   0.022   5.393   9.208 -0.6529  0.4029  0.6378
   61SAPC  H12X 4824   0.044   5.484   9.268  0.6657  0.3210  0.3174
   61SAPC  H12Y 4825  -0.080   5.400   9.165 -0.9309  1.9475  1.4825
   61SAPC  C313 4826   0.123   5.378   9.083  0.6009 -0.2824 -0.6662
   61SAPC  H13X 4827   0.215   5.332   9.126 -1.2966 -3.5013  0.2600
   61SAPC  H13Y 4828   0.146   5.478   9.041  2.7131 -1.1704 -1.7845
   61SAPC  C314 4829   0.068   5.274   8.985  0.5670  0.8125  0.1778
   61SAPC  H14X 4830   0.060   5.178   9.039  3.6538 -0.1726 -0.9201
   61SAPC  H14Y 4831   0.142   5.271   8.902 -0.8923  0.8223 -1.1893
   61SAPC  C315 4832  -0.062   5.313   8.917 -0.3991  0.0723  0.5554
   61SAPC  H15X 4833  -0.047   5.418   8.885  1.8470  0.0189  1.2786
   61SAPC  H15Y 4834  -0.150   5.312   8.985 -1.1948 -0.0853 -0.4490
   61SAPC  C316 4835  -0.087   5.234   8.784 -0.2901  0.2225 -0.7630
   61SAPC  H16X 4836  -0.102   5.126   8.808  2.1918  0.1079  0.6564
   61SAPC  H16Y 4837   0.003   5.236   8.720 -1.0454  2.2544 -1.8189
   61SAPC  C317 4838  -0.210   5.279   8.701  0.0414  0.0111 -0.5334
   61SAPC  H17X 4839  -0.219   5.390   8.706 -0.7031 -0.0926  0.9402
   61SAPC  H17Y 4840  -0.306   5.244   8.746 -0.1196  0.5026 -0.4913
   61SAPC  C318 4841  -0.215   5.212   8.566 -0.5121  0.3513  0.1681
   61SAPC  H18X 4842  -0.125   5.250   8.513 -0.7608  2.2329  1.0254
   61SAPC  H18Y 4843  -0.308   5.225   8.507  0.9247  0.7193 -2.1546
   61SAPC  H18Z 4844  -0.200   5.103   8.582  2.5191  0.5190 -0.9474
   62SAPC     N 4845   5.823   4.846  11.143  0.6765  0.6363 -0.3966
   62SAPC   C12 4846   5.811   4.770  11.007  0.5302  0.3874 -0.6695
   62SAPC  H12A 4847   5.729   4.803  10.945 -1.4221 -1.5995  0.7190
   62SAPC  H12B 4848   5.784   4.668  11.027 -3.1783  1.5486  1.2013
   62SAPC   C13 4849   5.680   4.859  11.202  0.2370 -0.0566  0.5858
   62SAPC  H13A 4850   5.678   4.910  11.297 -0.7371 -0.3788  0.7451
   62SAPC  H13B 4851   5.608   4.909  11.140 -0.0531  0.7107  1.5242
   62SAPC  H13C 4852   5.643   4.758  11.211 -1.4890  0.5913  1.0440
   62SAPC   C14 4853   5.911   4.761  11.238  0.6839 -0.1500 -0.4276
   62SAPC  H14A 4854   6.007   4.762  11.189  1.6738 -2.1080  1.3130
   62SAPC  H14B 4855   5.930   4.811  11.332 -0.1265 -1.2310  0.3399
   62SAPC  H14C 4856   5.877   4.659  11.253  1.8403 -0.4437  0.3565
   62SAPC   C15 4857   5.888   4.979  11.121  0.5207  0.3355  0.5252
   62SAPC  H15A 4858   5.820   5.034  11.058  1.9427  0.4320 -1.0044
   62SAPC  H15B 4859   5.906   5.028  11.216  0.6619 -1.7250  1.6137
   62SAPC  H15C 4860   5.979   4.975  11.063 -0.2552 -0.7428 -0.6474
   62SAPC   C11 4861   5.938   4.771  10.914 -0.6060 -0.1456  0.4525
   62SAPC  H11A 4862   5.917   4.705  10.826  2.5296 -1.2942  0.4325
   62SAPC  H11B 4863   6.031   4.733  10.961 -0.1340  1.1921  0.6150
   62SAPC     P 4864   5.869   4.964  10.754 -0.3000 -0.3126  0.3889
   62SAPC   O13 4865   5.730   4.933  10.791  0.5348 -0.2970 -0.5275
   62SAPC   O14 4866   5.904   5.108  10.727 -0.2666  0.0427 -0.3677
   62SAPC   O12 4867   5.971   4.895  10.860 -0.5534 -0.4662  0.3876
   62SAPC   O11 4868   5.896   4.880  10.623 -0.0676  0.7823  0.5510
   62SAPC    C1 4869   6.025   4.862  10.554  0.5668  0.1587 -0.1506
   62SAPC    HA 4870   6.075   4.959  10.532 -0.9651  0.6670 -1.5752
   62SAPC    HB 4871   6.097   4.794  10.605 -1.2649 -2.0269 -0.3377
   62SAPC    C2 4872   6.006   4.802  10.410 -0.1225  0.2348  0.8646
   62SAPC    HS 4873   5.950   4.706  10.420 -0.8681  0.6807  1.0586
   62SAPC   O21 4874   6.134   4.785  10.346  0.2576 -0.0511  0.8248
   62SAPC   C21 4875   6.185   4.670  10.351 -0.2804 -0.5060  0.1991
   62SAPC   O22 4876   6.142   4.575  10.401 -0.1126  0.1446  0.2937
   62SAPC   C22 4877   6.325   4.672  10.283 -0.6410 -0.0335  0.9408
   62SAPC   H2R 4878   6.326   4.769  10.228 -1.3776 -1.3859 -1.6181
   62SAPC   H2S 4879   6.400   4.693  10.362 -1.2342 -1.6369  1.9691
   62SAPC    C3 4880   5.919   4.895  10.323  0.4657  0.4539  0.1659
   62SAPC    HX 4881   5.942   5.000  10.350 -0.2978  0.3716  1.1892
   62SAPC    HY 4882   5.812   4.888  10.352  0.6449  0.1420  0.7637
   62SAPC   O31 4883   5.934   4.880  10.180 -0.2858  0.1516 -0.3455
   62SAPC   C31 4884   5.866   4.764  10.140  0.0702  0.0523  0.1566
   62SAPC   O32 4885   5.791   4.697  10.210  0.1790  0.1118  0.3124
   62SAPC   C32 4886   5.905   4.739   9.991  0.0782 -0.2113  0.1341
   62SAPC   H2X 4887   6.016   4.751   9.991  0.1527 -0.3909  2.3320
   62SAPC   H2Y 4888   5.843   4.810   9.932  1.1815 -0.1208 -0.9721
   62SAPC   C23 4889   6.344   4.563  10.174 -0.4658 -0.1326  0.4494
   62SAPC   H3R 4890   6.305   4.467  10.215 -0.1325 -0.5364 -0.1749
   62SAPC   H3S 4891   6.452   4.553  10.153 -0.9069 -1.6967 -1.3846
   62SAPC   C24 4892   6.285   4.589  10.033 -0.0066  0.2787  0.1302
   62SAPC   H4R 4893   6.330   4.680   9.989  0.4991  0.3321  0.7399
   62SAPC   H4S 4894   6.174   4.599  10.026 -0.0695 -0.8710 -0.8551
   62SAPC   C25 4895   6.325   4.469   9.942 -0.0840 -0.0118  0.2589
   62SAPC   H5R 4896   6.302   4.370   9.983 -0.3576  0.3356  0.9790
   62SAPC   C26 4897   6.386   4.470   9.820  0.3837  0.3103 -0.2144
   62SAPC   H6R 4898   6.412   4.376   9.769  1.8478  0.9424 -0.6820
   62SAPC   C27 4899   6.418   4.600   9.746  0.0007  0.6773  0.0766
   62SAPC   H7R 4900   6.524   4.589   9.715 -0.4055 -1.5394 -0.6368
   62SAPC   H7S 4901   6.419   4.694   9.806 -2.2146  0.5097  0.4448
   62SAPC   C28 4902   6.321   4.616   9.632 -0.0402 -0.0151 -1.0701
   62SAPC   H8R 4903   6.219   4.631   9.670  0.5034 -1.9815  1.5059
   62SAPC   C29 4904   6.345   4.596   9.499  0.0160 -0.3459  0.5047
   62SAPC   H9R 4905   6.265   4.605   9.424  0.0796  3.9726  0.7230
   62SAPC  C210 4906   6.484   4.568   9.437 -0.5655  0.2147  0.3652
   62SAPC  H10R 4907   6.504   4.473   9.491 -0.9487 -1.7583 -2.7220
   62SAPC  H10S 4908   6.562   4.639   9.472  0.5406 -1.0422  0.5283
   62SAPC  C211 4909   6.482   4.552   9.285  0.0119  0.2128  0.1531
   62SAPC  H11R 4910   6.452   4.635   9.220  0.3398 -0.4026 -0.7918
   62SAPC  C212 4911   6.518   4.435   9.222  0.5340 -0.1544  0.6263
   62SAPC  H12R 4912   6.487   4.429   9.116 -2.9305  2.8764  1.2870
   62SAPC  C213 4913   6.558   4.307   9.288 -0.1723  0.5747 -0.3276
   62SAPC  H13R 4914   6.493   4.231   9.240  0.9654 -1.0630  0.6339
   62SAPC  H13S 4915   6.535   4.287   9.395  0.5269 -2.1895 -0.6338
   62SAPC  C214 4916   6.709   4.305   9.284 -0.5745 -0.3203  0.0650
   62SAPC  H14R 4917   6.761   4.400   9.302 -0.1678 -0.7471  1.1837
   62SAPC  C215 4918   6.777   4.202   9.233  0.1112  0.0778 -0.2787
   62SAPC  H15R 4919   6.887   4.206   9.234  0.1369 -0.4358  0.7050
   62SAPC  C216 4920   6.735   4.064   9.187 -0.0931  0.4508  0.5488
   62SAPC  H16R 4921   6.624   4.066   9.188 -0.1309 -0.6061  1.5568
   62SAPC  H16S 4922   6.780   3.991   9.258  2.1079 -0.7095 -1.9017
   62SAPC  C217 4923   6.802   4.040   9.045 -0.2387 -0.1767 -0.1747
   62SAPC  H17R 4924   6.777   3.935   9.019  2.2520 -0.9560  0.3879
   62SAPC  H17S 4925   6.912   4.035   9.051 -0.2524 -2.7030 -0.9239
   62SAPC  C218 4926   6.763   4.141   8.939  0.6230 -0.7961 -0.4063
   62SAPC  H18R 4927   6.820   4.114   8.848  1.0010  1.1791 -0.8167
   62SAPC  H18S 4928   6.796   4.242   8.971 -0.4433 -0.7465  0.5986
   62SAPC  C219 4929   6.615   4.137   8.899 -0.4671 -0.0999 -0.2299
   62SAPC  H19R 4930   6.582   4.225   8.840 -3.1812 -1.8350 -1.5111
   62SAPC  H19S 4931   6.556   4.133   8.994  0.5583 -2.1521  0.3939
   62SAPC  C220 4932   6.573   4.010   8.822  0.4005  0.1858 -0.3944
   62SAPC  H20R 4933   6.617   3.918   8.868 -2.4381 -0.9556  0.2136
   62SAPC  H20S 4934   6.617   4.009   8.720  2.6928  1.8634  0.4891
   62SAPC  H20T 4935   6.463   4.001   8.827  0.4467  0.2894  1.1102
   62SAPC   C33 4936   5.855   4.599   9.945  0.6895 -0.2695 -0.2134
   62SAPC   H3X 4937   5.747   4.605   9.921  0.8320 -1.1792 -1.1506
   62SAPC   H3Y 4938   5.875   4.518  10.018 -2.1525 -0.6084  0.2755
   62SAPC   C34 4939   5.914   4.551   9.809  0.2683 -0.7388 -0.1786
   62SAPC   H4X 4940   5.892   4.447   9.779 -0.2803 -0.8147  0.4641
   62SAPC   H4Y 4941   6.023   4.561   9.824  0.0285  1.1435  0.6708
   62SAPC   C35 4942   5.878   4.649   9.696  0.3942 -0.0258  0.5228
   62SAPC   H5X 4943   5.920   4.746   9.730  2.1700 -0.5628 -0.0351
   62SAPC   H5Y 4944   5.771   4.680   9.686  0.1360 -0.5151  1.5611
   62SAPC   C36 4945   5.934   4.603   9.561  0.2242 -0.6268  0.0695
   62SAPC   H6X 4946   5.900   4.500   9.541 -0.7218 -0.0583 -1.4349
   62SAPC   H6Y 4947   6.043   4.599   9.543 -0.0374 -3.5348 -1.4270
   62SAPC   C37 4948   5.864   4.681   9.446 -0.4817 -0.4600  0.2315
   62SAPC   H7X 4949   5.894   4.787   9.458  1.9008 -1.2255  1.6408
   62SAPC   H7Y 4950   5.757   4.695   9.471 -0.3713  0.3785  0.2726
   62SAPC   C38 4951   5.889   4.621   9.306  0.3981  0.2510  0.6156
   62SAPC   H8X 4952   5.807   4.659   9.241  0.7980 -1.1144 -0.7575
   62SAPC   H8Y 4953   5.874   4.511   9.303 -0.1028  0.3105  0.9475
   62SAPC   C39 4954   6.010   4.660   9.226  0.1450  0.1494 -0.0391
   62SAPC   H9X 4955   6.099   4.637   9.289  1.1396  2.4771 -0.4740
   62SAPC   H9Y 4956   6.024   4.771   9.224  2.5170  0.0198  2.7516
   62SAPC  C310 4957   6.024   4.602   9.087 -0.2208  0.6812 -0.4636
   62SAPC  H10X 4958   5.943   4.643   9.024 -1.4505  0.5790  0.9982
   62SAPC  H10Y 4959   6.003   4.493   9.093 -1.0250  0.9002  1.5515
   62SAPC  C311 4960   6.156   4.639   9.010  0.0833 -0.4623  0.2016
   62SAPC  H11X 4961   6.228   4.606   9.087 -2.2458 -2.7467  1.5611
   62SAPC  H11Y 4962   6.149   4.750   9.004 -0.1669 -0.4515  0.6756
   62SAPC  C312 4963   6.175   4.574   8.873 -0.2571 -0.0959 -0.0416
   62SAPC  H12X 4964   6.093   4.605   8.804 -2.0010 -2.4586  0.8413
   62SAPC  H12Y 4965   6.171   4.463   8.879 -1.3206 -0.1468 -1.2167
   62SAPC  C313 4966   6.307   4.613   8.804 -0.1455 -0.0657  0.4373
   62SAPC  H13X 4967   6.297   4.569   8.702 -1.7762  1.7091 -0.2195
   62SAPC  H13Y 4968   6.389   4.565   8.862  0.5105 -1.4850 -1.5529
   62SAPC  C314 4969   6.339   4.760   8.782  1.1907 -0.4598  0.0270
   62SAPC  H14X 4970   6.439   4.781   8.740 -0.1267  1.7449 -2.3395
   62SAPC  H14Y 4971   6.350   4.812   8.879  0.7831  0.6600 -0.5054
   62SAPC  C315 4972   6.247   4.834   8.689 -0.1329 -0.4088  0.1459
   62SAPC  H15X 4973   6.149   4.844   8.741  1.1448  1.0889  2.4525
   62SAPC  H15Y 4974   6.245   4.770   8.598  0.0676 -0.2456  0.0282
   62SAPC  C316 4975   6.285   4.985   8.659 -0.5801  0.0357 -0.5217
   62SAPC  H16X 4976   6.380   4.981   8.602 -0.2722  0.9917 -0.0857
   62SAPC  H16Y 4977   6.307   5.041   8.752  0.8107  0.4208 -1.0589
   62SAPC  C317 4978   6.188   5.057   8.570 -0.3923  0.0609  0.1821
   62SAPC  H17X 4979   6.209   5.165   8.555 -4.7773  1.1374  0.5076
   62SAPC  H17Y 4980   6.082   5.057   8.603 -1.2097 -0.2665 -2.2484
   62SAPC  C318 4981   6.186   5.010   8.422  0.8003 -0.5400 -0.4825
   62SAPC  H18X 4982   6.093   5.040   8.368 -0.7111 -1.8316  1.2542
   62SAPC  H18Y 4983   6.202   4.900   8.416 -0.1999 -0.6494 -1.7175
   62SAPC  H18Z 4984   6.280   5.049   8.377  1.8665 -2.2514  0.1867
   63SAPC     N 4985   6.461   2.916   6.514 -0.3555 -0.1215 -0.5438
   63SAPC   C12 4986   6.311   2.913   6.539  0.2221  0.0897 -0.0413
   63SAPC  H12A 4987   6.257   2.821   6.520 -1.4415  1.2562 -1.1251
   63SAPC  H12B 4988   6.260   2.978   6.471  0.9506  0.3661 -0.3304
   63SAPC   C13 4989   6.505   3.052   6.564 -0.0044 -0.3444  0.4874
   63SAPC  H13A 4990   6.469   3.135   6.505  1.9356 -0.6056 -1.1795
   63SAPC  H13B 4991   6.480   3.070   6.668 -1.6077 -0.9011  0.2212
   63SAPC  H13C 4992   6.613   3.052   6.556 -0.1015 -1.6472 -1.2993
   63SAPC   C14 4993   6.518   2.797   6.589  0.0331  0.7073  0.2370
   63SAPC  H14A 4994   6.463   2.706   6.572  0.8830  0.2428 -0.0931
   63SAPC  H14B 4995   6.620   2.771   6.563  1.2653  0.6997  4.3727
   63SAPC  H14C 4996   6.521   2.808   6.696  0.1057 -1.4733  0.4977
   63SAPC   C15 4997   6.495   2.904   6.371  0.3495  0.0961  0.0880
   63SAPC  H15A 4998   6.466   2.997   6.325  1.2837  0.2655 -0.1935
   63SAPC  H15B 4999   6.603   2.910   6.359  0.4987 -0.1571  1.2065
   63SAPC  H15C 5000   6.453   2.819   6.319 -1.6819  0.3240  1.2785
   63SAPC   C11 5001   6.267   2.955   6.689 -0.1260 -0.4411  0.5471
   63SAPC  H11A 5002   6.330   2.914   6.771  1.0932  0.7975  0.2686
   63SAPC  H11B 5003   6.163   2.918   6.701  0.0248 -1.2686 -0.5517
   63SAPC     P 5004   6.147   3.191   6.625  0.4533  0.2218  0.0236
   63SAPC   O13 5005   6.221   3.271   6.530  0.2718 -0.6218  0.6046
   63SAPC   O14 5006   6.041   3.104   6.574 -0.8725  0.5726 -0.1485
   63SAPC   O12 5007   6.258   3.105   6.695 -0.0664  1.6243 -0.0926
   63SAPC   O11 5008   6.097   3.288   6.734  0.2196 -0.8170 -0.0596
   63SAPC    C1 5009   6.002   3.248   6.835 -0.0689  0.2248 -0.0631
   63SAPC    HA 5010   6.019   3.145   6.872  0.3552  0.0283 -0.7856
   63SAPC    HB 5011   6.000   3.319   6.921 -1.3873  0.7147 -0.4682
   63SAPC    C2 5012   5.852   3.262   6.775  0.1143  0.6207  0.0597
   63SAPC    HS 5013   5.859   3.280   6.666  0.6015  0.0447 -0.0075
   63SAPC   O21 5014   5.784   3.374   6.839 -0.0104  0.2960  0.4126
   63SAPC   C21 5015   5.658   3.390   6.795 -0.4163  0.8929  0.2043
   63SAPC   O22 5016   5.610   3.343   6.694 -0.0485 -0.3833  0.2457
   63SAPC   C22 5017   5.585   3.485   6.892 -0.3621  0.1002  0.1405
   63SAPC   H2R 5018   5.626   3.462   6.993 -0.7102  1.0170  0.5058
   63SAPC   H2S 5019   5.612   3.592   6.880  0.8851 -0.1261  0.7082
   63SAPC    C3 5020   5.775   3.123   6.787 -0.0424  0.3445  0.8866
   63SAPC    HX 5021   5.837   3.060   6.719 -2.5101 -1.4398  0.1405
   63SAPC    HY 5022   5.673   3.124   6.742  0.7979  0.3142 -1.1272
   63SAPC   O31 5023   5.773   3.069   6.919  0.2482  0.3477  0.0137
   63SAPC   C31 5024   5.673   3.105   6.999 -0.3279  0.3242  0.0290
   63SAPC   O32 5025   5.581   3.182   6.976 -0.4663 -0.0367 -0.2319
   63SAPC   C32 5026   5.665   3.013   7.124  0.1585 -0.0109  0.5468
   63SAPC   H2X 5027   5.738   2.932   7.100 -1.9679 -1.4655 -1.4051
   63SAPC   H2Y 5028   5.568   2.960   7.110  0.2428 -0.3831  1.3440
   63SAPC   C23 5029   5.430   3.468   6.887 -0.0579 -0.0274 -0.4385
   63SAPC   H3R 5030   5.396   3.371   6.928  0.8592 -1.0440 -2.0120
   63SAPC   H3S 5031   5.407   3.459   6.779  0.3898 -1.0329 -0.4525
   63SAPC   C24 5032   5.357   3.580   6.959 -0.3957 -0.6022  0.0685
   63SAPC   H4R 5033   5.246   3.570   6.962 -0.4556  0.2032  0.8824
   63SAPC   H4S 5034   5.375   3.670   6.897 -1.4392 -0.4154  0.0180
   63SAPC   C25 5035   5.399   3.597   7.105 -0.4861  0.2166 -0.0743
   63SAPC   H5R 5036   5.384   3.509   7.170 -1.4041  1.4347  1.4510
   63SAPC   C26 5037   5.445   3.702   7.164 -0.1953 -0.8582 -0.5586
   63SAPC   H6R 5038   5.468   3.703   7.272 -0.4261  1.5983 -0.4758
   63SAPC   C27 5039   5.474   3.834   7.102 -0.3039 -0.4645  0.8654
   63SAPC   H7R 5040   5.431   3.916   7.164 -1.4138 -0.1323 -0.2842
   63SAPC   H7S 5041   5.408   3.842   7.013 -0.1977 -1.0451  0.7322
   63SAPC   C28 5042   5.620   3.847   7.056 -0.1478 -0.5976  0.0183
   63SAPC   H8R 5043   5.643   3.801   6.958  0.1015 -2.1810  0.7761
   63SAPC   C29 5044   5.714   3.910   7.130 -0.7270  0.1034  0.0233
   63SAPC   H9R 5045   5.814   3.922   7.086 -0.1185 -2.6438  0.4429
   63SAPC  C210 5046   5.695   3.987   7.264 -0.5803  0.4543  0.0482
   63SAPC  H10R 5047   5.631   3.925   7.329  1.4524 -0.4999  1.2495
   63SAPC  H10S 5048   5.639   4.082   7.251 -2.9026 -0.7005  1.1882
   63SAPC  C211 5049   5.822   4.034   7.327  0.4851 -0.0353 -0.3841
   63SAPC  H11R 5050   5.915   4.029   7.270  0.9037 -1.4771  0.3698
   63SAPC  C212 5051   5.827   4.067   7.459  0.1551  0.7827  0.4163
   63SAPC  H12R 5052   5.916   4.103   7.513 -1.3911  1.4386  2.6335
   63SAPC  C213 5053   5.700   4.069   7.541  0.3611 -0.6025 -0.6999
   63SAPC  H13R 5054   5.605   4.084   7.485 -0.4717  0.0126  0.7878
   63SAPC  H13S 5055   5.692   4.159   7.606 -1.5190 -1.6555  0.6574
   63SAPC  C214 5056   5.685   3.954   7.633  0.2619  0.5763 -0.2086
   63SAPC  H14R 5057   5.724   3.858   7.595  0.4011  0.3887  0.3868
   63SAPC  C215 5058   5.642   3.947   7.759  0.0366  0.1970  0.1463
   63SAPC  H15R 5059   5.656   3.850   7.810  1.4923  2.2693  4.1503
   63SAPC  C216 5060   5.599   4.061   7.851 -0.3371 -0.0181  0.0802
   63SAPC  H16R 5061   5.488   4.066   7.863 -0.3519 -1.2633  0.6405
   63SAPC  H16S 5062   5.648   4.155   7.818 -0.3225 -0.1628 -0.3152
   63SAPC  C217 5063   5.660   4.044   7.999  0.4715  0.8966 -0.2867
   63SAPC  H17R 5064   5.769   4.037   7.979  0.6793 -0.3197  1.1448
   63SAPC  H17S 5065   5.615   3.956   8.049 -0.7210  1.2999 -0.6237
   63SAPC  C218 5066   5.618   4.171   8.083 -0.5516 -0.2321  0.4136
   63SAPC  H18R 5067   5.507   4.178   8.093 -0.6527 -2.4465  1.2633
   63SAPC  H18S 5068   5.664   4.264   8.042 -1.5432 -0.0734 -0.3813
   63SAPC  C219 5069   5.668   4.165   8.226 -0.4050 -0.3738 -0.1775
   63SAPC  H19R 5070   5.778   4.151   8.234 -0.4423 -0.3367  0.4180
   63SAPC  H19S 5071   5.609   4.086   8.277 -0.1445 -0.8157 -0.5407
   63SAPC  C220 5072   5.636   4.301   8.290  0.2043  0.6510  0.1433
   63SAPC  H20R 5073   5.529   4.327   8.278 -0.1396 -1.3532 -1.8000
   63SAPC  H20S 5074   5.697   4.380   8.241 -0.2759  0.0569 -1.4562
   63SAPC  H20T 5075   5.664   4.299   8.398 -1.1058 -0.2296  0.4909
   63SAPC   C33 5076   5.703   3.075   7.259 -0.5473 -0.9002 -0.0809
   63SAPC   H3X 5077   5.663   3.176   7.282 -1.1247 -1.6162  2.3940
   63SAPC   H3Y 5078   5.812   3.095   7.259 -0.5474 -0.8440  0.7816
   63SAPC   C34 5079   5.669   2.982   7.378 -0.6357  0.2430  0.6730
   63SAPC   H4X 5080   5.703   3.040   7.467  1.6183  1.3938 -0.8440
   63SAPC   H4Y 5081   5.715   2.882   7.361 -2.0374 -0.1132 -1.3028
   63SAPC   C35 5082   5.517   2.953   7.392 -0.1001 -0.7255  0.5203
   63SAPC   H5X 5083   5.488   2.863   7.334 -1.4634 -0.8941  1.4184
   63SAPC   H5Y 5084   5.458   3.032   7.341  1.6569 -0.1022 -0.6235
   63SAPC   C36 5085   5.468   2.945   7.534  0.0695  0.9202 -0.2153
   63SAPC   H6X 5086   5.534   2.878   7.594  1.4621 -0.3175 -2.9390
   63SAPC   H6Y 5087   5.366   2.903   7.532  0.6967 -0.6715 -0.3528
   63SAPC   C37 5088   5.474   3.075   7.614 -0.4790 -0.1880 -0.0880
   63SAPC   H7X 5089   5.426   3.153   7.551  0.1907  1.3972  1.2843
   63SAPC   H7Y 5090   5.577   3.103   7.645 -1.0101  0.4208  1.2070
   63SAPC   C38 5091   5.391   3.057   7.745  0.2288 -0.0882  0.2369
   63SAPC   H8X 5092   5.292   3.007   7.742  0.4311 -0.5223  0.6945
   63SAPC   H8Y 5093   5.379   3.163   7.773  1.0237  0.2230 -0.5145
   63SAPC   C39 5094   5.459   2.974   7.848 -0.4463  0.1927  0.1828
   63SAPC   H9X 5095   5.568   2.997   7.847 -0.4558  0.2860  0.8450
   63SAPC   H9Y 5096   5.448   2.874   7.801 -1.5104  0.5761 -0.3987
   63SAPC  C310 5097   5.408   3.000   7.983 -0.6618 -0.4585  0.6973
   63SAPC  H10X 5098   5.467   2.941   8.056  1.2539  2.9318  2.1404
   63SAPC  H10Y 5099   5.305   2.958   7.989 -1.2450  0.7472 -0.3316
   63SAPC  C311 5100   5.403   3.144   8.035 -0.3879 -0.4142  0.1394
   63SAPC  H11X 5101   5.325   3.204   7.984 -0.5977 -0.3436  0.5356
   63SAPC  H11Y 5102   5.503   3.190   8.021  0.1806 -1.5546  0.3288
   63SAPC  C312 5103   5.384   3.140   8.184 -0.5079 -0.6803  0.0249
   63SAPC  H12X 5104   5.472   3.086   8.225  1.6708  1.5620 -1.4284
   63SAPC  H12Y 5105   5.296   3.077   8.210 -1.8784  1.9315  2.2906
   63SAPC  C313 5106   5.352   3.279   8.259  0.5426 -0.3320  0.0336
   63SAPC  H13X 5107   5.241   3.286   8.249  0.4582 -2.2728 -0.8454
   63SAPC  H13Y 5108   5.401   3.362   8.203  2.2969 -0.5953  1.1214
   63SAPC  C314 5109   5.394   3.276   8.405  0.8456  0.4422 -1.0576
   63SAPC  H14X 5110   5.360   3.370   8.454  0.9016  0.4945 -1.1187
   63SAPC  H14Y 5111   5.505   3.284   8.409  0.7877  0.9511  1.2819
   63SAPC  C315 5112   5.342   3.158   8.485 -0.0888 -0.5496  0.4941
   63SAPC  H15X 5113   5.385   3.062   8.448  1.3534  0.5595 -0.8639
   63SAPC  H15Y 5114   5.231   3.162   8.488 -0.0521  0.3011  0.8581
   63SAPC  C316 5115   5.391   3.161   8.633  0.5361  0.8188 -0.4902
   63SAPC  H16X 5116   5.354   3.256   8.677  1.6851  1.5607 -1.0779
   63SAPC  H16Y 5117   5.502   3.155   8.640  0.3613 -1.0934  3.8705
   63SAPC  C317 5118   5.338   3.036   8.712  0.0921 -0.2176  0.5339
   63SAPC  H17X 5119   5.392   2.947   8.673 -0.2167  0.5206 -1.7479
   63SAPC  H17Y 5120   5.232   3.035   8.677  0.1757  2.4869 -0.0722
   63SAPC  C318 5121   5.341   3.056   8.863  0.3905 -0.2644  0.7581
   63SAPC  H18X 5122   5.264   3.130   8.893  0.5309  0.3634 -0.3735
   63SAPC  H18Y 5123   5.442   3.081   8.904  1.4420 -2.1189 -0.5346
   63SAPC  H18Z 5124   5.322   2.960   8.915  0.8565  0.2911  1.9885
   64SAPC     N 5125   6.130   4.988   6.045 -0.7247  0.2522 -0.5828
   64SAPC   C12 5126   6.151   4.909   6.176 -0.1749  0.8981  0.3340
   64SAPC  H12A 5127   6.118   4.978   6.252 -2.6408  0.1702  0.0191
   64SAPC  H12B 5128   6.257   4.890   6.182 -0.4682 -0.5585  1.8937
   64SAPC   C13 5129   6.175   4.910   5.920 -0.2916 -0.4049 -1.0401
   64SAPC  H13A 5130   6.144   4.970   5.836 -0.8847  1.2543  0.3093
   64SAPC  H13B 5131   6.281   4.890   5.915  0.2362  1.6004  0.8124
   64SAPC  H13C 5132   6.127   4.813   5.922  0.9760 -1.0575 -0.1554
   64SAPC   C14 5133   5.983   5.021   6.035  0.8370  0.0405  0.3788
   64SAPC  H14A 5134   5.971   5.109   5.973 -1.9202 -0.5234 -0.0231
   64SAPC  H14B 5135   5.933   4.942   5.982  2.1804 -0.6417  0.0839
   64SAPC  H14C 5136   5.934   5.035   6.130  0.3714 -0.7130  0.2512
   64SAPC   C15 5137   6.206   5.112   6.060  0.1865 -0.6080 -0.1874
   64SAPC  H15A 5138   6.313   5.103   6.059  0.5214  2.1339 -2.0574
   64SAPC  H15B 5139   6.183   5.184   5.982  0.2556 -0.5570 -0.1604
   64SAPC  H15C 5140   6.165   5.161   6.147  0.8801 -1.8649  0.8755
   64SAPC   C11 5141   6.056   4.787   6.202 -0.1082  0.3536 -0.4766
   64SAPC  H11A 5142   6.102   4.730   6.286  0.5948 -2.2433 -2.4672
   64SAPC  H11B 5143   6.055   4.719   6.113  1.4326 -0.1442 -0.1409
   64SAPC     P 5144   5.795   4.737   6.204 -0.4004 -0.0663  0.2615
   64SAPC   O13 5145   5.673   4.791   6.258 -0.0847  0.8030 -0.1535
   64SAPC   O14 5146   5.793   4.708   6.057  0.9470 -0.7605 -0.4619
   64SAPC   O12 5147   5.923   4.829   6.242 -0.1916  0.3253 -0.0210
   64SAPC   O11 5148   5.833   4.597   6.270  0.1083 -0.1156  0.0313
   64SAPC    C1 5149   5.842   4.625   6.411 -0.5290  0.5472  0.1796
   64SAPC    HA 5150   5.946   4.660   6.425 -0.0807 -0.4495 -0.5632
   64SAPC    HB 5151   5.770   4.694   6.461 -0.0999 -0.6514  2.5409
   64SAPC    C2 5152   5.820   4.490   6.494 -0.2666 -0.0454 -0.0157
   64SAPC    HS 5153   5.812   4.526   6.599 -0.5351  1.8819 -0.6522
   64SAPC   O21 5154   5.924   4.394   6.477  1.0442  0.7212  0.0036
   64SAPC   C21 5155   6.044   4.425   6.515  0.0336  0.4752 -0.5139
   64SAPC   O22 5156   6.074   4.521   6.585  0.2670  0.0085  0.0039
   64SAPC   C22 5157   6.146   4.321   6.472  0.7685  0.1776  0.0598
   64SAPC   H2R 5158   6.103   4.237   6.413 -0.3234  0.8307 -0.0924
   64SAPC   H2S 5159   6.232   4.375   6.427  0.9000  0.1608  0.2884
   64SAPC    C3 5160   5.678   4.432   6.464 -0.2382  1.3455 -0.5846
   64SAPC    HX 5161   5.655   4.348   6.533  1.6552  0.6989 -0.7010
   64SAPC    HY 5162   5.680   4.379   6.366  1.6738 -0.0672  0.1698
   64SAPC   O31 5163   5.572   4.531   6.475 -0.2301  0.0792 -0.1631
   64SAPC   C31 5164   5.456   4.488   6.429  0.3122 -0.2639  0.0424
   64SAPC   O32 5165   5.427   4.381   6.383 -1.1194  0.6116  0.3311
   64SAPC   C32 5166   5.351   4.589   6.463  0.5576  0.9150 -0.4678
   64SAPC   H2X 5167   5.272   4.572   6.386  0.2145 -0.8435  0.2201
   64SAPC   H2Y 5168   5.378   4.695   6.444 -1.7369  1.3119 -1.8755
   64SAPC   C23 5169   6.214   4.252   6.599 -0.3359 -0.0595 -0.4988
   64SAPC   H3R 5170   6.204   4.312   6.692 -0.6630 -1.3017  0.2831
   64SAPC   H3S 5171   6.323   4.240   6.578 -0.4751 -1.3843 -0.4923
   64SAPC   C24 5172   6.164   4.109   6.642  0.2824 -0.6786  0.6100
   64SAPC   H4R 5173   6.185   4.055   6.547  0.9779  0.5523  0.0431
   64SAPC   H4S 5174   6.053   4.118   6.651  0.1016 -2.0162 -0.0219
   64SAPC   C25 5175   6.233   4.051   6.763 -0.6140  0.4476 -0.1047
   64SAPC   H5R 5176   6.322   4.108   6.794 -0.8527  1.3036 -0.9441
   64SAPC   C26 5177   6.187   3.949   6.838 -0.1701 -0.3318  0.1045
   64SAPC   H6R 5178   6.236   3.918   6.932  0.8588 -0.6043 -0.5050
   64SAPC   C27 5179   6.064   3.869   6.798  0.3547  0.5690 -0.8349
   64SAPC   H7R 5180   6.022   3.892   6.697 -0.2830 -1.1581 -1.0013
   64SAPC   H7S 5181   5.987   3.887   6.876  1.3748  1.6590 -0.0389
   64SAPC   C28 5182   6.096   3.723   6.794  0.0328 -0.4446 -0.3448
   64SAPC   H8R 5183   6.159   3.687   6.712  0.7117  2.4536 -1.2310
   64SAPC   C29 5184   6.048   3.628   6.878 -0.3520 -0.7204  0.0628
   64SAPC   H9R 5185   6.078   3.526   6.848 -0.9204 -0.3135 -2.0379
   64SAPC  C210 5186   5.950   3.641   6.990 -0.1007 -0.1748 -0.2022
   64SAPC  H10R 5187   5.900   3.544   7.009 -1.4573  0.4387 -0.5054
   64SAPC  H10S 5188   5.862   3.701   6.958 -0.5866  1.1994  3.2731
   64SAPC  C211 5189   6.018   3.695   7.117 -0.0679 -0.1391  0.3736
   64SAPC  H11R 5190   6.118   3.741   7.109 -0.0914  0.5324  2.9430
   64SAPC  C212 5191   5.978   3.676   7.244 -1.2213  0.4778  0.5176
   64SAPC  H12R 5192   6.048   3.705   7.324  0.1009 -0.1547 -0.3631
   64SAPC  C213 5193   5.861   3.591   7.291  0.3044 -0.1280  0.1255
   64SAPC  H13R 5194   5.893   3.489   7.321 -0.9370 -0.8007 -0.7537
   64SAPC  H13S 5195   5.796   3.573   7.203  0.8462 -0.1055 -0.2856
   64SAPC  C214 5196   5.779   3.662   7.392  0.2605  0.7013 -0.8121
   64SAPC  H14R 5197   5.784   3.772   7.395 -0.5529  0.7184  0.8132
   64SAPC  C215 5198   5.688   3.607   7.479 -0.7792  0.0740  1.1650
   64SAPC  H15R 5199   5.642   3.676   7.550 -0.5629  0.3823  1.0089
   64SAPC  C216 5200   5.660   3.455   7.491  0.1868 -0.2760 -0.2572
   64SAPC  H16R 5201   5.735   3.378   7.461  0.1112 -0.2213 -0.5910
   64SAPC  H16S 5202   5.574   3.433   7.425  0.7343 -0.4530 -0.9221
   64SAPC  C217 5203   5.627   3.422   7.643  0.6667  0.2750  0.2853
   64SAPC  H17R 5204   5.605   3.314   7.650 -0.3853  0.4147 -0.6092
   64SAPC  H17S 5205   5.528   3.470   7.661  1.4239  2.0904 -0.1337
   64SAPC  C218 5206   5.728   3.466   7.749 -0.7786 -0.3663 -0.4225
   64SAPC  H18R 5207   5.729   3.576   7.759 -1.5808 -0.2411 -1.6089
   64SAPC  H18S 5208   5.830   3.433   7.718 -0.0090 -1.0725  2.5210
   64SAPC  C219 5209   5.697   3.397   7.883  0.1690 -0.0383  0.2605
   64SAPC  H19R 5210   5.747   3.299   7.898  1.8504  0.5678 -1.0617
   64SAPC  H19S 5211   5.588   3.381   7.899  0.1392  0.1379  0.2409
   64SAPC  C220 5212   5.744   3.488   8.003 -0.2900  0.3655 -0.1909
   64SAPC  H20R 5213   5.685   3.582   7.993 -1.3542 -0.4427 -2.3153
   64SAPC  H20S 5214   5.852   3.508   7.988 -0.2891  1.1025  0.7335
   64SAPC  H20T 5215   5.738   3.436   8.100 -1.6393  1.2237  0.2198
   64SAPC   C33 5216   5.300   4.563   6.606 -0.1479 -0.7020  0.6392
   64SAPC   H3X 5217   5.268   4.457   6.617 -1.4345 -0.7023 -2.2369
   64SAPC   H3Y 5218   5.222   4.641   6.592  1.4516  0.7775 -0.5463
   64SAPC   C34 5219   5.386   4.607   6.723  0.4793  0.1484 -0.1103
   64SAPC   H4X 5220   5.436   4.700   6.688  0.8416 -0.6438 -1.8103
   64SAPC   H4Y 5221   5.469   4.534   6.729  0.5926  0.0709 -2.0843
   64SAPC   C35 5222   5.319   4.618   6.862  0.3794  0.0548  0.4635
   64SAPC   H5X 5223   5.260   4.525   6.880 -0.6546  0.4715 -0.6489
   64SAPC   H5Y 5224   5.238   4.693   6.868 -0.8947 -1.0318 -1.8618
   64SAPC   C36 5225   5.424   4.634   6.976 -0.3242  0.7515 -0.0466
   64SAPC   H6X 5226   5.465   4.735   6.956 -1.5599  1.0707 -1.1419
   64SAPC   H6Y 5227   5.503   4.556   6.968  1.1738  2.1165  0.9291
   64SAPC   C37 5228   5.363   4.629   7.116 -0.4796 -0.0663 -0.0472
   64SAPC   H7X 5229   5.350   4.524   7.149 -1.5936 -0.4522 -1.5671
   64SAPC   H7Y 5230   5.262   4.675   7.113 -1.4584 -2.0411  0.8379
   64SAPC   C38 5231   5.439   4.718   7.218  0.2840  0.2343  0.0802
   64SAPC   H8X 5232   5.456   4.819   7.176 -1.0265  0.4379  0.0203
   64SAPC   H8Y 5233   5.540   4.676   7.240  0.4639  1.1715  1.1835
   64SAPC   C39 5234   5.357   4.745   7.345 -0.5466  0.2361 -0.0617
   64SAPC   H9X 5235   5.366   4.652   7.405 -3.8537  0.5825  1.1591
   64SAPC   H9Y 5236   5.255   4.785   7.328 -0.5739 -0.7883 -2.8935
   64SAPC  C310 5237   5.433   4.845   7.440 -0.7985 -0.3428 -0.3013
   64SAPC  H10X 5238   5.442   4.941   7.385  2.7798 -0.3903  0.0007
   64SAPC  H10Y 5239   5.538   4.813   7.457 -0.1558  1.7545 -0.0246
   64SAPC  C311 5240   5.377   4.859   7.576  0.0638  0.2734 -0.6371
   64SAPC  H11X 5241   5.371   4.759   7.623 -1.0924  0.3034 -0.6939
   64SAPC  H11Y 5242   5.275   4.904   7.579 -0.0432 -0.0171  1.2095
   64SAPC  C312 5243   5.477   4.941   7.664  0.4416 -0.3405  0.0799
   64SAPC  H12X 5244   5.484   5.038   7.609  0.1543 -0.1781  0.3217
   64SAPC  H12Y 5245   5.577   4.897   7.683  1.0782  1.1997  0.4463
   64SAPC  C313 5246   5.405   4.978   7.794 -0.3395  0.9286 -0.2733
   64SAPC  H13X 5247   5.374   4.879   7.833  0.6917  0.2138 -1.2233
   64SAPC  H13Y 5248   5.318   5.044   7.773 -2.1315 -1.1111  0.4126
   64SAPC  C314 5249   5.497   5.040   7.900  0.5914  1.0081  0.1414
   64SAPC  H14X 5250   5.538   5.142   7.881  2.5323  0.6396  1.9450
   64SAPC  H14Y 5251   5.585   4.972   7.893 -0.1656  0.1211 -1.2185
   64SAPC  C315 5252   5.427   5.037   8.036  0.1746  0.3189 -0.1568
   64SAPC  H15X 5253   5.378   4.941   8.062  0.4158  0.4341  0.7393
   64SAPC  H15Y 5254   5.350   5.117   8.035  0.2518  0.4078  0.6890
   64SAPC  C316 5255   5.538   5.067   8.137 -0.2390 -0.6731 -0.8769
   64SAPC  H16X 5256   5.616   5.137   8.099  2.0218 -3.5810 -2.0106
   64SAPC  H16Y 5257   5.593   4.971   8.146  0.8860 -0.2399 -2.5991
   64SAPC  C317 5258   5.479   5.115   8.273 -0.0116  0.6051 -0.2301
   64SAPC  H17X 5259   5.399   5.047   8.311 -0.0896  2.0894  2.5060
   64SAPC  H17Y 5260   5.443   5.219   8.284 -1.6686  0.3494 -2.4193
   64SAPC  C318 5261   5.585   5.093   8.391  0.0947 -0.1582 -0.0660
   64SAPC  H18X 5262   5.678   5.144   8.358  0.0160 -0.6213 -1.0200
   64SAPC  H18Y 5263   5.617   4.987   8.394  2.6509  0.5524  2.0338
   64SAPC  H18Z 5264   5.547   5.130   8.489 -1.4995  1.1174 -1.1125
   65SAPC     N 5265   0.065   6.328   5.885 -0.5287 -0.8899 -0.2442
   65SAPC   C12 5266  -0.016   6.401   5.993  0.9080  0.3223 -0.4836
   65SAPC  H12A 5267  -0.102   6.447   5.947  1.0360  1.1908  0.1287
   65SAPC  H12B 5268   0.048   6.479   6.029  1.5917 -0.8640  0.9867
   65SAPC   C13 5269   0.059   6.403   5.760  0.2907 -0.5480  0.2990
   65SAPC  H13A 5270   0.143   6.385   5.694 -0.6206 -1.3458 -0.6736
   65SAPC  H13B 5271  -0.031   6.390   5.701 -0.2172 -1.4248  1.2476
   65SAPC  H13C 5272   0.061   6.507   5.788  1.6136 -0.8083  1.2805
   65SAPC   C14 5273   0.210   6.329   5.921 -0.1030  0.0033  0.4192
   65SAPC  H14A 5274   0.251   6.428   5.933 -2.9864  1.0903  2.3151
   65SAPC  H14B 5275   0.212   6.286   6.020 -2.2256  0.0158  0.5086
   65SAPC  H14C 5276   0.271   6.268   5.856 -1.9325 -0.9625 -0.4570
   65SAPC   C15 5277   0.021   6.188   5.859  0.6582 -0.7074  0.8712
   65SAPC  H15A 5278   0.081   6.129   5.792 -2.7240 -0.7188 -2.5149
   65SAPC  H15B 5279   0.019   6.128   5.948  1.1290 -2.7714 -0.4360
   65SAPC  H15C 5280  -0.074   6.194   5.808  1.3879  2.0011 -0.3535
   65SAPC   C11 5281  -0.067   6.319   6.120 -0.3706 -0.8526 -0.1941
   65SAPC  H11A 5282  -0.102   6.396   6.192 -0.9385  0.2027 -1.5593
   65SAPC  H11B 5283   0.021   6.272   6.170  0.1656  1.8110  1.5638
   65SAPC     P 5284  -0.180   6.084   6.158 -0.2705  0.2138  0.1236
   65SAPC   O13 5285  -0.315   6.021   6.138  0.3694  0.7971  0.0581
   65SAPC   O14 5286  -0.066   5.997   6.104 -0.6360 -0.4616 -0.8907
   65SAPC   O12 5287  -0.166   6.227   6.090 -0.4279 -0.1617  0.3743
   65SAPC   O11 5288  -0.161   6.120   6.310 -0.6460  1.1484  0.3307
   65SAPC    C1 5289  -0.201   6.236   6.380 -0.0990 -0.0156  0.6721
   65SAPC    HA 5290  -0.107   6.292   6.400 -0.4673  0.8573  0.0664
   65SAPC    HB 5291  -0.256   6.309   6.316  1.7044  1.5494  0.8099
   65SAPC    C2 5292  -0.280   6.208   6.503 -0.3414  0.1441 -0.6837
   65SAPC    HS 5293  -0.352   6.290   6.520 -1.0133  0.1967 -3.3677
   65SAPC   O21 5294  -0.192   6.182   6.622  0.1846 -0.0488  0.5478
   65SAPC   C21 5295  -0.146   6.296   6.669 -0.1617  0.0320 -0.2904
   65SAPC   O22 5296  -0.183   6.406   6.636 -0.3705 -0.2615  0.1130
   65SAPC   C22 5297  -0.027   6.257   6.762  0.8645  0.4295  0.0770
   65SAPC   H2R 5298  -0.072   6.243   6.862  0.7334  1.2081  0.1306
   65SAPC   H2S 5299   0.011   6.156   6.733 -0.9162 -0.3712  0.4249
   65SAPC    C3 5300  -0.368   6.079   6.484 -0.4308 -0.0114  0.0856
   65SAPC    HX 5301  -0.309   5.995   6.443  0.0295 -1.6560  3.7580
   65SAPC    HY 5302  -0.452   6.101   6.414  0.6602 -0.0614 -1.2871
   65SAPC   O31 5303  -0.421   6.033   6.610 -0.2143 -0.0501 -0.5670
   65SAPC   C31 5304  -0.349   5.930   6.665  0.4001  0.2544 -0.1325
   65SAPC   O32 5305  -0.249   5.876   6.631 -0.5338 -0.0527 -0.0729
   65SAPC   C32 5306  -0.415   5.897   6.795  0.3784  0.1233  0.1677
   65SAPC   H2X 5307  -0.381   5.792   6.811  0.3557 -0.2215 -1.7685
   65SAPC   H2Y 5308  -0.525   5.902   6.777  0.4742 -1.4680 -1.1730
   65SAPC   C23 5309   0.093   6.351   6.767  0.9752  0.0974  0.2973
   65SAPC   H3R 5310   0.064   6.446   6.817 -2.4321 -1.3571  1.4027
   65SAPC   H3S 5311   0.111   6.372   6.660 -0.8902  2.0770  0.2902
   65SAPC   C24 5312   0.207   6.280   6.842  0.1540  0.2618 -0.0710
   65SAPC   H4R 5313   0.237   6.187   6.790 -0.9681 -0.3627  0.3345
   65SAPC   H4S 5314   0.177   6.246   6.944 -2.2233  1.6103 -0.2343
   65SAPC   C25 5315   0.305   6.390   6.844 -0.3102 -0.0882 -0.4309
   65SAPC   H5R 5316   0.359   6.416   6.752 -0.4663  1.9636 -0.0059
   65SAPC   C26 5317   0.347   6.465   6.952 -0.3678 -0.4087 -0.0390
   65SAPC   H6R 5318   0.424   6.543   6.944  0.9106 -1.6242  0.0454
   65SAPC   C27 5319   0.306   6.436   7.089 -0.2586 -0.2796 -0.0426
   65SAPC   H7R 5320   0.357   6.345   7.128  1.7910 -0.2971 -2.5279
   65SAPC   H7S 5321   0.199   6.409   7.097 -0.0501 -1.5782 -1.3142
   65SAPC   C28 5322   0.315   6.560   7.182 -0.1050 -0.7681 -0.1135
   65SAPC   H8R 5323   0.352   6.651   7.134  2.9999 -2.1013 -0.5345
   65SAPC   C29 5324   0.277   6.588   7.308  0.0596 -0.0751 -0.0566
   65SAPC   H9R 5325   0.309   6.690   7.335  0.5873  0.8035 -3.4217
   65SAPC  C210 5326   0.190   6.500   7.394 -1.0288 -0.1140  0.1626
   65SAPC  H10R 5327   0.244   6.432   7.463 -1.6630 -0.7747  0.0087
   65SAPC  H10S 5328   0.129   6.435   7.328 -0.6035  0.9388 -1.3100
   65SAPC  C211 5329   0.104   6.589   7.472  0.8063 -0.3675 -0.2427
   65SAPC  H11R 5330   0.016   6.629   7.419 -1.2170 -1.7513  1.9084
   65SAPC  C212 5331   0.116   6.638   7.596 -0.2737  0.8578  0.0350
   65SAPC  H12R 5332   0.043   6.710   7.634 -2.1511 -0.1185 -1.5406
   65SAPC  C213 5333   0.224   6.604   7.689  0.7521 -0.9289 -0.4673
   65SAPC  H13R 5334   0.293   6.534   7.637  1.4483  1.5918 -3.2494
   65SAPC  H13S 5335   0.173   6.539   7.762 -2.7256  1.5260 -0.4323
   65SAPC  C214 5336   0.297   6.722   7.749  0.0895  0.0490  0.3493
   65SAPC  H14R 5337   0.368   6.766   7.678  0.4584 -1.0598  0.0182
   65SAPC  C215 5338   0.289   6.755   7.878  0.2315  0.2034  0.4070
   65SAPC  H15R 5339   0.347   6.843   7.908  0.8420  0.0221 -0.2259
   65SAPC  C216 5340   0.192   6.701   7.991  0.0390  0.3213  0.2247
   65SAPC  H16R 5341   0.117   6.624   7.965  0.7732 -0.5079  0.5260
   65SAPC  H16S 5342   0.149   6.789   8.044  0.8041  0.8226  0.0373
   65SAPC  C217 5343   0.275   6.629   8.101  0.1499  0.6128  0.1055
   65SAPC  H17R 5344   0.347   6.554   8.062  0.8896  0.4931  1.6038
   65SAPC  H17S 5345   0.203   6.572   8.165  1.4814  1.2216  2.2650
   65SAPC  C218 5346   0.338   6.717   8.203 -0.3778  0.3367  0.0806
   65SAPC  H18R 5347   0.271   6.794   8.246  1.9710  0.7825  3.2869
   65SAPC  H18S 5348   0.424   6.762   8.149 -1.8106  2.1823 -0.7619
   65SAPC  C219 5349   0.387   6.637   8.330 -0.2953 -0.3654  0.4960
   65SAPC  H19R 5350   0.466   6.567   8.296  1.2344  1.5576 -0.1433
   65SAPC  H19S 5351   0.300   6.587   8.377 -0.1975 -0.0232  1.0509
   65SAPC  C220 5352   0.452   6.735   8.428 -0.2077 -0.0707 -0.7570
   65SAPC  H20R 5353   0.480   6.684   8.523  0.9111 -0.0619 -1.0717
   65SAPC  H20S 5354   0.379   6.815   8.455  0.3923  0.6840 -1.3178
   65SAPC  H20T 5355   0.535   6.785   8.375 -0.6122  0.2449 -1.1062
   65SAPC   C33 5356  -0.375   5.977   6.917 -0.0271  0.2298 -0.6581
   65SAPC   H3X 5357  -0.411   6.081   6.899 -2.0507 -0.6988 -2.4365
   65SAPC   H3Y 5358  -0.266   5.986   6.932 -0.0592  0.7063 -0.6743
   65SAPC   C34 5359  -0.441   5.923   7.050 -0.1731 -0.1698  0.1994
   65SAPC   H4X 5360  -0.413   5.818   7.072 -1.9779  0.0410  4.3380
   65SAPC   H4Y 5361  -0.551   5.917   7.038 -0.1949 -0.4005  0.5069
   65SAPC   C35 5362  -0.420   6.006   7.180  0.2172 -0.1526 -0.0328
   65SAPC   H5X 5363  -0.405   6.111   7.149 -1.7922 -0.3492 -1.9895
   65SAPC   H5Y 5364  -0.322   5.973   7.220  0.9357 -0.4355 -1.9091
   65SAPC   C36 5365  -0.513   5.976   7.295 -0.2640 -0.0516  0.2041
   65SAPC   H6X 5366  -0.523   5.868   7.319 -2.1203 -0.0915 -0.5378
   65SAPC   H6Y 5367  -0.611   6.007   7.252  0.0690  1.6780  0.6201
   65SAPC   C37 5368  -0.489   6.057   7.423 -0.1157  0.0587 -0.7783
   65SAPC   H7X 5369  -0.518   6.163   7.404  1.1525  0.4503 -0.5962
   65SAPC   H7Y 5370  -0.383   6.040   7.452 -0.3738 -0.0249  0.1432
   65SAPC   C38 5371  -0.582   6.007   7.536  0.4343  0.0969 -0.5047
   65SAPC   H8X 5372  -0.566   5.897   7.543 -1.2794 -0.1937 -0.7887
   65SAPC   H8Y 5373  -0.684   6.032   7.502  0.1304 -0.4658 -0.0386
   65SAPC   C39 5374  -0.559   6.076   7.671 -0.0701  0.2273  0.6576
   65SAPC   H9X 5375  -0.649   6.059   7.734 -0.7180  0.5094 -0.1880
   65SAPC   H9Y 5376  -0.530   6.181   7.652  2.7258 -0.6239 -0.3150
   65SAPC  C310 5377  -0.455   6.001   7.751 -1.0774  0.3369 -0.1313
   65SAPC  H10X 5378  -0.357   6.025   7.706 -1.7010  1.2358 -1.0401
   65SAPC  H10Y 5379  -0.480   5.893   7.741 -0.3897  0.3220 -2.2435
   65SAPC  C311 5380  -0.428   6.043   7.897 -0.3088  0.1756  0.0992
   65SAPC  H11X 5381  -0.432   6.154   7.899 -0.0580  0.1740  0.7808
   65SAPC  H11Y 5382  -0.323   6.014   7.920  0.0175  0.3135 -1.1002
   65SAPC  C312 5383  -0.536   5.984   7.990  0.1760  0.2203  0.7958
   65SAPC  H12X 5384  -0.547   5.877   7.962  0.6425  0.5089 -0.5553
   65SAPC  H12Y 5385  -0.631   6.039   7.969  0.8887  2.2889  2.5671
   65SAPC  C313 5386  -0.503   5.998   8.138 -1.0802 -0.1634  0.0596
   65SAPC  H13X 5387  -0.406   5.946   8.152 -1.2210 -0.6643 -0.7590
   65SAPC  H13Y 5388  -0.570   5.941   8.205 -0.1273 -1.1644  0.1899
   65SAPC  C314 5389  -0.506   6.144   8.198 -0.3288  0.2794  0.3739
   65SAPC  H14X 5390  -0.613   6.174   8.199  0.0256  1.7170 -0.7261
   65SAPC  H14Y 5391  -0.452   6.224   8.142 -1.0001  1.3370  1.2193
   65SAPC  C315 5392  -0.461   6.156   8.345 -0.2895  0.5572 -0.2389
   65SAPC  H15X 5393  -0.362   6.108   8.361 -0.3452 -0.2657 -2.1522
   65SAPC  H15Y 5394  -0.521   6.089   8.410 -0.3055 -0.9611 -1.7493
   65SAPC  C316 5395  -0.447   6.301   8.400 -0.2707 -0.3434  0.4068
   65SAPC  H16X 5396  -0.398   6.357   8.318  1.0301  1.5691  2.3903
   65SAPC  H16Y 5397  -0.377   6.308   8.486 -2.1200  0.3148  1.9174
   65SAPC  C317 5398  -0.573   6.377   8.446  0.1803 -0.1843  0.9810
   65SAPC  H17X 5399  -0.549   6.472   8.498  1.0749  0.9883 -1.4055
   65SAPC  H17Y 5400  -0.635   6.306   8.505 -1.8660  0.4440 -0.3205
   65SAPC  C318 5401  -0.654   6.431   8.327  0.3325  0.0658  0.0025
   65SAPC  H18X 5402  -0.666   6.364   8.240  2.2366  4.1888 -3.7920
   65SAPC  H18Y 5403  -0.594   6.512   8.281  0.4461  0.7749  1.3559
   65SAPC  H18Z 5404  -0.751   6.473   8.362 -0.6383 -1.9625 -0.0755
   66SAPC     N 5405   3.261   4.577   6.082  0.1102  0.2948 -0.4212
   66SAPC   C12 5406   3.330   4.592   6.218 -0.6786 -0.6130  0.2369
   66SAPC  H12A 5407   3.436   4.603   6.199 -0.3105 -0.6497  2.0982
   66SAPC  H12B 5408   3.309   4.505   6.278 -1.2085  0.4540  1.6626
   66SAPC   C13 5409   3.325   4.663   5.982 -0.4181  0.0754 -0.1832
   66SAPC  H13A 5410   3.360   4.749   6.037 -1.6127  1.5749 -1.6768
   66SAPC  H13B 5411   3.405   4.612   5.932 -0.5693 -1.5333  1.1283
   66SAPC  H13C 5412   3.264   4.694   5.899  1.9077 -2.1489 -2.9234
   66SAPC   C14 5413   3.273   4.431   6.032  0.6573 -0.9121  0.5926
   66SAPC  H14A 5414   3.221   4.407   5.941 -1.1433 -0.2017  1.3814
   66SAPC  H14B 5415   3.374   4.400   6.011  0.2862 -1.5331 -0.3598
   66SAPC  H14C 5416   3.239   4.359   6.106 -1.5604  0.3128  0.8621
   66SAPC   C15 5417   3.119   4.623   6.095  0.1359 -0.1268 -0.3806
   66SAPC  H15A 5418   3.074   4.602   5.999 -0.1271 -2.4026  0.1799
   66SAPC  H15B 5419   3.058   4.573   6.168 -1.2268  2.0117  0.0034
   66SAPC  H15C 5420   3.119   4.730   6.106  0.9907 -0.0167 -1.2413
   66SAPC   C11 5421   3.302   4.708   6.318 -0.0513  0.4982 -0.1533
   66SAPC  H11A 5422   3.388   4.693   6.387 -0.9361  0.5539  0.9875
   66SAPC  H11B 5423   3.215   4.687   6.383  0.9086  1.3038  1.4491
   66SAPC     P 5424   3.407   4.932   6.230 -0.6433 -0.2412  0.2233
   66SAPC   O13 5425   3.495   4.879   6.126  0.1693  0.2026 -0.0741
   66SAPC   O14 5426   3.359   5.069   6.205  0.6096  0.2274  0.3531
   66SAPC   O12 5427   3.288   4.831   6.244  0.4495 -0.4149 -0.0365
   66SAPC   O11 5428   3.481   4.926   6.373  0.0007  0.1337  0.0211
   66SAPC    C1 5429   3.622   4.937   6.388 -0.1078 -0.1385  0.7706
   66SAPC    HA 5430   3.673   4.840   6.372  1.3331  0.9313 -1.5504
   66SAPC    HB 5431   3.675   5.003   6.317 -1.0315 -0.0925  0.1060
   66SAPC    C2 5432   3.650   4.998   6.525  0.4224 -0.4248 -0.1616
   66SAPC    HS 5433   3.756   5.030   6.527  0.3949 -0.3642  0.7793
   66SAPC   O21 5434   3.624   4.905   6.629 -0.0453 -0.1514  0.1241
   66SAPC   C21 5435   3.712   4.800   6.623 -0.7448  0.6004  0.4031
   66SAPC   O22 5436   3.818   4.807   6.560 -0.7391 -0.0509 -0.0744
   66SAPC   C22 5437   3.650   4.675   6.686  0.1733  0.2084 -0.3928
   66SAPC   H2R 5438   3.655   4.593   6.611  0.3913 -0.2339  0.1045
   66SAPC   H2S 5439   3.715   4.644   6.770 -2.6466  1.1301  2.3531
   66SAPC    C3 5440   3.553   5.119   6.550  0.0842 -0.3832  0.2680
   66SAPC    HX 5441   3.451   5.075   6.544 -0.2143  0.2671  0.4621
   66SAPC    HY 5442   3.554   5.184   6.461  0.3193 -1.0945 -0.2536
   66SAPC   O31 5443   3.581   5.181   6.675 -0.0596  0.3634  0.0038
   66SAPC   C31 5444   3.572   5.309   6.680 -0.3949 -0.3489 -0.9864
   66SAPC   O32 5445   3.506   5.381   6.609  0.4209 -0.9847  0.7027
   66SAPC   C32 5446   3.644   5.365   6.803 -0.2075  0.2731  0.0463
   66SAPC   H2X 5447   3.604   5.469   6.814 -0.2610  0.1591  1.0400
   66SAPC   H2Y 5448   3.752   5.351   6.783 -0.0155 -0.5301  1.5265
   66SAPC   C23 5449   3.501   4.691   6.728 -0.2673 -0.4852  0.1445
   66SAPC   H3R 5450   3.458   4.589   6.724  0.2213 -0.7393  1.0475
   66SAPC   H3S 5451   3.441   4.750   6.655  0.7229  0.7803  0.2999
   66SAPC   C24 5452   3.474   4.752   6.868 -0.2039  0.0650 -1.2131
   66SAPC   H4R 5453   3.367   4.782   6.878 -0.5511 -1.1357 -1.1583
   66SAPC   H4S 5454   3.529   4.847   6.882  0.4612 -0.4265 -0.3945
   66SAPC   C25 5455   3.509   4.650   6.981 -0.2851 -0.3085  0.5089
   66SAPC   H5R 5456   3.615   4.642   7.007 -0.4716  1.0154  1.8731
   66SAPC   C26 5457   3.414   4.583   7.049  0.8615  0.6409 -0.3519
   66SAPC   H6R 5458   3.441   4.505   7.122  1.0413 -0.7745 -1.8755
   66SAPC   C27 5459   3.266   4.592   7.033 -0.5902 -0.4077  0.3254
   66SAPC   H7R 5460   3.232   4.666   6.957  0.9709 -0.4769 -0.4858
   66SAPC   H7S 5461   3.229   4.633   7.129  2.5884  0.6307  1.2524
   66SAPC   C28 5462   3.204   4.459   6.997 -0.2472  0.2382  0.2236
   66SAPC   H8R 5463   3.268   4.382   6.950 -0.0355 -0.4389  1.5640
   66SAPC   C29 5464   3.079   4.415   7.024 -0.2163 -0.2901  0.7060
   66SAPC   H9R 5465   3.068   4.309   6.996  2.9936 -0.4197 -0.5239
   66SAPC  C210 5466   2.959   4.477   7.096  0.0433 -0.3150 -0.9234
   66SAPC  H10R 5467   3.002   4.560   7.157  0.7930 -0.4125 -1.3142
   66SAPC  H10S 5468   2.922   4.399   7.166 -2.1814  0.4401 -1.1615
   66SAPC  C211 5469   2.837   4.512   7.015 -0.4990 -0.4540  0.2841
   66SAPC  H11R 5470   2.813   4.437   6.938  1.9090 -2.0841  1.0157
   66SAPC  C212 5471   2.752   4.615   7.028 -0.3598 -0.3359  0.2310
   66SAPC  H12R 5472   2.675   4.631   6.950 -0.0548  0.3252  0.0557
   66SAPC  C213 5473   2.756   4.723   7.137  0.9168  0.2870 -0.2564
   66SAPC  H13R 5474   2.704   4.811   7.092 -0.3784  0.1758  0.9829
   66SAPC  H13S 5475   2.861   4.754   7.154  0.8486  1.5350 -1.8241
   66SAPC  C214 5476   2.691   4.679   7.268  0.2984  0.5019 -0.6787
   66SAPC  H14R 5477   2.584   4.655   7.260  0.7044 -2.2043  0.8856
   66SAPC  C215 5478   2.749   4.667   7.391 -0.5965 -0.7935  0.3769
   66SAPC  H15R 5479   2.684   4.617   7.464 -1.6885 -1.7214 -1.1817
   66SAPC  C216 5480   2.893   4.701   7.435 -0.4317  0.3901 -0.2844
   66SAPC  H16R 5481   2.885   4.790   7.501  0.8336  0.1659  0.1944
   66SAPC  H16S 5482   2.963   4.724   7.352  1.7080 -0.8418  1.0678
   66SAPC  C217 5483   2.950   4.585   7.520  0.7052  0.0529 -0.2977
   66SAPC  H17R 5484   2.920   4.487   7.476  0.3018  0.3441 -0.6757
   66SAPC  H17S 5485   2.903   4.579   7.620 -0.3086  0.0979 -0.7628
   66SAPC  C218 5486   3.093   4.579   7.551 -0.1518  0.4725 -0.6105
   66SAPC  H18R 5487   3.107   4.488   7.614  0.7134  0.1190 -1.2908
   66SAPC  H18S 5488   3.113   4.671   7.609 -0.5918 -0.1633  0.5742
   66SAPC  C219 5489   3.193   4.570   7.438  0.4553  0.5141  0.6749
   66SAPC  H19R 5490   3.206   4.670   7.389  1.6812 -0.1334 -0.3808
   66SAPC  H19S 5491   3.149   4.506   7.359 -0.6009  0.0152  1.6398
   66SAPC  C220 5492   3.332   4.516   7.477  0.8230 -0.6839 -0.0768
   66SAPC  H20R 5493   3.394   4.584   7.539  1.3553 -0.3152 -0.9967
   66SAPC  H20S 5494   3.394   4.494   7.388  0.0873  1.9688 -1.3434
   66SAPC  H20T 5495   3.310   4.424   7.535  0.2372 -1.1036 -0.9401
   66SAPC   C33 5496   3.613   5.278   6.935 -0.7404 -0.4607  0.0602
   66SAPC   H3X 5497   3.658   5.177   6.925 -0.3599 -0.3598  0.6865
   66SAPC   H3Y 5498   3.504   5.282   6.952 -0.5325  1.9781  1.2822
   66SAPC   C34 5499   3.669   5.339   7.067  0.6917 -0.1618 -1.1941
   66SAPC   H4X 5500   3.628   5.442   7.074 -3.2764 -1.5382 -1.6906
   66SAPC   H4Y 5501   3.780   5.342   7.058  0.8990 -0.2348  0.8418
   66SAPC   C35 5502   3.617   5.265   7.193 -0.2152 -0.1653 -0.4332
   66SAPC   H5X 5503   3.665   5.166   7.176  0.2261 -0.1817  0.8607
   66SAPC   H5Y 5504   3.510   5.242   7.172  0.2452 -2.9323 -0.1664
   66SAPC   C36 5505   3.640   5.328   7.331 -0.4332 -0.1441  0.2997
   66SAPC   H6X 5506   3.588   5.426   7.325 -0.9813 -0.4160  0.5646
   66SAPC   H6Y 5507   3.745   5.334   7.364 -1.3381 -2.2631  4.1696
   66SAPC   C37 5508   3.592   5.236   7.445  0.3478 -0.1176  0.5424
   66SAPC   H7X 5509   3.654   5.144   7.441 -0.7044 -0.8230 -0.1709
   66SAPC   H7Y 5510   3.484   5.210   7.447 -0.1869  1.9495  1.9646
   66SAPC   C38 5511   3.609   5.299   7.584 -0.5684  0.9745 -0.4902
   66SAPC   H8X 5512   3.536   5.383   7.576 -0.7713  0.7301 -1.2902
   66SAPC   H8Y 5513   3.714   5.331   7.601  0.6855 -3.5685  1.9150
   66SAPC   C39 5514   3.570   5.210   7.701  0.1783  0.0909 -0.1454
   66SAPC   H9X 5515   3.608   5.107   7.682 -0.9658 -0.5627  0.8902
   66SAPC   H9Y 5516   3.459   5.209   7.706 -0.0407 -3.3640 -2.2858
   66SAPC  C310 5517   3.634   5.245   7.834  0.7530  0.7368 -0.1316
   66SAPC  H10X 5518   3.602   5.349   7.857  0.5833  1.7804 -4.2772
   66SAPC  H10Y 5519   3.745   5.247   7.822  1.0481  0.9318  2.2086
   66SAPC  C311 5520   3.606   5.161   7.957  0.2304 -0.3137  0.2410
   66SAPC  H11X 5521   3.649   5.063   7.927  0.3993  0.8679 -3.9654
   66SAPC  H11Y 5522   3.496   5.148   7.959 -0.2202  2.8520  1.7196
   66SAPC  C312 5523   3.658   5.204   8.095 -0.3581 -0.4294  0.5561
   66SAPC  H12X 5524   3.624   5.308   8.115 -0.9861 -0.1164 -1.8120
   66SAPC  H12Y 5525   3.768   5.214   8.094 -0.4984  1.3340  0.5917
   66SAPC  C313 5526   3.615   5.105   8.205 -0.2652  0.2970  0.2417
   66SAPC  H13X 5527   3.619   5.002   8.164  1.0641  0.9543 -1.3942
   66SAPC  H13Y 5528   3.506   5.116   8.227 -0.2883 -0.7161  0.6566
   66SAPC  C314 5529   3.694   5.124   8.332 -0.1738 -0.5428 -0.7648
   66SAPC  H14X 5530   3.793   5.077   8.316  0.6815  1.2647 -1.0105
   66SAPC  H14Y 5531   3.640   5.075   8.416  1.2741 -0.4743  0.2304
   66SAPC  C315 5532   3.711   5.266   8.367  0.1400 -0.3697  0.1089
   66SAPC  H15X 5533   3.610   5.310   8.378  0.7522  1.4562 -1.2680
   66SAPC  H15Y 5534   3.766   5.324   8.291  0.4479 -1.4190 -0.4977
   66SAPC  C316 5535   3.786   5.291   8.500 -0.8100  0.3107  0.3674
   66SAPC  H16X 5536   3.880   5.233   8.494 -3.2089 -4.1728  1.3870
   66SAPC  H16Y 5537   3.722   5.250   8.581 -3.0026 -0.5441 -1.6414
   66SAPC  C317 5538   3.825   5.441   8.523 -0.6742  0.0350  0.1045
   66SAPC  H17X 5539   3.730   5.494   8.500 -2.2254 -0.4977  4.4196
   66SAPC  H17Y 5540   3.902   5.476   8.452  0.6239  0.7084  1.7997
   66SAPC  C318 5541   3.881   5.467   8.663 -1.0809  0.0363  0.2818
   66SAPC  H18X 5542   3.818   5.421   8.743 -0.1412  0.4284  1.2620
   66SAPC  H18Y 5543   3.882   5.577   8.678  0.8536 -0.1177  1.6178
   66SAPC  H18Z 5544   3.988   5.442   8.675 -0.8457 -0.1851 -1.9207
   67SAPC     N 5545   6.334   1.003   6.542  0.5577  0.6500  0.2738
   67SAPC   C12 5546   6.475   1.031   6.498  0.3542  0.6504  0.2498
   67SAPC  H12A 5547   6.544   1.053   6.578 -1.3055  1.4776  1.5297
   67SAPC  H12B 5548   6.472   1.125   6.445 -1.1047 -0.2208 -1.3104
   67SAPC   C13 5549   6.336   0.891   6.642 -0.2247  0.5632 -0.3588
   67SAPC  H13A 5550   6.238   0.880   6.686  0.1296 -1.2923  0.0588
   67SAPC  H13B 5551   6.364   0.794   6.602 -0.2953  0.1713  0.5265
   67SAPC  H13C 5552   6.417   0.906   6.711  0.1265 -0.9127 -0.4189
   67SAPC   C14 5553   6.276   1.121   6.614  0.4881  0.8254  0.1910
   67SAPC  H14A 5554   6.170   1.104   6.624  0.6859  0.6312  2.4864
   67SAPC  H14B 5555   6.325   1.134   6.710  0.3531  1.0454  0.2307
   67SAPC  H14C 5556   6.297   1.214   6.563  0.2057 -0.5798 -2.6474
   67SAPC   C15 5557   6.248   0.973   6.424  0.7192  0.0974 -0.0243
   67SAPC  H15A 5558   6.154   0.936   6.461  0.6463 -1.1821 -1.4002
   67SAPC  H15B 5559   6.227   1.053   6.354 -0.1812 -1.0668 -1.1194
   67SAPC  H15C 5560   6.292   0.892   6.369  2.5070 -0.0706  1.5462
   67SAPC   C11 5561   6.539   0.924   6.409 -0.0923 -0.2926  0.4335
   67SAPC  H11A 5562   6.639   0.965   6.382 -1.2342  0.9496 -2.2528
   67SAPC  H11B 5563   6.483   0.907   6.315 -0.8113 -1.8001  1.1011
   67SAPC     P 5564   6.682   0.776   6.568 -0.3258 -0.3123 -0.3175
   67SAPC   O13 5565   6.666   0.644   6.631 -0.5129 -0.2850 -0.3799
   67SAPC   O14 5566   6.812   0.802   6.499  0.1819 -0.5370 -0.5269
   67SAPC   O12 5567   6.560   0.798   6.469 -0.0793 -0.2666  0.0826
   67SAPC   O11 5568   6.658   0.880   6.685  0.0981  0.3575  0.3243
   67SAPC    C1 5569   6.753   0.984   6.720  0.5656  0.6479 -0.2452
   67SAPC    HA 5570   6.814   1.019   6.634 -1.8353 -1.7468 -3.1739
   67SAPC    HB 5571   6.698   1.075   6.752  0.3521  0.9821 -1.4799
   67SAPC    C2 5572   6.849   0.951   6.834 -0.3335  0.8519 -0.2268
   67SAPC    HS 5573   6.907   0.864   6.797 -2.1177 -1.5962  2.3501
   67SAPC   O21 5574   6.768   0.908   6.944 -0.5012  0.3713  0.3171
   67SAPC   C21 5575   6.808   0.808   7.013  0.6668  0.7133 -0.6610
   67SAPC   O22 5576   6.914   0.748   6.996 -0.1327 -0.3445 -0.4395
   67SAPC   C22 5577   6.691   0.761   7.102 -0.7717 -0.9439 -0.4838
   67SAPC   H2R 5578   6.659   0.851   7.160 -0.0817  0.2572 -1.8877
   67SAPC   H2S 5579   6.606   0.739   7.034 -1.5580 -0.7650  0.4054
   67SAPC    C3 5580   6.944   1.064   6.876  0.3852  0.0888 -0.1473
   67SAPC    HX 5581   6.878   1.152   6.888  0.0949 -0.1237 -0.1913
   67SAPC    HY 5582   7.014   1.085   6.792  1.7940  0.4684  1.0740
   67SAPC   O31 5583   7.020   1.036   6.994  0.4321 -0.2740 -0.3827
   67SAPC   C31 5584   7.124   0.960   6.972 -0.0637  0.2384  0.4838
   67SAPC   O32 5585   7.150   0.902   6.868  0.3221 -0.2563  0.2154
   67SAPC   C32 5586   7.207   0.946   7.103  0.0186 -0.0176  0.0744
   67SAPC   H2X 5587   7.203   1.045   7.153  1.9303 -0.2165  0.6702
   67SAPC   H2Y 5588   7.311   0.945   7.064 -0.3101  0.5080 -0.8587
   67SAPC   C23 5589   6.717   0.640   7.195 -0.0979  0.1294  0.0221
   67SAPC   H3R 5590   6.806   0.672   7.253 -0.6531 -0.7303  1.4100
   67SAPC   H3S 5591   6.767   0.559   7.138 -2.1643 -2.1812  1.2837
   67SAPC   C24 5592   6.601   0.598   7.294 -0.6339  0.9059 -0.1859
   67SAPC   H4R 5593   6.649   0.510   7.341  0.0763  0.6599 -1.3387
   67SAPC   H4S 5594   6.508   0.562   7.246 -0.1586 -0.6942  0.0286
   67SAPC   C25 5595   6.577   0.706   7.398 -0.6771 -0.2703 -0.2173
   67SAPC   H5R 5596   6.604   0.805   7.359 -1.6971 -0.5437 -1.7140
   67SAPC   C26 5597   6.524   0.684   7.520  0.3226  0.2966 -0.6390
   67SAPC   H6R 5598   6.508   0.776   7.578  1.3058  0.6621 -0.9247
   67SAPC   C27 5599   6.465   0.559   7.585 -0.1053 -0.5983  0.6057
   67SAPC   H7R 5600   6.532   0.521   7.665 -1.1856 -1.2729  1.2045
   67SAPC   H7S 5601   6.463   0.478   7.509 -0.5867  0.3219 -0.3976
   67SAPC   C28 5602   6.321   0.566   7.635 -0.9240  0.7472  0.6442
   67SAPC   H8R 5603   6.249   0.606   7.562 -2.4470 -2.6949  0.0349
   67SAPC   C29 5604   6.269   0.513   7.750 -0.2061 -0.5838 -0.6026
   67SAPC   H9R 5605   6.160   0.507   7.767 -0.5016  0.5132 -1.9223
   67SAPC  C210 5606   6.343   0.439   7.856  0.3861  0.3584  0.1275
   67SAPC  H10R 5607   6.440   0.400   7.817  1.4855  2.2991  0.7694
   67SAPC  H10S 5608   6.273   0.358   7.885 -1.3689  1.9921  0.6641
   67SAPC  C211 5609   6.369   0.533   7.972 -0.5404  0.4215  0.6492
   67SAPC  H11R 5610   6.472   0.570   7.982  0.2697 -0.8579 -2.0153
   67SAPC  C212 5611   6.291   0.558   8.072  0.2142  0.5357  0.6581
   67SAPC  H12R 5612   6.324   0.635   8.142  0.5039  0.1581  0.9401
   67SAPC  C213 5613   6.147   0.512   8.098  0.3294  0.5573 -0.8947
   67SAPC  H13R 5614   6.124   0.487   8.204 -3.2465  2.2174 -1.1054
   67SAPC  H13S 5615   6.121   0.416   8.049  1.4368 -0.3254  0.1888
   67SAPC  C214 5616   6.056   0.628   8.055 -0.3717  0.2620 -0.5537
   67SAPC  H14R 5617   6.078   0.671   7.956  1.9316  1.0348  0.2162
   67SAPC  C215 5618   5.973   0.692   8.143  0.0005  0.3718 -0.2320
   67SAPC  H15R 5619   5.907   0.765   8.095 -0.6851 -1.6558 -2.5489
   67SAPC  C216 5620   5.950   0.660   8.291 -0.3033  0.2729 -1.4595
   67SAPC  H16R 5621   6.038   0.614   8.340  0.3433  2.4380 -0.4287
   67SAPC  H16S 5622   5.868   0.587   8.308  1.0164 -0.6383  1.9520
   67SAPC  C217 5623   5.909   0.789   8.372  0.3794 -0.3282  0.1372
   67SAPC  H17R 5624   5.811   0.814   8.327  0.8721  1.3874 -0.0716
   67SAPC  H17S 5625   5.967   0.881   8.351 -1.4493  1.2761  1.7794
   67SAPC  C218 5626   5.884   0.775   8.519  0.1340  0.5306  0.1747
   67SAPC  H18R 5627   5.836   0.676   8.539 -1.9401  1.5714  0.6171
   67SAPC  H18S 5628   5.810   0.849   8.555 -0.2724 -0.0868  0.6248
   67SAPC  C219 5629   5.998   0.790   8.624 -0.4649  0.0941  1.1415
   67SAPC  H19R 5630   6.059   0.881   8.605 -1.3800  0.7378  1.1722
   67SAPC  H19S 5631   6.068   0.706   8.607 -1.5162 -0.6955  0.5114
   67SAPC  C220 5632   5.953   0.778   8.770  0.7221 -0.3472 -0.7277
   67SAPC  H20R 5633   5.873   0.853   8.787  1.1972 -0.4006  2.2459
   67SAPC  H20S 5634   6.023   0.800   8.853 -0.0896  0.1267 -0.1530
   67SAPC  H20T 5635   5.911   0.676   8.779  1.0542 -0.5468 -1.3667
   67SAPC   C33 5636   7.171   0.834   7.199  0.0687 -0.3447 -0.1844
   67SAPC   H3X 5637   7.258   0.801   7.260 -1.5945 -1.3369  1.7504
   67SAPC   H3Y 5638   7.136   0.746   7.141 -0.7176 -0.2443  0.1350
   67SAPC   C34 5639   7.067   0.883   7.306 -0.5317 -0.3521 -0.1330
   67SAPC   H4X 5640   6.974   0.878   7.245  0.2070  0.9791 -1.4382
   67SAPC   H4Y 5641   7.083   0.987   7.339 -3.4220  0.0141  0.3870
   67SAPC   C35 5642   7.051   0.793   7.428 -0.1963  0.7026  0.3105
   67SAPC   H5X 5643   7.146   0.802   7.486  1.2360  1.0314 -1.9799
   67SAPC   H5Y 5644   7.032   0.685   7.409 -3.0856  1.1301  0.3689
   67SAPC   C36 5645   6.941   0.836   7.528 -0.5619  0.8703  0.6797
   67SAPC   H6X 5646   6.853   0.833   7.460  0.9569 -1.0290 -1.3989
   67SAPC   H6Y 5647   6.954   0.942   7.559  2.2510  0.8666 -0.1717
   67SAPC   C37 5648   6.906   0.732   7.641 -0.3820  0.5727 -0.5643
   67SAPC   H7X 5649   7.003   0.692   7.676 -0.0010 -0.7053 -2.8688
   67SAPC   H7Y 5650   6.854   0.645   7.594 -2.0517  1.5350 -0.5776
   67SAPC   C38 5651   6.813   0.796   7.739  0.0210 -0.7164  0.4998
   67SAPC   H8X 5652   6.741   0.723   7.781  1.5441 -1.4983  1.8515
   67SAPC   H8Y 5653   6.753   0.878   7.693 -0.7747 -2.4857 -1.7953
   67SAPC   C39 5654   6.898   0.846   7.855  0.6585 -0.0321  0.1053
   67SAPC   H9X 5655   6.933   0.952   7.851 -0.1869  0.2434 -0.4066
   67SAPC   H9Y 5656   6.984   0.778   7.872 -0.5593 -1.3730  1.1481
   67SAPC  C310 5657   6.825   0.840   7.992 -0.2414  0.3037  0.1964
   67SAPC  H10X 5658   6.785   0.739   8.013 -0.6554  0.2435 -0.8702
   67SAPC  H10Y 5659   6.736   0.906   7.989  0.0909  0.8398  1.3300
   67SAPC  C311 5660   6.921   0.875   8.108 -0.3345  0.3274  0.1732
   67SAPC  H11X 5661   6.970   0.971   8.082 -0.1007 -0.1357 -1.1247
   67SAPC  H11Y 5662   7.001   0.799   8.117  0.9535  1.5416 -0.7121
   67SAPC  C312 5663   6.834   0.883   8.233 -0.7216  0.4461  0.0274
   67SAPC  H12X 5664   6.747   0.944   8.200 -1.2100 -0.1856  0.1282
   67SAPC  H12Y 5665   6.893   0.934   8.311  1.5975 -2.7005  0.5236
   67SAPC  C313 5666   6.780   0.752   8.290  0.2415 -0.0673  0.0094
   67SAPC  H13X 5667   6.865   0.680   8.291 -2.0466 -2.9590  0.8267
   67SAPC  H13Y 5668   6.706   0.697   8.228  0.0849 -1.2610  1.2094
   67SAPC  C314 5669   6.733   0.769   8.437  0.6289  0.2029 -0.2433
   67SAPC  H14X 5670   6.639   0.828   8.440  0.4761 -0.0555  2.5069
   67SAPC  H14Y 5671   6.807   0.831   8.492 -0.5629  0.0231  1.6165
   67SAPC  C315 5672   6.719   0.641   8.517  0.2803 -0.2559 -0.1019
   67SAPC  H15X 5673   6.713   0.657   8.627 -2.0785  1.9091 -0.4532
   67SAPC  H15Y 5674   6.799   0.570   8.487 -0.4460 -1.1129 -0.0545
   67SAPC  C316 5675   6.587   0.562   8.486  0.3640  0.7213 -0.0817
   67SAPC  H16X 5676   6.603   0.458   8.521 -2.0096 -0.7990 -3.1001
   67SAPC  H16Y 5677   6.574   0.559   8.376  0.1140  1.8042 -0.0933
   67SAPC  C317 5678   6.472   0.634   8.548 -0.5861 -0.4104  0.4071
   67SAPC  H17X 5679   6.465   0.734   8.501  2.5005 -1.1427 -1.9448
   67SAPC  H17Y 5680   6.492   0.649   8.656 -1.3997 -0.4856  0.5703
   67SAPC  C318 5681   6.345   0.559   8.533  0.4770 -0.5034 -0.1978
   67SAPC  H18X 5682   6.332   0.460   8.583 -1.3200 -0.4495 -0.4744
   67SAPC  H18Y 5683   6.308   0.560   8.429 -0.2305  1.1466  0.0406
   67SAPC  H18Z 5684   6.269   0.614   8.594  0.4593 -1.8739  1.0832
   68SAPC     N 5685   3.821   5.415   6.075  0.5835  0.3762 -0.2278
   68SAPC   C12 5686   3.905   5.451   6.197 -0.5977 -0.0564  0.2903
   68SAPC  H12A 5687   3.900   5.557   6.218  0.3926  0.0608  0.0011
   68SAPC  H12B 5688   4.007   5.427   6.173 -0.0084 -0.7791  3.1490
   68SAPC   C13 5689   3.898   5.452   5.955  0.2883 -0.4613  0.1101
   68SAPC  H13A 5690   3.998   5.413   5.965 -0.2829 -1.6069  1.8624
   68SAPC  H13B 5691   3.860   5.419   5.859  1.9250 -2.2751  0.0376
   68SAPC  H13C 5692   3.892   5.560   5.946  0.7099 -0.4843 -0.4512
   68SAPC   C14 5693   3.803   5.273   6.066 -0.0731 -0.2772 -0.2642
   68SAPC  H14A 5694   3.747   5.245   5.978  1.3785 -1.2604 -0.9194
   68SAPC  H14B 5695   3.895   5.219   6.047  0.5675  0.3347  1.0208
   68SAPC  H14C 5696   3.756   5.233   6.154 -2.4693  2.2223 -0.2579
   68SAPC   C15 5697   3.688   5.486   6.082 -0.1432 -0.6982  0.7403
   68SAPC  H15A 5698   3.624   5.459   5.999  0.1106  0.5612  0.1115
   68SAPC  H15B 5699   3.643   5.458   6.176 -0.7217 -2.1642  0.0561
   68SAPC  H15C 5700   3.709   5.592   6.082  2.4377 -1.0954 -1.0122
   68SAPC   C11 5701   3.872   5.393   6.336 -0.0385  1.1437  0.0044
   68SAPC  H11A 5702   3.769   5.425   6.360 -1.2633 -1.3008 -1.6483
   68SAPC  H11B 5703   3.939   5.436   6.414 -1.9729  0.9877  1.8556
   68SAPC     P 5704   4.001   5.160   6.354  0.3382  0.1300  0.1157
   68SAPC   O13 5705   3.977   5.034   6.277 -0.1442  0.2200 -0.4175
   68SAPC   O14 5706   4.121   5.246   6.337 -0.2036 -0.1652  0.1552
   68SAPC   O12 5707   3.873   5.249   6.349  0.3102 -0.4049 -0.6866
   68SAPC   O11 5708   4.006   5.105   6.497 -0.4654  0.7299  0.3081
   68SAPC    C1 5709   4.006   5.184   6.613  0.6847 -0.4178  0.0631
   68SAPC    HA 5710   4.033   5.288   6.584  1.8658 -1.0814 -1.4394
   68SAPC    HB 5711   3.907   5.178   6.662 -0.0549  0.4490 -1.2411
   68SAPC    C2 5712   4.107   5.129   6.720 -0.0628 -0.2327 -0.3590
   68SAPC    HS 5713   4.120   5.200   6.804 -0.3921 -2.3606  1.5859
   68SAPC   O21 5714   4.236   5.114   6.662 -0.0723 -0.3141 -0.1415
   68SAPC   C21 5715   4.299   5.222   6.615 -0.2398 -0.1215 -0.3189
   68SAPC   O22 5716   4.252   5.335   6.615  0.1365 -0.0334 -0.5174
   68SAPC   C22 5717   4.445   5.181   6.575 -0.0028  0.9417  0.0817
   68SAPC   H2R 5718   4.446   5.112   6.488  3.5917 -0.9429  1.3952
   68SAPC   H2S 5719   4.501   5.275   6.553  2.0878 -0.2552  0.0427
   68SAPC    C3 5720   4.058   4.996   6.787 -0.3854 -0.0190 -0.2622
   68SAPC    HX 5721   4.141   4.935   6.827 -2.3222 -0.0112  4.4676
   68SAPC    HY 5722   4.017   4.933   6.705 -0.3225  0.6766 -0.8377
   68SAPC   O31 5723   3.965   5.018   6.897  0.1706 -0.6042  0.2024
   68SAPC   C31 5724   3.904   4.905   6.944 -0.7244 -0.1250  0.0249
   68SAPC   O32 5725   3.914   4.794   6.896 -0.4656  0.2699  0.2470
   68SAPC   C32 5726   3.807   4.948   7.049 -0.1093 -0.6736 -0.2243
   68SAPC   H2X 5727   3.705   4.946   7.005 -0.7798 -0.1182  1.2556
   68SAPC   H2Y 5728   3.836   5.048   7.086  2.1407 -0.5919 -1.9472
   68SAPC   C23 5729   4.511   5.102   6.690 -0.2488  0.4340 -0.2646
   68SAPC   H3R 5730   4.594   5.034   6.660  0.2125  1.1879 -0.7277
   68SAPC   H3S 5731   4.438   5.031   6.734 -2.4239  2.5553 -0.2554
   68SAPC   C24 5732   4.561   5.194   6.808 -0.4984 -0.9522  0.3817
   68SAPC   H4R 5733   4.566   5.135   6.902  1.1146 -0.1427  0.8381
   68SAPC   H4S 5734   4.493   5.282   6.812  0.0706 -0.5345  1.1013
   68SAPC   C25 5735   4.689   5.255   6.757 -0.6142  0.3494 -0.3457
   68SAPC   H5R 5736   4.689   5.315   6.665 -0.2512  0.7447 -0.0914
   68SAPC   C26 5737   4.803   5.245   6.822 -0.5397  0.0504  0.4938
   68SAPC   H6R 5738   4.890   5.274   6.761 -2.5344 -1.6496 -3.5027
   68SAPC   C27 5739   4.831   5.187   6.961  0.4891  0.6526  0.3471
   68SAPC   H7R 5740   4.928   5.133   6.959  1.0529  1.6168  1.0048
   68SAPC   H7S 5741   4.759   5.108   6.991 -1.3782  1.3589 -1.9777
   68SAPC   C28 5742   4.849   5.284   7.072 -0.2776  0.0639  0.0997
   68SAPC   H8R 5743   4.884   5.387   7.056 -1.4140  1.1453  3.6869
   68SAPC   C29 5744   4.818   5.262   7.206 -0.0603  0.7395  0.2998
   68SAPC   H9R 5745   4.846   5.343   7.274 -0.3181  0.6678  0.4947
   68SAPC  C210 5746   4.763   5.137   7.271  0.4993  0.8237 -0.0023
   68SAPC  H10R 5747   4.758   5.147   7.382  0.4755 -2.1081  0.3416
   68SAPC  H10S 5748   4.831   5.051   7.252 -1.9524 -1.5729  1.2717
   68SAPC  C211 5749   4.623   5.080   7.232  0.4623 -0.5730  0.0614
   68SAPC  H11R 5750   4.580   5.105   7.133 -0.5807 -1.6832  0.2127
   68SAPC  C212 5751   4.544   4.999   7.311  0.0155  0.6203  0.2837
   68SAPC  H12R 5752   4.451   4.964   7.264  0.6063 -2.1801  1.0022
   68SAPC  C213 5753   4.568   4.949   7.450 -0.1492  0.0802  0.2835
   68SAPC  H13R 5754   4.623   5.026   7.510  0.3331 -0.6440  0.7828
   68SAPC  H13S 5755   4.633   4.860   7.461 -0.6142 -0.1976  0.8330
   68SAPC  C214 5756   4.440   4.910   7.533 -0.0166  0.3576  0.6009
   68SAPC  H14R 5757   4.346   4.899   7.477  1.8686 -1.2197 -2.5335
   68SAPC  C215 5758   4.444   4.884   7.663 -0.1571 -0.8142 -0.4247
   68SAPC  H15R 5759   4.352   4.871   7.721  0.1700 -0.7392  0.1141
   68SAPC  C216 5760   4.572   4.887   7.744 -0.5770  0.3824  0.0173
   68SAPC  H16R 5761   4.590   4.993   7.773 -0.6089  0.0980  1.1016
   68SAPC  H16S 5762   4.663   4.851   7.691 -0.2872  0.0880  0.6972
   68SAPC  C217 5763   4.570   4.797   7.869  0.1436  0.1764 -0.7789
   68SAPC  H17R 5764   4.674   4.766   7.895  0.4069 -0.0015 -1.9680
   68SAPC  H17S 5765   4.514   4.704   7.846  1.4094 -1.0502  0.7596
   68SAPC  C218 5766   4.505   4.865   7.991 -0.6847  0.4878 -0.4257
   68SAPC  H18R 5767   4.398   4.872   7.963 -1.1777  1.2811  1.5505
   68SAPC  H18S 5768   4.542   4.969   8.003 -1.4174  0.7790 -0.6866
   68SAPC  C219 5769   4.521   4.805   8.125  0.9274 -0.2635  0.3988
   68SAPC  H19R 5770   4.626   4.815   8.159  1.5502 -0.6919 -1.2778
   68SAPC  H19S 5771   4.494   4.698   8.111 -0.7861  0.0918  0.7584
   68SAPC  C220 5772   4.435   4.857   8.240  0.0192  0.3303  0.1762
   68SAPC  H20R 5773   4.484   4.950   8.277 -0.2818  0.3743  0.4736
   68SAPC  H20S 5774   4.429   4.778   8.318 -0.5355 -0.5829 -0.7632
   68SAPC  H20T 5775   4.336   4.875   8.192  0.0428  1.6767  0.5709
   68SAPC   C33 5776   3.807   4.853   7.172 -0.7718 -0.3691 -0.1831
   68SAPC   H3X 5777   3.906   4.843   7.222 -2.7934 -3.4981  3.8060
   68SAPC   H3Y 5778   3.797   4.748   7.138  1.2749 -1.1715  1.5051
   68SAPC   C34 5779   3.701   4.885   7.283  0.4347 -0.0652  0.3417
   68SAPC   H4X 5780   3.602   4.874   7.233 -0.8303 -0.5657  2.8384
   68SAPC   H4Y 5781   3.706   4.993   7.309 -1.5641  0.3533 -0.8008
   68SAPC   C35 5782   3.703   4.782   7.393  0.4634 -0.0382 -0.2353
   68SAPC   H5X 5783   3.804   4.789   7.438  0.2003 -0.0962  0.3835
   68SAPC   H5Y 5784   3.687   4.676   7.362  1.0593  0.1027 -1.0580
   68SAPC   C36 5785   3.609   4.825   7.508 -0.6528  0.3775  0.5388
   68SAPC   H6X 5786   3.504   4.811   7.476  0.0848  0.3889 -2.1393
   68SAPC   H6Y 5787   3.630   4.932   7.530 -1.7734  0.6120  0.5360
   68SAPC   C37 5788   3.646   4.757   7.640  0.0368  0.2936 -0.1486
   68SAPC   H7X 5789   3.745   4.797   7.673  0.4474 -0.6380 -0.2187
   68SAPC   H7Y 5790   3.660   4.647   7.628  2.5010  0.5304 -0.0569
   68SAPC   C38 5791   3.543   4.783   7.753 -0.5107 -0.3399 -0.2835
   68SAPC   H8X 5792   3.436   4.771   7.724  0.2722 -0.6784 -3.4156
   68SAPC   H8Y 5793   3.557   4.889   7.783  0.8909 -0.4878 -0.3760
   68SAPC   C39 5794   3.581   4.697   7.876  0.6769  0.8674 -0.0161
   68SAPC   H9X 5795   3.691   4.691   7.894  0.5056 -1.8367  0.5106
   68SAPC   H9Y 5796   3.555   4.590   7.865 -1.9271  1.4337 -0.0248
   68SAPC  C310 5797   3.498   4.735   8.003 -0.4539 -0.6455  0.0161
   68SAPC  H10X 5798   3.392   4.716   7.976 -0.6973  1.0808 -0.3825
   68SAPC  H10Y 5799   3.513   4.844   8.020 -3.8766  0.1577 -1.2242
   68SAPC  C311 5800   3.544   4.655   8.123 -0.0836  0.7517 -0.1390
   68SAPC  H11X 5801   3.650   4.685   8.134 -0.6053  2.9838 -0.6739
   68SAPC  H11Y 5802   3.533   4.544   8.120  1.7724  0.5535 -1.1500
   68SAPC  C312 5803   3.463   4.702   8.247  0.2506 -0.1630  0.0929
   68SAPC  H12X 5804   3.357   4.685   8.219 -0.0170  2.1075 -0.4761
   68SAPC  H12Y 5805   3.481   4.812   8.256  0.6381  0.0147 -2.1605
   68SAPC  C313 5806   3.496   4.621   8.378  0.7163 -0.6985 -0.4124
   68SAPC  H13X 5807   3.605   4.616   8.396  0.3329 -0.9871  2.2738
   68SAPC  H13Y 5808   3.472   4.514   8.361 -1.8160 -0.0470 -1.4357
   68SAPC  C314 5809   3.432   4.680   8.504 -0.1621  0.2566  0.0244
   68SAPC  H14X 5810   3.335   4.628   8.517 -0.4856  1.2663  2.0961
   68SAPC  H14Y 5811   3.418   4.789   8.489 -0.4642  0.0286 -1.5134
   68SAPC  C315 5812   3.513   4.668   8.632  0.6254  0.6282 -0.3649
   68SAPC  H15X 5813   3.505   4.562   8.664 -0.3374  0.7834 -0.0631
   68SAPC  H15Y 5814   3.464   4.717   8.719  2.8042 -0.2150  1.4662
   68SAPC  C316 5815   3.656   4.730   8.625  0.7046  0.3181  0.2266
   68SAPC  H16X 5816   3.650   4.836   8.590 -0.4009 -0.5056 -2.2635
   68SAPC  H16Y 5817   3.707   4.674   8.544 -2.0145 -1.0008 -0.6640
   68SAPC  C317 5818   3.730   4.735   8.755  0.6813  0.1562  0.0735
   68SAPC  H17X 5819   3.752   4.630   8.786  1.3027 -0.7378 -3.0015
   68SAPC  H17Y 5820   3.651   4.771   8.824 -2.8313 -0.6111 -3.1869
   68SAPC  C318 5821   3.853   4.825   8.759 -0.4552 -0.5529  0.4074
   68SAPC  H18X 5822   3.938   4.779   8.704  1.1069  1.6982  0.8141
   68SAPC  H18Y 5823   3.887   4.849   8.862 -1.9523  1.0881  0.5569
   68SAPC  H18Z 5824   3.839   4.918   8.700  0.4617 -0.4045  0.3976
   69SLPC     N 5825   1.968   5.516  11.143 -0.1594  0.2648  0.1046
   69SLPC   C13 5826   2.031   5.384  11.180  0.1426  0.1020 -0.9358
   69SLPC  H13A 5827   1.950   5.317  11.206 -1.4882  1.8255 -1.3510
   69SLPC  H13B 5828   2.084   5.348  11.093  1.4078 -1.4946  0.4180
   69SLPC  H13C 5829   2.102   5.398  11.261  0.0914 -2.0599 -0.4593
   69SLPC   C14 5830   1.854   5.493  11.053 -0.1927  0.7116 -0.0830
   69SLPC  H14A 5831   1.893   5.439  10.969  1.3049 -0.0894  1.0732
   69SLPC  H14B 5832   1.770   5.440  11.097  0.4870 -0.6144 -0.3159
   69SLPC  H14C 5833   1.798   5.583  11.034  1.6630  2.0236  0.3855
   69SLPC   C15 5834   2.071   5.602  11.083  0.7347 -0.2894  0.3157
   69SLPC  H15A 5835   2.168   5.600  11.130  0.8245  1.3178  0.2753
   69SLPC  H15B 5836   2.090   5.584  10.978 -0.4748 -0.4394  0.1093
   69SLPC  H15C 5837   2.038   5.705  11.086 -1.1764 -0.8212 -0.7263
   69SLPC   C12 5838   1.908   5.580  11.266 -0.6478  0.4462 -0.4139
   69SLPC  H12A 5839   1.987   5.584  11.339  0.6295 -0.6221 -1.6938
   69SLPC  H12B 5840   1.833   5.512  11.304 -0.7028  1.1598  0.8029
   69SLPC   C11 5841   1.842   5.721  11.256 -0.4056 -0.2638 -0.5898
   69SLPC  H11A 5842   1.921   5.792  11.222  0.2954 -0.9865 -0.5083
   69SLPC  H11B 5843   1.809   5.748  11.358 -2.7367  0.8413 -1.5655
   69SLPC     P 5844   1.593   5.781  11.207  0.0607  0.4580 -0.2401
   69SLPC   O13 5845   1.541   5.700  11.323 -0.2740  0.2059  0.6578
   69SLPC   O14 5846   1.597   5.929  11.231  0.2237 -0.0524 -0.6131
   69SLPC   O12 5847   1.735   5.729  11.164  0.0159 -0.7592  0.3189
   69SLPC   O11 5848   1.511   5.747  11.079  0.7424  0.4455  0.0445
   69SLPC    C1 5849   1.590   5.758  10.960  0.4170  0.1364 -0.0869
   69SLPC    HA 5850   1.658   5.846  10.957 -1.4149  1.5894 -0.7992
   69SLPC    HB 5851   1.653   5.672  10.930  1.9222  1.4967 -1.0171
   69SLPC    C2 5852   1.503   5.786  10.840  1.0332 -0.3358  0.1042
   69SLPC    HS 5853   1.441   5.871  10.876 -0.2143 -2.0558  2.1825
   69SLPC   O21 5854   1.412   5.673  10.824 -0.2075  0.0792  0.2174
   69SLPC   C21 5855   1.282   5.705  10.796  0.3601 -0.0951 -0.2067
   69SLPC   O22 5856   1.236   5.817  10.796 -0.2066  0.0946 -0.6711
   69SLPC   C22 5857   1.203   5.581  10.761 -0.5856 -0.1007  0.0536
   69SLPC   H2R 5858   1.223   5.488  10.817 -1.8692  0.3714  1.3431
   69SLPC   H2S 5859   1.097   5.611  10.777 -0.9831 -1.5665  0.2734
   69SLPC    C3 5860   1.586   5.828  10.713  1.1275  0.2129  0.5460
   69SLPC    HX 5861   1.652   5.913  10.742  0.7393  0.1335  1.7278
   69SLPC    HY 5862   1.510   5.858  10.638  0.3233 -1.9523  0.4396
   69SLPC   O31 5863   1.657   5.717  10.653  0.3121 -0.2966 -0.3575
   69SLPC   C31 5864   1.777   5.687  10.679 -0.7854  0.6370 -0.9245
   69SLPC   O32 5865   1.842   5.755  10.758 -0.1082 -0.4276  0.1872
   69SLPC   C32 5866   1.826   5.561  10.606 -0.9819  0.2383  0.3141
   69SLPC   H2X 5867   1.747   5.530  10.535 -2.5119 -0.1626  2.1275
   69SLPC   H2Y 5868   1.850   5.480  10.678 -1.3351  0.4825  0.7057
   69SLPC   C23 5869   1.227   5.550  10.618 -0.0156  0.2337 -0.6788
   69SLPC   H3R 5870   1.325   5.502  10.593 -0.4958  0.1141 -2.5398
   69SLPC   H3S 5871   1.224   5.637  10.549  1.1319  0.1753 -0.8242
   69SLPC   C24 5872   1.134   5.434  10.567  0.5079 -0.6439 -0.6880
   69SLPC   H4R 5873   1.141   5.352  10.642  1.7487  0.4753  0.4806
   69SLPC   H4S 5874   1.178   5.390  10.475  0.8605  0.9717 -1.3239
   69SLPC   C25 5875   0.983   5.458  10.553  0.2867 -0.1768 -0.1960
   69SLPC   H5R 5876   0.950   5.552  10.602  0.4954  0.3006 -0.9459
   69SLPC   H5S 5877   0.919   5.382  10.603 -1.3073  2.7144  2.5115
   69SLPC   C26 5878   0.936   5.468  10.405  0.2019  0.1888  0.1485
   69SLPC   H6R 5879   0.918   5.366  10.366 -0.5132  0.9680 -1.6842
   69SLPC   H6S 5880   1.021   5.516  10.350 -0.7890  0.7348 -0.9625
   69SLPC   C27 5881   0.810   5.547  10.384 -0.0819 -0.2464  0.6365
   69SLPC   H7R 5882   0.821   5.644  10.437 -0.9734  1.1565 -1.6101
   69SLPC   H7S 5883   0.732   5.489  10.438 -0.7413 -1.0789 -1.1209
   69SLPC   C28 5884   0.763   5.563  10.240  0.1532  0.3134 -1.3630
   69SLPC   H8R 5885   0.661   5.606  10.239 -0.2271 -0.3898  1.2015
   69SLPC   H8S 5886   0.774   5.458  10.205 -0.9435  0.4518 -2.1476
   69SLPC   C29 5887   0.856   5.666  10.174  0.4934  0.2858  0.3942
   69SLPC   H9R 5888   0.904   5.733  10.247 -0.7845 -1.0932  2.6179
   69SLPC  C210 5889   0.900   5.653  10.048 -0.3645  0.1312  0.7597
   69SLPC  H10R 5890   0.974   5.723  10.007 -0.6096 -0.3047 -0.4588
   69SLPC  C211 5891   0.862   5.544   9.950  0.9434  0.2016  0.0128
   69SLPC  H11R 5892   0.863   5.442   9.995 -0.6513 -0.7527 -1.9763
   69SLPC  H11S 5893   0.936   5.548   9.867  0.8864  1.2567  0.0043
   69SLPC  C212 5894   0.723   5.562   9.891  0.4306 -0.5054  0.3823
   69SLPC  H12R 5895   0.651   5.580   9.973  1.1649 -1.1538  1.1791
   69SLPC  C213 5896   0.673   5.537   9.766  0.4597  0.4820  0.7639
   69SLPC  H13R 5897   0.565   5.545   9.750  0.4331 -1.2039 -0.1967
   69SLPC  C214 5898   0.758   5.495   9.645  0.2347 -0.3885 -0.0403
   69SLPC  H14R 5899   0.710   5.415   9.584 -0.3919  0.2891 -0.4549
   69SLPC  H14S 5900   0.856   5.447   9.665  0.2861 -1.1143 -1.8133
   69SLPC  C215 5901   0.787   5.616   9.554  0.3521  0.4368  0.1997
   69SLPC  H15R 5902   0.822   5.705   9.611 -1.3103 -0.1095  2.2269
   69SLPC  H15S 5903   0.687   5.643   9.512  0.7912 -0.5953 -1.5966
   69SLPC  C216 5904   0.887   5.591   9.435  0.1123 -0.8576  0.0171
   69SLPC  H16R 5905   0.962   5.520   9.475 -0.3632  0.4061  3.4922
   69SLPC  H16S 5906   0.940   5.680   9.393 -0.4612  0.8733  2.7073
   69SLPC  C217 5907   0.811   5.535   9.313  0.3468 -0.1767 -0.1202
   69SLPC  H17R 5908   0.755   5.623   9.273 -0.7091  1.1761  3.8366
   69SLPC  H17S 5909   0.734   5.464   9.348 -0.7123  0.3276 -1.3542
   69SLPC  C218 5910   0.891   5.467   9.212  0.4148  0.2453 -0.4184
   69SLPC  H18R 5911   0.937   5.374   9.253 -0.2619  1.8129  4.6998
   69SLPC  H18S 5912   0.971   5.530   9.167  0.5819 -0.1864 -0.7364
   69SLPC  H18T 5913   0.824   5.433   9.131  1.2749 -1.0029 -0.6403
   69SLPC   C33 5914   1.968   5.586  10.539 -0.1246 -0.3059 -0.0881
   69SLPC   H3X 5915   2.035   5.619  10.621 -1.1839 -3.1531  2.0771
   69SLPC   H3Y 5916   1.963   5.658  10.454 -0.8675 -1.7972 -1.3554
   69SLPC   C34 5917   2.030   5.460  10.465 -0.2832  0.4604  0.6019
   69SLPC   H4X 5918   1.944   5.421  10.406 -0.7154  1.4748  0.5424
   69SLPC   H4Y 5919   2.058   5.396  10.552 -0.3956  1.3685  1.3199
   69SLPC   C35 5920   2.154   5.491  10.386 -0.2742  0.6135  0.2035
   69SLPC   H5X 5921   2.202   5.392  10.372 -2.2020 -0.1533 -1.3635
   69SLPC   H5Y 5922   2.223   5.556  10.444 -0.0371  1.2365 -0.7525
   69SLPC   C36 5923   2.129   5.558  10.255 -0.2769 -0.0325  1.0321
   69SLPC   H6X 5924   2.145   5.667  10.261  1.1114 -0.0346 -1.2526
   69SLPC   H6Y 5925   2.022   5.545  10.227 -0.4083  2.1897  0.3220
   69SLPC   C37 5926   2.233   5.527  10.145  0.3213  0.0225 -0.5024
   69SLPC   H7X 5927   2.224   5.421  10.113  0.6252 -0.7958  1.9219
   69SLPC   H7Y 5928   2.337   5.553  10.174  0.5941 -2.3289  0.8601
   69SLPC   C38 5929   2.204   5.604  10.013 -0.1368 -0.4401  0.2223
   69SLPC   H8X 5930   2.238   5.708  10.028 -0.2943 -0.3227 -0.2064
   69SLPC   H8Y 5931   2.096   5.598   9.984 -0.1762  1.2754 -0.0821
   69SLPC   C39 5932   2.298   5.556   9.892  0.2899 -0.5935 -0.2690
   69SLPC   H9X 5933   2.282   5.448   9.875 -1.6478 -0.2433 -0.9696
   69SLPC   H9Y 5934   2.406   5.573   9.911  0.5822 -0.9771 -1.5104
   69SLPC  C310 5935   2.252   5.618   9.758  0.0427 -0.0806  0.0013
   69SLPC  H10X 5936   2.302   5.715   9.738  0.1581 -0.1282  0.0572
   69SLPC  H10Y 5937   2.141   5.624   9.753  0.0606  1.3824  0.7249
   69SLPC  C311 5938   2.298   5.527   9.641  0.5267 -0.3342  0.6587
   69SLPC  H11X 5939   2.237   5.434   9.647  0.1662 -0.1790 -0.4581
   69SLPC  H11Y 5940   2.405   5.498   9.647 -0.0518 -2.9987 -0.4399
   69SLPC  C312 5941   2.275   5.593   9.503 -0.2906 -0.4881 -0.2291
   69SLPC  H12X 5942   2.305   5.515   9.429 -0.9029  0.1399 -1.1663
   69SLPC  H12Y 5943   2.330   5.687   9.479 -1.0886 -0.4381 -2.0190
   69SLPC  C313 5944   2.125   5.634   9.471 -0.4511 -1.1085  0.2192
   69SLPC  H13X 5945   2.082   5.684   9.561 -0.5857  1.6273 -1.2630
   69SLPC  H13Y 5946   2.069   5.544   9.437  0.2986 -1.0374 -1.2885
   69SLPC  C314 5947   2.117   5.749   9.362  0.1957  0.5903 -0.1312
   69SLPC  H14X 5948   2.167   5.700   9.276  1.1295  0.9513  0.1964
   69SLPC  H14Y 5949   2.177   5.837   9.395  1.7690 -0.1050 -1.0626
   69SLPC  C315 5950   1.975   5.800   9.333 -0.9828  0.0440  0.7958
   69SLPC  H15X 5951   1.982   5.899   9.283 -0.8631  0.8513  2.3528
   69SLPC  H15Y 5952   1.914   5.822   9.423  0.2527 -1.7654  2.1650
   69SLPC  C316 5953   1.894   5.703   9.248 -0.1733  0.1620 -0.4279
   69SLPC  H16X 5954   1.787   5.728   9.267  0.3908  1.6914  0.9709
   69SLPC  H16Y 5955   1.896   5.596   9.275  1.3767 -0.4698 -2.7436
   69SLPC  C317 5956   1.898   5.721   9.096 -0.1582 -0.8259  0.1978
   69SLPC  H17X 5957   2.000   5.691   9.063 -0.2934  0.1347 -1.1745
   69SLPC  H17Y 5958   1.885   5.827   9.067  0.3727 -0.5804  0.8223
   69SLPC  C318 5959   1.795   5.639   9.022  0.2531  0.0987 -0.6330
   69SLPC  H18X 5960   1.813   5.530   9.029  0.6027  0.2315  0.6853
   69SLPC  H18Y 5961   1.784   5.676   8.917 -1.1140 -0.7367 -0.8017
   69SLPC  H18Z 5962   1.697   5.664   9.068 -0.1067  0.6502 -1.6622
   70SLPC     N 5963   3.245   2.370  11.193 -0.1122 -0.5129  0.0557
   70SLPC   C13 5964   3.201   2.509  11.159 -0.3393  0.1024  0.1667
   70SLPC  H13A 5965   3.100   2.494  11.124 -0.2467 -0.7671  0.2431
   70SLPC  H13B 5966   3.197   2.579  11.241  1.2597  1.2552 -0.6724
   70SLPC  H13C 5967   3.253   2.553  11.075 -2.6711  2.9689  0.0549
   70SLPC   C14 5968   3.151   2.311  11.284 -0.4938 -0.2582 -0.5233
   70SLPC  H14A 5969   3.140   2.367  11.376 -1.0853  0.5808 -1.0997
   70SLPC  H14B 5970   3.053   2.306  11.239 -0.9114 -2.1143  0.4700
   70SLPC  H14C 5971   3.178   2.210  11.311  1.3643  0.3220 -0.0894
   70SLPC   C15 5972   3.387   2.387  11.255 -0.1347  0.1348  0.6921
   70SLPC  H15A 5973   3.388   2.452  11.340  1.5886  2.4216 -0.9704
   70SLPC  H15B 5974   3.422   2.287  11.276 -0.8339 -0.0272  1.1255
   70SLPC  H15C 5975   3.451   2.431  11.181 -2.0298  1.0034 -0.5232
   70SLPC   C12 5976   3.248   2.292  11.061 -0.4291 -0.0439 -0.6005
   70SLPC  H12A 5977   3.320   2.328  10.989 -0.3308 -2.0208 -1.5741
   70SLPC  H12B 5978   3.154   2.299  11.007 -0.8364  2.4825  0.3201
   70SLPC   C11 5979   3.287   2.140  11.067 -0.4133  0.2559  0.4416
   70SLPC  H11A 5980   3.376   2.131  11.132 -1.3426 -2.4644  1.5059
   70SLPC  H11B 5981   3.319   2.102  10.968  1.0557 -0.6013  1.2115
   70SLPC     P 5982   3.056   2.008  11.045 -0.2781 -0.0962  0.6174
   70SLPC   O13 5983   3.097   1.881  10.985 -0.0507 -0.3599  0.1361
   70SLPC   O14 5984   2.951   2.009  11.140 -0.4019  0.4755  0.3215
   70SLPC   O12 5985   3.180   2.069  11.118 -0.2304  0.4320 -1.3109
   70SLPC   O11 5986   3.034   2.113  10.930  0.0305  0.3143 -0.1557
   70SLPC    C1 5987   3.014   2.072  10.792 -0.6382  0.0831  0.0168
   70SLPC    HA 5988   2.954   1.979  10.785 -0.8830  0.3111 -1.1353
   70SLPC    HB 5989   2.954   2.146  10.734 -0.0717 -0.2837 -1.0569
   70SLPC    C2 5990   3.146   2.056  10.709  0.6749 -0.3124  0.1806
   70SLPC    HS 5991   3.213   1.989  10.766  2.7266 -0.2187 -1.9778
   70SLPC   O21 5992   3.194   2.191  10.683 -0.0171  0.1227  0.0927
   70SLPC   C21 5993   3.326   2.190  10.655  0.4704  0.2171 -0.3290
   70SLPC   O22 5994   3.405   2.098  10.676 -1.1526 -0.0843  0.0444
   70SLPC   C22 5995   3.364   2.317  10.579 -0.3429 -0.0173 -0.2453
   70SLPC   H2R 5996   3.458   2.360  10.619 -2.3470  3.8463  0.8757
   70SLPC   H2S 5997   3.385   2.291  10.473  0.8410 -2.9039  0.6089
   70SLPC    C3 5998   3.107   1.990  10.570  0.9939 -0.5050  0.1049
   70SLPC    HX 5999   3.071   1.888  10.596  3.7208 -1.1907  1.5543
   70SLPC    HY 6000   3.198   1.979  10.508  0.6734 -1.3501 -0.2291
   70SLPC   O31 6001   3.004   2.066  10.498 -0.3214 -0.1774 -0.3781
   70SLPC   C31 6002   3.054   2.149  10.408  0.0874  0.3753  0.4618
   70SLPC   O32 6003   3.171   2.171  10.390 -0.7217  0.2433  0.3546
   70SLPC   C32 6004   2.938   2.223  10.339 -0.2109  0.2295 -0.2894
   70SLPC   H2X 6005   2.875   2.275  10.414 -1.1178 -1.6192  0.2550
   70SLPC   H2Y 6006   2.885   2.135  10.299  1.1333 -1.4812  1.4550
   70SLPC   C23 6007   3.265   2.433  10.591 -0.0819 -1.0847 -0.1340
   70SLPC   H3R 6008   3.251   2.465  10.696 -0.5603 -0.5239 -0.3655
   70SLPC   H3S 6009   3.163   2.403  10.560 -0.8357 -1.0145  2.1292
   70SLPC   C24 6010   3.318   2.546  10.493  0.5259 -0.4996 -0.7801
   70SLPC   H4R 6011   3.348   2.498  10.397 -1.4050 -1.8296 -0.7546
   70SLPC   H4S 6012   3.409   2.594  10.537 -0.3134 -0.6727  1.2327
   70SLPC   C25 6013   3.216   2.655  10.458  0.6709  0.0678  0.5220
   70SLPC   H5R 6014   3.189   2.725  10.541  0.5888  2.1385 -1.1784
   70SLPC   H5S 6015   3.122   2.613  10.417  0.7941 -0.5711  0.8908
   70SLPC   C26 6016   3.272   2.744  10.341  0.2560  0.4425  0.2294
   70SLPC   H6R 6017   3.186   2.811  10.319 -1.8522 -1.7186  1.4278
   70SLPC   H6S 6018   3.286   2.669  10.261  2.2435  1.1658 -0.1706
   70SLPC   C27 6019   3.411   2.807  10.362  0.1653 -0.2905 -0.3675
   70SLPC   H7R 6020   3.477   2.719  10.377  1.9823  0.8659 -1.0985
   70SLPC   H7S 6021   3.414   2.865  10.457  0.0711 -0.5520 -0.2049
   70SLPC   C28 6022   3.472   2.880  10.240  0.3387 -0.2298 -0.3760
   70SLPC   H8R 6023   3.488   2.803  10.161 -0.6104  0.0178 -0.8295
   70SLPC   H8S 6024   3.574   2.918  10.259  0.5040 -1.3221  1.0968
   70SLPC   C29 6025   3.384   2.997  10.189 -0.2793 -0.0077  0.4337
   70SLPC   H9R 6026   3.340   3.056  10.271  0.2747 -0.9517  1.4252
   70SLPC  C210 6027   3.364   3.028  10.062 -0.1404  0.2369  0.1782
   70SLPC  H10R 6028   3.296   3.107  10.030 -1.8030 -2.2034 -2.9099
   70SLPC  C211 6029   3.428   2.951   9.946  0.1924  0.1768 -0.2449
   70SLPC  H11R 6030   3.353   2.883   9.900  1.1924 -0.3077 -1.2061
   70SLPC  H11S 6031   3.516   2.887   9.967 -0.8593 -1.1260  0.3020
   70SLPC  C212 6032   3.467   3.060   9.846 -0.1115 -0.4294  0.1131
   70SLPC  H12R 6033   3.484   3.160   9.889  2.1843  0.0217 -1.6156
   70SLPC  C213 6034   3.493   3.039   9.712 -0.1179 -0.0890 -0.5155
   70SLPC  H13R 6035   3.523   3.127   9.653 -0.2326  0.2396 -0.0899
   70SLPC  C214 6036   3.487   2.918   9.626  0.3031 -0.4720  0.3137
   70SLPC  H14R 6037   3.391   2.894   9.575  0.5622  0.0222 -0.4166
   70SLPC  H14S 6038   3.509   2.817   9.669  0.8328 -0.4737  0.0393
   70SLPC  C215 6039   3.593   2.947   9.516 -0.9195  0.0049  0.4316
   70SLPC  H15R 6040   3.692   2.952   9.565 -0.9994 -1.1647  0.7403
   70SLPC  H15S 6041   3.570   3.043   9.465 -0.0449  0.9790  1.8108
   70SLPC  C216 6042   3.597   2.839   9.404 -0.3866  0.1262  0.0271
   70SLPC  H16R 6043   3.494   2.812   9.373  0.3699 -3.1532  0.0144
   70SLPC  H16S 6044   3.651   2.748   9.438 -0.4458  0.5171  1.2213
   70SLPC  C217 6045   3.683   2.875   9.279 -0.1819  0.7782  0.0365
   70SLPC  H17R 6046   3.705   2.780   9.226  0.5171  1.4633 -0.9345
   70SLPC  H17S 6047   3.788   2.898   9.308  0.4054  1.0453 -2.1304
   70SLPC  C218 6048   3.627   2.970   9.185 -0.2801  0.9740  0.3359
   70SLPC  H18R 6049   3.699   2.990   9.103 -0.3121  1.7149  0.4883
   70SLPC  H18S 6050   3.607   3.063   9.242 -1.8748  1.0151 -0.2238
   70SLPC  H18T 6051   3.531   2.930   9.146  0.3419 -0.2541  0.0073
   70SLPC   C33 6052   2.985   2.319  10.231  0.0320  0.2599  0.4731
   70SLPC   H3X 6053   3.050   2.276  10.152 -0.4319  1.5427 -0.6577
   70SLPC   H3Y 6054   3.043   2.398  10.282 -0.0496  0.4038  0.3447
   70SLPC   C34 6055   2.860   2.382  10.170  0.0334  0.5122 -0.1435
   70SLPC   H4X 6056   2.816   2.438  10.255  1.0652  0.3770  0.4969
   70SLPC   H4Y 6057   2.795   2.300  10.133  0.0020 -0.5065  2.0211
   70SLPC   C35 6058   2.895   2.474  10.042  0.3096  1.0229 -0.0290
   70SLPC   H5X 6059   2.798   2.520  10.010  0.2686  1.2370  0.4043
   70SLPC   H5Y 6060   2.940   2.406   9.967  1.4347  1.0918  0.5731
   70SLPC   C36 6061   2.996   2.583  10.082  0.2364 -0.2312  0.0530
   70SLPC   H6X 6062   3.088   2.543  10.130 -0.2351 -0.4147  0.8112
   70SLPC   H6Y 6063   2.955   2.635  10.171 -0.1734 -0.7215  0.1534
   70SLPC   C37 6064   3.021   2.681   9.964  0.3178 -0.4544 -0.3829
   70SLPC   H7X 6065   3.090   2.753  10.013 -2.3260  1.1261  1.2539
   70SLPC   H7Y 6066   2.922   2.728   9.944  0.8991  1.5535  1.1505
   70SLPC   C38 6067   3.079   2.617   9.834 -0.2530  0.1740 -0.0020
   70SLPC   H8X 6068   2.997   2.551   9.800  1.0604 -1.8209  0.5526
   70SLPC   H8Y 6069   3.169   2.556   9.854  1.1011  1.3323 -2.2328
   70SLPC   C39 6070   3.107   2.719   9.722 -0.1157 -1.1242 -0.0708
   70SLPC   H9X 6071   3.202   2.774   9.737 -0.3836 -0.7709  0.3416
   70SLPC   H9Y 6072   3.028   2.796   9.734  1.0766  0.5103 -1.9310
   70SLPC  C310 6073   3.100   2.665   9.583  1.0568 -0.3398  0.1866
   70SLPC  H10X 6074   2.995   2.646   9.552  1.3276 -1.1790 -0.2199
   70SLPC  H10Y 6075   3.165   2.576   9.579  0.1208 -1.0318  0.1037
   70SLPC  C311 6076   3.155   2.767   9.477  0.1923 -0.1454  0.3700
   70SLPC  H11X 6077   3.265   2.776   9.487  0.0714  2.5231 -0.0895
   70SLPC  H11Y 6078   3.110   2.868   9.488  0.8763  0.0612  1.4930
   70SLPC  C312 6079   3.126   2.719   9.338  0.0295 -0.0688 -0.4567
   70SLPC  H12X 6080   3.019   2.735   9.312  0.1567 -0.7039 -1.4280
   70SLPC  H12Y 6081   3.155   2.613   9.327  2.4629  0.6205 -1.1199
   70SLPC  C313 6082   3.211   2.788   9.230  0.1551  0.7375 -0.1088
   70SLPC  H13X 6083   3.316   2.768   9.260  0.0699  0.6288  0.1217
   70SLPC  H13Y 6084   3.184   2.896   9.235  1.7121  1.3271 -2.7531
   70SLPC  C314 6085   3.185   2.729   9.090 -0.0572  0.2549  0.1896
   70SLPC  H14X 6086   3.076   2.748   9.082 -0.3775 -0.3532  2.4662
   70SLPC  H14Y 6087   3.199   2.619   9.097 -0.9324  0.1894  1.2631
   70SLPC  C315 6088   3.268   2.791   8.981  0.7573 -0.5253  0.2817
   70SLPC  H15X 6089   3.374   2.799   9.013  0.4762  1.7243  0.7996
   70SLPC  H15Y 6090   3.237   2.898   8.980  0.2536 -0.6396  1.5571
   70SLPC  C316 6091   3.260   2.733   8.836 -0.5018  0.1086  0.0732
   70SLPC  H16X 6092   3.163   2.759   8.787 -2.1351 -4.1904  0.6346
   70SLPC  H16Y 6093   3.256   2.622   8.841 -4.1594  0.0165 -1.2528
   70SLPC  C317 6094   3.375   2.775   8.742  0.7606 -0.4600  0.1380
   70SLPC  H17X 6095   3.384   2.732   8.640 -1.2460 -2.6801  0.7884
   70SLPC  H17Y 6096   3.466   2.734   8.791  1.4469 -0.1705 -0.8533
   70SLPC  C318 6097   3.398   2.928   8.751 -0.7046  0.2097 -0.4463
   70SLPC  H18X 6098   3.306   2.983   8.721 -0.2573  1.1860 -0.0735
   70SLPC  H18Y 6099   3.484   2.948   8.683  1.8367 -1.4320  2.0753
   70SLPC  H18Z 6100   3.423   2.961   8.854 -2.9138  1.1202 -0.1403
   71SLPC     N 6101   3.346   0.589  10.899  0.2130 -0.2567  0.2521
   71SLPC   C13 6102   3.432   0.621  10.781  1.1532 -0.3969 -0.1057
   71SLPC  H13A 6103   3.459   0.725  10.778  0.7335 -0.3158 -2.8302
   71SLPC  H13B 6104   3.524   0.565  10.773  1.1590 -0.1525 -2.3118
   71SLPC  H13C 6105   3.385   0.593  10.688 -0.4115  1.6291  0.0252
   71SLPC   C14 6106   3.403   0.642  11.024 -0.4444  0.3245 -0.5816
   71SLPC  H14A 6107   3.445   0.742  11.023 -1.6842  0.9570  1.7300
   71SLPC  H14B 6108   3.338   0.628  11.109  2.8966 -1.4899  1.9494
   71SLPC  H14C 6109   3.489   0.582  11.052 -1.3140  0.4753  2.8049
   71SLPC   C15 6110   3.329   0.444  10.927  0.7478  0.0140  0.2350
   71SLPC  H15A 6111   3.421   0.393  10.952  0.0448 -0.9069  1.0669
   71SLPC  H15B 6112   3.258   0.429  11.007  0.8920  0.6708  0.4885
   71SLPC  H15C 6113   3.278   0.400  10.843 -0.3968  1.3416  0.2084
   71SLPC   C12 6114   3.202   0.649  10.878 -0.0382 -0.2171 -0.2481
   71SLPC  H12A 6115   3.205   0.756  10.868  0.9215 -0.2322 -0.2343
   71SLPC  H12B 6116   3.132   0.634  10.959  0.0341 -3.0904 -0.6129
   71SLPC   C11 6117   3.125   0.583  10.754 -0.3132  0.1071  0.4353
   71SLPC  H11A 6118   3.194   0.563  10.669  1.1394 -0.4337  1.6860
   71SLPC  H11B 6119   3.048   0.659  10.731  0.4758  0.5403 -0.8807
   71SLPC     P 6120   2.933   0.426  10.844 -0.1948 -0.1718  0.2702
   71SLPC   O13 6121   2.909   0.284  10.839  0.0459  0.2147 -0.5242
   71SLPC   O14 6122   2.931   0.490  10.983  0.5783 -0.1860  0.1220
   71SLPC   O12 6123   3.072   0.454  10.781  0.8201  0.5654  1.0186
   71SLPC   O11 6124   2.824   0.495  10.754 -0.3355 -0.0653  0.1487
   71SLPC    C1 6125   2.802   0.449  10.616  0.0673 -0.2008 -0.2277
   71SLPC    HA 6126   2.831   0.343  10.606  0.9476 -0.2560  2.2578
   71SLPC    HB 6127   2.691   0.451  10.604 -0.1017 -0.9116  1.0636
   71SLPC    C2 6128   2.888   0.519  10.500  0.2602 -0.0064  0.0411
   71SLPC    HS 6129   2.997   0.506  10.519  0.7294 -1.3365 -2.9560
   71SLPC   O21 6130   2.853   0.658  10.491 -0.4699 -0.9092  0.2811
   71SLPC   C21 6131   2.943   0.748  10.446  0.5444  0.3075 -0.1721
   71SLPC   O22 6132   3.055   0.715  10.417 -0.0511  0.0532 -0.0413
   71SLPC   C22 6133   2.880   0.888  10.426 -0.1388 -0.1823  0.2459
   71SLPC   H2R 6134   2.790   0.884  10.361 -0.0608  1.6549 -0.0073
   71SLPC   H2S 6135   2.849   0.939  10.519 -2.6359  1.8514 -1.5613
   71SLPC    C3 6136   2.862   0.448  10.368 -0.1974 -1.0094 -0.1188
   71SLPC    HX 6137   2.754   0.467  10.351  0.4762  1.4730 -2.3115
   71SLPC    HY 6138   2.867   0.338  10.378 -0.2873 -0.8807  1.5332
   71SLPC   O31 6139   2.935   0.519  10.258  0.0018  0.1830 -0.0997
   71SLPC   C31 6140   3.053   0.460  10.225  0.1542 -0.0368  0.3946
   71SLPC   O32 6141   3.101   0.361  10.276  0.1215  0.4636 -0.0390
   71SLPC   C32 6142   3.107   0.524  10.099  0.3879  0.3064  0.0858
   71SLPC   H2X 6143   3.111   0.635  10.109 -0.4814  0.4182 -0.6678
   71SLPC   H2Y 6144   3.043   0.500  10.012  1.7331 -1.8385 -0.3824
   71SLPC   C23 6145   2.982   1.001  10.365 -0.4142  0.6010  0.1274
   71SLPC   H3R 6146   3.072   1.020  10.428  1.0098  1.9945 -2.1581
   71SLPC   H3S 6147   2.923   1.093  10.347  0.8490  1.6052  0.9416
   71SLPC   C24 6148   3.033   0.967  10.220 -0.1017  0.2604  0.4619
   71SLPC   H4R 6149   3.121   0.900  10.227  0.7820  1.4760  1.5545
   71SLPC   H4S 6150   3.051   1.065  10.173 -0.1402  0.9069  1.7346
   71SLPC   C25 6151   2.935   0.906  10.119  0.3702  0.4089 -0.5608
   71SLPC   H5R 6152   2.831   0.929  10.153  0.2110 -0.0957 -0.7068
   71SLPC   H5S 6153   2.948   0.797  10.128  3.1665  0.7221 -0.0492
   71SLPC   C26 6154   2.959   0.947   9.973  0.4214 -0.9534 -0.1104
   71SLPC   H6R 6155   2.947   1.057   9.980  1.1895 -0.9949  2.9400
   71SLPC   H6S 6156   2.882   0.907   9.903  0.4685  0.5352 -1.0681
   71SLPC   C27 6157   3.097   0.908   9.914 -0.0055 -0.3571  0.5321
   71SLPC   H7R 6158   3.090   0.801   9.883 -0.8828 -0.3424  0.6625
   71SLPC   H7S 6159   3.176   0.917   9.991 -2.0111  0.2960  2.6269
   71SLPC   C28 6160   3.138   0.997   9.798 -0.6532 -0.6836 -0.1186
   71SLPC   H8R 6161   3.142   1.105   9.826  1.0349 -1.2758  2.2579
   71SLPC   H8S 6162   3.054   1.001   9.725 -0.1485  3.3719 -0.7517
   71SLPC   C29 6163   3.268   0.959   9.735 -0.8352  0.7016  0.1568
   71SLPC   H9R 6164   3.351   0.935   9.803  0.5944  1.6661 -1.1996
   71SLPC  C210 6165   3.298   0.964   9.603  0.2911  0.4593 -0.1701
   71SLPC  H10R 6166   3.393   0.929   9.563 -1.2636 -3.0331 -1.1708
   71SLPC  C211 6167   3.204   1.007   9.495  0.5585 -0.2325 -0.7243
   71SLPC  H11R 6168   3.137   1.088   9.530 -1.1092 -2.3389  1.1961
   71SLPC  H11S 6169   3.136   0.921   9.484 -0.9152  0.4201  2.2943
   71SLPC  C212 6170   3.285   1.036   9.374 -0.5789 -0.1378 -0.3492
   71SLPC  H12R 6171   3.325   0.942   9.333  0.6499 -1.2196  3.0123
   71SLPC  C213 6172   3.302   1.159   9.314  0.4605 -0.2488 -0.5828
   71SLPC  H13R 6173   3.345   1.168   9.213  1.4907 -1.5852 -0.2822
   71SLPC  C214 6174   3.252   1.286   9.370  0.6928  0.0996  0.5509
   71SLPC  H14R 6175   3.339   1.354   9.381 -0.0293  0.5677  4.5280
   71SLPC  H14S 6176   3.214   1.277   9.473  0.6553 -0.8233  0.4652
   71SLPC  C215 6177   3.136   1.346   9.285 -0.5995  0.2061 -0.5682
   71SLPC  H15R 6178   3.172   1.376   9.184  2.5565 -0.3268  0.2689
   71SLPC  H15S 6179   3.102   1.432   9.346  0.5598  0.1251  0.2439
   71SLPC  C216 6180   3.014   1.252   9.277 -1.1266 -0.0558 -0.5871
   71SLPC  H16R 6181   2.985   1.225   9.381  1.0718  1.8964  0.6188
   71SLPC  H16S 6182   3.044   1.150   9.244  3.6920  0.2488  2.0278
   71SLPC  C217 6183   2.906   1.300   9.182  0.6357  0.3905  0.5688
   71SLPC  H17R 6184   2.901   1.410   9.177 -1.9106  0.3425  0.8106
   71SLPC  H17S 6185   2.809   1.250   9.206  0.4653 -1.2326 -2.8714
   71SLPC  C218 6186   2.933   1.246   9.036  0.6434  0.7013  0.4940
   71SLPC  H18R 6187   3.039   1.265   9.011  1.1665  0.1999  2.2108
   71SLPC  H18S 6188   2.868   1.296   8.960  1.2992  0.9612  0.0971
   71SLPC  H18T 6189   2.905   1.139   9.029  1.8153  0.4861 -2.4180
   71SLPC   C33 6190   3.241   0.464  10.054  0.4406  0.2090  0.0739
   71SLPC   H3X 6191   3.233   0.354  10.038 -2.3654  0.4855 -1.1034
   71SLPC   H3Y 6192   3.315   0.488  10.133  2.0799 -4.6273  0.3507
   71SLPC   C34 6193   3.296   0.530   9.922 -0.2209 -0.1584  0.3179
   71SLPC   H4X 6194   3.399   0.499   9.897  0.3815  2.3404 -0.4866
   71SLPC   H4Y 6195   3.279   0.639   9.934 -1.5978 -0.3256  0.1577
   71SLPC   C35 6196   3.210   0.501   9.799  0.7331  0.1517  0.4504
   71SLPC   H5X 6197   3.112   0.550   9.783 -1.2719 -3.6239 -0.0478
   71SLPC   H5Y 6198   3.190   0.392   9.788  0.2044  0.1249  1.5279
   71SLPC   C36 6199   3.286   0.540   9.669  0.2332 -0.4431 -0.2086
   71SLPC   H6X 6200   3.374   0.474   9.651  0.5862  0.0765 -0.3787
   71SLPC   H6Y 6201   3.338   0.638   9.673 -0.9389  0.1804  0.1375
   71SLPC   C37 6202   3.190   0.553   9.544  0.4553 -0.0804  0.1705
   71SLPC   H7X 6203   3.111   0.627   9.565  0.8105  0.4505 -0.3331
   71SLPC   H7Y 6204   3.139   0.454   9.535  1.6656 -0.5966 -1.6695
   71SLPC   C38 6205   3.249   0.613   9.419 -0.5146 -0.5031 -0.3227
   71SLPC   H8X 6206   3.354   0.580   9.403 -0.2025  1.4451 -2.9143
   71SLPC   H8Y 6207   3.255   0.722   9.435  2.5997 -0.7137  0.4494
   71SLPC   C39 6208   3.168   0.589   9.295 -0.0040  0.8690 -0.2109
   71SLPC   H9X 6209   3.218   0.642   9.211  0.8010 -0.7445 -0.8033
   71SLPC   H9Y 6210   3.062   0.619   9.307  0.4250  2.0792  0.7098
   71SLPC  C310 6211   3.182   0.442   9.245 -0.2162 -0.2615  0.4244
   71SLPC  H10X 6212   3.122   0.376   9.312  0.9430 -1.4429  0.3504
   71SLPC  H10Y 6213   3.291   0.423   9.254 -0.0809 -0.5456 -1.4337
   71SLPC  C311 6214   3.144   0.426   9.099 -0.3940 -0.1403 -0.4108
   71SLPC  H11X 6215   3.225   0.472   9.038  0.3497 -2.7866 -1.5314
   71SLPC  H11Y 6216   3.043   0.469   9.085 -0.7105 -0.9129 -0.5137
   71SLPC  C312 6217   3.131   0.272   9.059 -0.2478 -0.1239  0.4370
   71SLPC  H12X 6218   3.098   0.260   8.954  1.0125 -1.5829  0.1745
   71SLPC  H12Y 6219   3.055   0.214   9.116 -0.2808 -0.0229  0.4984
   71SLPC  C313 6220   3.260   0.198   9.095  0.0234 -0.2900 -0.4690
   71SLPC  H13X 6221   3.231   0.155   9.194 -1.5553 -0.3065 -0.9119
   71SLPC  H13Y 6222   3.343   0.270   9.113  0.4329 -0.9860  0.5684
   71SLPC  C314 6223   3.307   0.091   8.991  0.1892 -0.7456 -0.7093
   71SLPC  H14X 6224   3.223   0.025   8.959  0.8179 -1.1426 -1.5776
   71SLPC  H14Y 6225   3.389   0.032   9.038  1.4032  0.3626 -1.3743
   71SLPC  C315 6226   3.371   0.146   8.864 -0.1613 -0.7350  0.1805
   71SLPC  H15X 6227   3.462   0.203   8.894  0.0125  0.2436 -2.0065
   71SLPC  H15Y 6228   3.313   0.211   8.795  2.1446  0.1172 -1.0644
   71SLPC  C316 6229   3.417   0.026   8.781  0.2113  0.7443  0.0094
   71SLPC  H16X 6230   3.323  -0.033   8.771 -0.0372  0.7265  1.9908
   71SLPC  H16Y 6231   3.490  -0.032   8.842 -0.2094  0.1677 -0.0221
   71SLPC  C317 6232   3.476   0.058   8.644 -0.3564  0.5247 -0.0509
   71SLPC  H17X 6233   3.563   0.127   8.638 -0.5617  0.7823 -0.0548
   71SLPC  H17Y 6234   3.407   0.112   8.577  1.3940  0.9468 -1.5935
   71SLPC  C318 6235   3.514  -0.071   8.568  0.1203 -0.3819 -1.0957
   71SLPC  H18X 6236   3.431  -0.144   8.567 -1.2359  1.0696  0.1635
   71SLPC  H18Y 6237   3.601  -0.116   8.621 -0.7414 -0.7364  0.0553
   71SLPC  H18Z 6238   3.541  -0.048   8.462  0.7011 -3.3497 -1.6831
   72SLPC     N 6239   3.636   0.185  11.328  0.3132  0.0123  0.2458
   72SLPC   C13 6240   3.633   0.334  11.346 -0.6677 -0.4116 -0.2674
   72SLPC  H13A 6241   3.617   0.383  11.251 -2.5646 -1.5913 -0.6005
   72SLPC  H13B 6242   3.554   0.357  11.416 -0.7245 -1.2434 -0.0476
   72SLPC  H13C 6243   3.725   0.378  11.381  1.3934 -1.6100 -3.7685
   72SLPC   C14 6244   3.647   0.128  11.466  0.0697 -0.4877 -0.2091
   72SLPC  H14A 6245   3.686   0.028  11.459  0.1035 -0.4389 -0.7628
   72SLPC  H14B 6246   3.709   0.186  11.533 -0.0520 -2.5480  1.8340
   72SLPC  H14C 6247   3.554   0.109  11.520  0.1143 -0.5787 -0.1634
   72SLPC   C15 6248   3.753   0.146  11.251 -0.7563  0.3876 -1.1165
   72SLPC  H15A 6249   3.735   0.191  11.155 -2.1196  1.8657 -0.2228
   72SLPC  H15B 6250   3.843   0.184  11.296 -1.1634  1.1749 -0.9612
   72SLPC  H15C 6251   3.774   0.042  11.229  0.7158 -0.1975  2.4505
   72SLPC   C12 6252   3.507   0.139  11.259 -0.1610  0.0388 -0.2063
   72SLPC  H12A 6253   3.427   0.152  11.331 -0.4327 -2.3118 -0.0114
   72SLPC  H12B 6254   3.505   0.032  11.247  1.0894  0.0767 -0.8571
   72SLPC   C11 6255   3.466   0.196  11.124  0.1397 -0.2776  0.2968
   72SLPC  H11A 6256   3.482   0.306  11.129 -2.0117  0.1396 -0.9352
   72SLPC  H11B 6257   3.359   0.169  11.120  0.3178 -0.9595 -3.0280
   72SLPC     P 6258   3.545  -0.023  10.992 -0.1327 -0.2111  0.0501
   72SLPC   O13 6259   3.666  -0.065  10.911 -0.2374 -0.0800  0.0716
   72SLPC   O14 6260   3.520  -0.102  11.116 -0.2585 -0.1032  0.1854
   72SLPC   O12 6261   3.545   0.135  11.022 -0.3863  0.2078  0.0956
   72SLPC   O11 6262   3.415  -0.039  10.904  0.1873 -0.1632 -0.3611
   72SLPC    C1 6263   3.388   0.033  10.780  0.2608  0.5881 -0.7639
   72SLPC    HA 6264   3.280   0.039  10.757  0.3105 -0.2018 -1.2093
   72SLPC    HB 6265   3.433   0.135  10.788 -1.5383  1.3193  0.8707
   72SLPC    C2 6266   3.454  -0.046  10.665  0.3735 -0.0046  0.3418
   72SLPC    HS 6267   3.565  -0.039  10.667  0.3799  0.2067 -0.2555
   72SLPC   O21 6268   3.403   0.002  10.537 -0.2128 -0.5102 -0.1973
   72SLPC   C21 6269   3.468   0.113  10.498 -0.4336 -0.2115  0.0010
   72SLPC   O22 6270   3.564   0.162  10.557 -0.0395  0.6823 -0.0059
   72SLPC   C22 6271   3.420   0.156  10.361  0.5540 -0.4536 -0.5266
   72SLPC   H2R 6272   3.312   0.133  10.358  0.4460 -0.0864  0.2257
   72SLPC   H2S 6273   3.430   0.267  10.361  0.1693 -0.3031  2.5765
   72SLPC    C3 6274   3.429  -0.201  10.666 -0.3898 -0.0271  0.5075
   72SLPC    HX 6275   3.479  -0.234  10.759  3.5411  3.0270 -0.2294
   72SLPC    HY 6276   3.491  -0.248  10.587  0.0952 -1.6332  1.7998
   72SLPC   O31 6277   3.288  -0.238  10.678 -0.0831  0.4336 -0.3232
   72SLPC   C31 6278   3.250  -0.330  10.581  0.7702 -0.0453  0.4221
   72SLPC   O32 6279   3.307  -0.380  10.492 -0.8881 -0.1823  0.4099
   72SLPC   C32 6280   3.107  -0.375  10.623  0.2098  0.6091  0.0861
   72SLPC   H2X 6281   3.030  -0.295  10.625  1.4409  1.8087  0.6658
   72SLPC   H2Y 6282   3.118  -0.437  10.715  2.2129  1.3903  0.4333
   72SLPC   C23 6283   3.501   0.099  10.237  0.6350 -0.1527 -0.1534
   72SLPC   H3R 6284   3.482  -0.011  10.236  0.3762 -0.1818  2.3106
   72SLPC   H3S 6285   3.609   0.123  10.245  1.0386 -1.7707 -0.3759
   72SLPC   C24 6286   3.434   0.146  10.104  0.2772  1.0811  1.0148
   72SLPC   H4R 6287   3.438   0.257  10.102  0.6045  1.0665  0.8360
   72SLPC   H4S 6288   3.332   0.102  10.100 -0.0127  1.7243  1.3246
   72SLPC   C25 6289   3.510   0.096   9.971 -0.1120 -0.1840  0.7047
   72SLPC   H5R 6290   3.507  -0.015   9.977 -2.7297 -0.2564 -0.5318
   72SLPC   H5S 6291   3.610   0.139   9.952 -0.0853 -1.6212 -3.2889
   72SLPC   C26 6292   3.442   0.143   9.847  0.1265 -0.2986 -0.3991
   72SLPC   H6R 6293   3.454   0.253   9.833  3.7094 -0.1688  2.2192
   72SLPC   H6S 6294   3.332   0.132   9.857  0.1533 -0.7503 -0.5743
   72SLPC   C27 6295   3.482   0.082   9.715  1.1223 -0.2369 -0.0664
   72SLPC   H7R 6296   3.443  -0.022   9.721 -2.9826  1.0574 -1.1016
   72SLPC   H7S 6297   3.592   0.095   9.708  1.1395  0.2718  0.9710
   72SLPC   C28 6298   3.418   0.173   9.600 -0.6230  0.0168 -0.4155
   72SLPC   H8R 6299   3.467   0.273   9.605  0.0715 -0.2316 -1.7531
   72SLPC   H8S 6300   3.311   0.196   9.618 -0.9083 -0.1296 -1.8287
   72SLPC   C29 6301   3.436   0.118   9.462  0.3138 -0.2825  0.7618
   72SLPC   H9R 6302   3.361   0.046   9.426  1.6479  0.3767 -3.9671
   72SLPC  C210 6303   3.534   0.159   9.381 -0.1697  0.3512  0.7346
   72SLPC  H10R 6304   3.558   0.099   9.292  0.1247 -0.9755  1.6839
   72SLPC  C211 6305   3.649   0.252   9.413 -0.3657 -0.3072 -0.4644
   72SLPC  H11R 6306   3.671   0.243   9.521 -1.4550 -0.1035 -0.2145
   72SLPC  H11S 6307   3.608   0.355   9.408 -0.2485 -0.1221  1.6129
   72SLPC  C212 6308   3.776   0.245   9.333  0.8416 -0.1793 -0.7913
   72SLPC  H12R 6309   3.778   0.326   9.258  2.1781  2.5956  2.0409
   72SLPC  C213 6310   3.873   0.146   9.341 -0.7960 -0.8810  0.7802
   72SLPC  H13R 6311   3.967   0.146   9.283 -0.9540 -1.5670  0.5051
   72SLPC  C214 6312   3.867   0.030   9.441 -0.2941  0.1008  0.0122
   72SLPC  H14R 6313   3.778   0.030   9.508 -2.1079  0.3849 -2.2774
   72SLPC  H14S 6314   3.958   0.021   9.505 -0.2339  0.3164 -0.0423
   72SLPC  C215 6315   3.874  -0.108   9.360 -0.4500 -0.3161 -0.2321
   72SLPC  H15R 6316   3.789  -0.105   9.288 -0.3558  0.1064 -0.3329
   72SLPC  H15S 6317   3.855  -0.192   9.430  0.2785  0.3042  0.7515
   72SLPC  C216 6318   3.992  -0.138   9.277 -1.2907 -0.0758  0.2827
   72SLPC  H16R 6319   3.995  -0.061   9.197 -1.7601  1.1892  1.4509
   72SLPC  H16S 6320   3.977  -0.231   9.219 -3.3718  0.6613 -0.4737
   72SLPC  C217 6321   4.123  -0.137   9.356  0.1291 -0.1041 -0.2894
   72SLPC  H17R 6322   4.125  -0.226   9.423  0.5631  0.5920  0.6391
   72SLPC  H17S 6323   4.127  -0.063   9.438  1.6695  0.2548 -0.6561
   72SLPC  C218 6324   4.246  -0.140   9.270 -0.0440  0.1934  0.0411
   72SLPC  H18R 6325   4.339  -0.111   9.323 -0.8681  1.0140  1.1178
   72SLPC  H18S 6326   4.229  -0.073   9.183 -1.0667 -1.6317 -1.2155
   72SLPC  H18T 6327   4.267  -0.243   9.235  0.1241  1.0669 -2.6227
   72SLPC   C33 6328   3.048  -0.472  10.515 -1.0240  0.0620 -0.7870
   72SLPC   H3X 6329   2.963  -0.536  10.546  0.2188 -1.0280  0.4548
   72SLPC   H3Y 6330   3.120  -0.555  10.504 -1.2147 -0.1920 -0.1351
   72SLPC   C34 6331   3.023  -0.401  10.385  0.1692  0.3700  0.6276
   72SLPC   H4X 6332   3.108  -0.344  10.341  0.0450  2.5717  2.9863
   72SLPC   H4Y 6333   2.952  -0.318  10.409  0.6659  1.0336 -0.1339
   72SLPC   C35 6334   2.954  -0.486  10.279  0.0082  0.1434  0.4331
   72SLPC   H5X 6335   2.875  -0.542  10.333  0.4897  0.0226  1.0286
   72SLPC   H5Y 6336   3.012  -0.574  10.243  0.3217  0.4870  0.0826
   72SLPC   C36 6337   2.922  -0.411  10.150  0.4171 -0.7387 -0.6815
   72SLPC   H6X 6338   3.002  -0.361  10.092  0.0207  0.9576  0.1654
   72SLPC   H6Y 6339   2.845  -0.332  10.163  0.9955 -0.0250 -1.4610
   72SLPC   C37 6340   2.854  -0.511  10.049 -0.6861  0.5059 -0.2575
   72SLPC   H7X 6341   2.758  -0.555  10.085 -0.0455 -1.5192 -0.9267
   72SLPC   H7Y 6342   2.931  -0.589  10.034 -2.3383 -1.1936 -0.3486
   72SLPC   C38 6343   2.843  -0.433   9.917  0.3575  0.6073  0.4541
   72SLPC   H8X 6344   2.942  -0.393   9.886  1.1845 -0.0078  2.1518
   72SLPC   H8Y 6345   2.784  -0.341   9.936 -1.6025 -0.3539 -0.6592
   72SLPC   C39 6346   2.789  -0.524   9.808 -0.7052  0.3426  0.3526
   72SLPC   H9X 6347   2.705  -0.589   9.842 -0.6664  0.0144 -0.1613
   72SLPC   H9Y 6348   2.871  -0.593   9.777 -0.2275  1.4559 -0.9235
   72SLPC  C310 6349   2.735  -0.434   9.691  0.0033  0.6441  0.3046
   72SLPC  H10X 6350   2.814  -0.363   9.659  0.3048 -0.3208 -1.2200
   72SLPC  H10Y 6351   2.639  -0.401   9.737  0.5099 -1.0915  2.8327
   72SLPC  C311 6352   2.700  -0.520   9.569 -0.0740 -0.1245 -0.5137
   72SLPC  H11X 6353   2.659  -0.619   9.598  0.6060 -0.6736 -1.3740
   72SLPC  H11Y 6354   2.792  -0.544   9.510 -1.1827 -2.7696 -1.3317
   72SLPC  C312 6355   2.610  -0.454   9.467 -0.5067 -0.1934  0.3921
   72SLPC  H12X 6356   2.631  -0.345   9.473 -0.8767 -0.0639 -0.4879
   72SLPC  H12Y 6357   2.502  -0.468   9.492 -0.2810 -0.0609  1.5064
   72SLPC  C313 6358   2.627  -0.503   9.318  0.5097 -0.5094 -0.1179
   72SLPC  H13X 6359   2.618  -0.614   9.317  1.5457 -0.6057  0.1683
   72SLPC  H13Y 6360   2.733  -0.485   9.290  1.3162 -0.7391  2.4434
   72SLPC  C314 6361   2.535  -0.443   9.212  0.1025 -0.2341  0.9480
   72SLPC  H14X 6362   2.532  -0.332   9.220 -0.1289 -0.2007  0.4593
   72SLPC  H14Y 6363   2.434  -0.486   9.228  0.2108 -1.5910 -1.5575
   72SLPC  C315 6364   2.577  -0.458   9.065  0.7560 -0.1260  0.0995
   72SLPC  H15X 6365   2.490  -0.474   8.998  1.9290 -2.1342 -1.0734
   72SLPC  H15Y 6366   2.628  -0.557   9.059 -0.7311 -0.8585 -1.4252
   72SLPC  C316 6367   2.662  -0.352   9.007  0.2366 -0.1843 -0.1795
   72SLPC  H16X 6368   2.754  -0.393   8.961  1.7755  2.3582  0.4025
   72SLPC  H16Y 6369   2.693  -0.287   9.091 -0.6630 -1.3607  1.1212
   72SLPC  C317 6370   2.612  -0.255   8.900 -0.0684  0.0565  0.1630
   72SLPC  H17X 6371   2.667  -0.159   8.890  0.4761 -0.3167 -0.5819
   72SLPC  H17Y 6372   2.507  -0.229   8.925 -0.2004 -1.8079  1.6952
   72SLPC  C318 6373   2.616  -0.327   8.761  0.2447 -0.1367  0.2234
   72SLPC  H18X 6374   2.710  -0.379   8.731 -0.9248 -1.2889 -1.6667
   72SLPC  H18Y 6375   2.614  -0.260   8.673  0.7026 -0.6463 -0.1855
   72SLPC  H18Z 6376   2.542  -0.407   8.740  1.6708 -1.8560  1.3415
   73SLPC     N 6377   4.340   4.601  11.306  0.6297 -0.7834 -0.5993
   73SLPC   C13 6378   4.457   4.680  11.349  0.1564 -0.4979 -0.1960
   73SLPC  H13A 6379   4.454   4.781  11.309  0.5695 -0.5622 -0.3980
   73SLPC  H13B 6380   4.472   4.689  11.455 -1.4188 -1.6400  0.1594
   73SLPC  H13C 6381   4.550   4.640  11.313  0.3648 -2.2586  2.1080
   73SLPC   C14 6382   4.218   4.681  11.327 -0.3597 -0.2715  0.3557
   73SLPC  H14A 6383   4.217   4.778  11.279 -1.2978 -1.3752 -2.0091
   73SLPC  H14B 6384   4.130   4.636  11.285 -1.2755 -0.1240  2.0267
   73SLPC  H14C 6385   4.211   4.691  11.434 -0.2732 -0.4897  0.3835
   73SLPC   C15 6386   4.335   4.493  11.421 -0.2919 -0.2141  0.6241
   73SLPC  H15A 6387   4.255   4.423  11.404 -0.8152  0.3949  0.5807
   73SLPC  H15B 6388   4.430   4.443  11.437  0.2089  0.3743 -0.3854
   73SLPC  H15C 6389   4.308   4.537  11.516 -0.3294 -2.4058  1.6961
   73SLPC   C12 6390   4.343   4.535  11.166  0.0160  0.1931  0.0826
   73SLPC  H12A 6391   4.257   4.470  11.159 -0.2008  0.4504  0.3429
   73SLPC  H12B 6392   4.433   4.480  11.144 -0.1041  0.2417 -0.5583
   73SLPC   C11 6393   4.328   4.619  11.040  0.5083 -0.2699  0.1940
   73SLPC  H11A 6394   4.226   4.663  11.034  1.3676  1.6238 -2.2532
   73SLPC  H11B 6395   4.325   4.551  10.952  1.0945 -1.8535  1.3498
   73SLPC     P 6396   4.575   4.680  10.970  0.3844  0.1962  0.2050
   73SLPC   O13 6397   4.656   4.801  10.951  0.4406 -0.2887  0.2023
   73SLPC   O14 6398   4.636   4.573  11.054 -0.5175  0.2624  0.0457
   73SLPC   O12 6399   4.429   4.719  11.026  0.4289 -0.5682 -0.3291
   73SLPC   O11 6400   4.543   4.624  10.820  0.7977 -0.3655 -0.1271
   73SLPC    C1 6401   4.583   4.693  10.704  0.2435  0.3561  0.0198
   73SLPC    HA 6402   4.680   4.747  10.711  0.3648  0.0092  1.0888
   73SLPC    HB 6403   4.602   4.617  10.625 -0.3524  0.5969 -0.3686
   73SLPC    C2 6404   4.462   4.784  10.665 -0.0926 -0.5427  0.5982
   73SLPC    HS 6405   4.450   4.852  10.752 -1.6731  0.7423 -0.5761
   73SLPC   O21 6406   4.349   4.703  10.656  0.3619 -0.5588  0.2053
   73SLPC   C21 6407   4.238   4.749  10.716  0.6058  0.0771 -0.1190
   73SLPC   O22 6408   4.236   4.857  10.776 -0.1601  0.4184  0.7086
   73SLPC   C22 6409   4.119   4.642  10.716  0.5092  0.7153  0.5648
   73SLPC   H2R 6410   4.166   4.542  10.729  0.9218  0.9731  1.0826
   73SLPC   H2S 6411   4.044   4.669  10.793 -2.2436 -1.1622 -1.2661
   73SLPC    C3 6412   4.485   4.865  10.534  0.0043 -0.4354 -0.3863
   73SLPC    HX 6413   4.485   4.783  10.460 -3.3802  0.9644 -2.1543
   73SLPC    HY 6414   4.576   4.930  10.536 -0.8667  1.0071  3.9772
   73SLPC   O31 6415   4.376   4.956  10.511 -0.3838 -0.4394 -0.1467
   73SLPC   C31 6416   4.315   4.939  10.393 -0.1068  0.5252  0.7871
   73SLPC   O32 6417   4.333   4.835  10.330  0.3306  0.0131  0.3526
   73SLPC   C32 6418   4.221   5.057  10.364 -0.1684  0.6605  0.4248
   73SLPC   H2X 6419   4.261   5.158  10.388 -0.9932  1.2107 -0.4311
   73SLPC   H2Y 6420   4.139   5.041  10.437 -0.3474  1.0301  0.3071
   73SLPC   C23 6421   4.060   4.631  10.570 -0.1318 -0.0654  0.4506
   73SLPC   H3R 6422   3.997   4.540  10.564  0.4356 -0.4815  0.8106
   73SLPC   H3S 6423   4.137   4.616  10.492 -2.0051  1.0502 -1.7749
   73SLPC   C24 6424   3.991   4.765  10.525 -0.2234  0.3050 -0.1927
   73SLPC   H4R 6425   4.064   4.835  10.478  0.9456  0.0812  1.2048
   73SLPC   H4S 6426   3.932   4.811  10.607 -1.0055 -0.9339 -0.0257
   73SLPC   C25 6427   3.891   4.727  10.408 -0.1323 -0.3572  0.8069
   73SLPC   H5R 6428   3.821   4.813  10.406 -1.1055 -1.0742  2.0570
   73SLPC   H5S 6429   3.839   4.635  10.443 -0.3092 -0.0950  1.2391
   73SLPC   C26 6430   3.953   4.682  10.276 -0.2008 -1.0374 -0.6229
   73SLPC   H6R 6431   4.013   4.589  10.270  0.3308 -0.6484 -1.5735
   73SLPC   H6S 6432   4.020   4.768  10.254 -1.1019 -0.1110  0.1738
   73SLPC   C27 6433   3.837   4.669  10.176  0.0059 -0.4499  1.0611
   73SLPC   H7R 6434   3.755   4.614  10.226 -1.3053  1.4553  1.0993
   73SLPC   H7S 6435   3.872   4.606  10.091  2.7991  3.0116 -0.5882
   73SLPC   C28 6436   3.774   4.797  10.120  0.1540 -0.0928 -0.3113
   73SLPC   H8R 6437   3.756   4.866  10.205 -0.3309 -0.4459 -0.1279
   73SLPC   H8S 6438   3.680   4.773  10.067 -1.2954  0.6253  1.7831
   73SLPC   C29 6439   3.869   4.857  10.021 -0.3282  0.0524 -0.0029
   73SLPC   H9R 6440   3.961   4.902  10.061 -0.1276  0.0456 -0.4490
   73SLPC  C210 6441   3.850   4.859   9.889  0.0392  0.2182 -0.6391
   73SLPC  H10R 6442   3.927   4.908   9.829 -0.5220  2.4054  0.3317
   73SLPC  C211 6443   3.733   4.802   9.808 -0.0308  1.2753 -0.2117
   73SLPC  H11R 6444   3.710   4.870   9.723 -0.9700  0.2853 -0.7670
   73SLPC  H11S 6445   3.632   4.792   9.855 -0.9156 -0.6324 -2.3674
   73SLPC  C212 6446   3.770   4.663   9.747 -0.5476  0.0671 -0.4885
   73SLPC  H12R 6447   3.782   4.578   9.815  2.4744  1.5151  0.9320
   73SLPC  C213 6448   3.806   4.626   9.625  1.0002  0.2501 -0.5948
   73SLPC  H13R 6449   3.819   4.518   9.609 -0.7886 -0.1889  0.7193
   73SLPC  C214 6450   3.826   4.721   9.512  0.3191 -0.3055 -0.4972
   73SLPC  H14R 6451   3.876   4.813   9.547  0.9176 -1.0933  0.7821
   73SLPC  H14S 6452   3.742   4.754   9.447 -0.8737  0.7476  1.5084
   73SLPC  C215 6453   3.922   4.650   9.418  0.5053 -0.3828 -0.1523
   73SLPC  H15R 6454   3.873   4.577   9.349 -0.0130  1.5724 -1.9423
   73SLPC  H15S 6455   4.002   4.591   9.467  1.6109 -0.4391 -1.9282
   73SLPC  C216 6456   4.020   4.735   9.320 -0.2516  0.0429 -0.2508
   73SLPC  H16R 6457   4.050   4.664   9.240  1.6573 -0.1732  0.5913
   73SLPC  H16S 6458   4.110   4.770   9.376 -0.3162 -2.4453  1.5314
   73SLPC  C217 6459   3.949   4.856   9.250 -0.2289 -0.0518 -0.0989
   73SLPC  H17R 6460   4.016   4.923   9.193 -1.0202 -1.3522 -2.7638
   73SLPC  H17S 6461   3.898   4.911   9.332 -1.8698 -0.8160 -0.5582
   73SLPC  C218 6462   3.838   4.813   9.146 -0.4079 -0.1337  0.3614
   73SLPC  H18R 6463   3.825   4.893   9.070 -3.3406 -1.4349 -0.6397
   73SLPC  H18S 6464   3.739   4.808   9.194 -0.9383  0.7255 -0.6100
   73SLPC  H18T 6465   3.868   4.724   9.086 -1.4659 -1.2129  1.3683
   73SLPC   C33 6466   4.159   5.047  10.220 -0.3011 -0.5233 -0.3759
   73SLPC   H3X 6467   4.071   5.113  10.203  1.0573  0.6868 -3.3548
   73SLPC   H3Y 6468   4.121   4.943  10.204 -0.4132 -0.7784  1.3562
   73SLPC   C34 6469   4.247   5.089  10.100 -0.7050 -0.1066  0.0903
   73SLPC   H4X 6470   4.342   5.032  10.096 -0.9402 -0.7324  2.3761
   73SLPC   H4Y 6471   4.272   5.198  10.102 -0.0013 -0.1878 -2.0696
   73SLPC   C35 6472   4.170   5.081   9.969  0.6596 -0.0888 -0.7973
   73SLPC   H5X 6473   4.076   5.139   9.981  1.0730  1.0219 -2.5164
   73SLPC   H5Y 6474   4.149   4.973   9.950  0.7889 -0.1447 -0.6227
   73SLPC   C36 6475   4.239   5.145   9.845 -0.3302 -0.6653 -0.0047
   73SLPC   H6X 6476   4.316   5.081   9.797  0.2929  0.3725 -0.4381
   73SLPC   H6Y 6477   4.285   5.239   9.883 -0.1526  0.0005 -1.8164
   73SLPC   C37 6478   4.138   5.165   9.735 -0.0500 -0.7724 -0.1831
   73SLPC   H7X 6479   4.086   5.260   9.759 -1.1853 -1.0751 -1.2852
   73SLPC   H7Y 6480   4.058   5.089   9.726 -2.0212  1.2682 -1.1282
   73SLPC   C38 6481   4.202   5.183   9.597  0.4713  0.4109  0.5370
   73SLPC   H8X 6482   4.284   5.112   9.573 -0.5886 -0.4677 -0.6351
   73SLPC   H8Y 6483   4.248   5.284   9.594  2.9011 -0.5777  1.4227
   73SLPC   C39 6484   4.095   5.168   9.491 -0.3644  0.3784 -0.4530
   73SLPC   H9X 6485   4.009   5.229   9.528 -0.5673 -0.0991 -0.1200
   73SLPC   H9Y 6486   4.060   5.063   9.482  1.4490 -0.1524 -2.0881
   73SLPC  C310 6487   4.141   5.226   9.361 -0.7777 -0.0976 -0.2632
   73SLPC  H10X 6488   4.183   5.328   9.378  0.3988 -0.2210 -2.2416
   73SLPC  H10Y 6489   4.051   5.245   9.298 -2.4603  1.6543  2.4114
   73SLPC  C311 6490   4.254   5.143   9.295  0.1793  0.0071 -0.6185
   73SLPC  H11X 6491   4.213   5.040   9.283 -0.5624 -0.0424  1.8501
   73SLPC  H11Y 6492   4.339   5.147   9.365 -0.6816  1.1290  0.4030
   73SLPC  C312 6493   4.297   5.196   9.162  0.1806  0.8995 -0.1205
   73SLPC  H12X 6494   4.368   5.122   9.120 -0.2961  0.2023  0.2884
   73SLPC  H12Y 6495   4.355   5.291   9.161  0.4018  0.7658 -1.2929
   73SLPC  C313 6496   4.184   5.210   9.061 -0.4117 -0.2096 -0.9188
   73SLPC  H13X 6497   4.129   5.305   9.078  0.4897  0.3194 -0.8992
   73SLPC  H13Y 6498   4.112   5.126   9.074  0.1928 -0.4332  1.3595
   73SLPC  C314 6499   4.238   5.209   8.922 -0.5698 -0.6912  0.5807
   73SLPC  H14X 6500   4.313   5.128   8.912  0.9039  0.5316  1.2463
   73SLPC  H14Y 6501   4.297   5.303   8.916 -0.3551 -0.8995 -1.1398
   73SLPC  C315 6502   4.138   5.219   8.810  0.1046 -0.1902  0.3031
   73SLPC  H15X 6503   4.080   5.314   8.820  1.1336  0.4834  0.0721
   73SLPC  H15Y 6504   4.073   5.130   8.816  0.3640 -0.3399  0.9931
   73SLPC  C316 6505   4.204   5.232   8.666  0.5630 -0.8909  0.6976
   73SLPC  H16X 6506   4.272   5.321   8.668 -0.6447  0.0611  0.6654
   73SLPC  H16Y 6507   4.123   5.264   8.597  0.5100 -2.4528  0.0090
   73SLPC  C317 6508   4.268   5.109   8.604  0.2176  0.4850  0.3963
   73SLPC  H17X 6509   4.346   5.060   8.666  0.7577 -0.8570 -1.2485
   73SLPC  H17Y 6510   4.326   5.149   8.518  0.9556  0.5213  0.8992
   73SLPC  C318 6511   4.163   5.009   8.557  0.0678 -0.2152 -0.0152
   73SLPC  H18X 6512   4.098   4.988   8.644  0.1703  0.1670  0.1576
   73SLPC  H18Y 6513   4.213   4.915   8.526  1.2155  1.0101 -2.1017
   73SLPC  H18Z 6514   4.098   5.049   8.476  0.9125 -0.0615 -0.6326
   74SLPC     N 6515   5.128   6.399  10.665  0.2788 -0.3238 -0.0541
   74SLPC   C13 6516   5.051   6.527  10.641 -0.0398  0.4706 -0.3455
   74SLPC  H13A 6517   4.995   6.551  10.730 -3.1537 -4.6735 -0.4928
   74SLPC  H13B 6518   5.108   6.610  10.604 -1.4864  1.4621 -0.4211
   74SLPC  H13C 6519   4.978   6.500  10.567  1.0431 -1.0751 -0.9028
   74SLPC   C14 6520   5.231   6.421  10.775 -0.3532  0.4080  0.0821
   74SLPC  H14A 6521   5.207   6.493  10.851  2.6123 -0.2508  1.7818
   74SLPC  H14B 6522   5.267   6.325  10.810  0.2453 -0.1403 -1.9072
   74SLPC  H14C 6523   5.315   6.469  10.728  0.4221 -1.5239 -0.6007
   74SLPC   C15 6524   5.186   6.335  10.539 -0.2276 -0.0844  0.5645
   74SLPC  H15A 6525   5.106   6.315  10.468  0.2708 -1.4209  0.3495
   74SLPC  H15B 6526   5.254   6.409  10.500 -1.8330  1.1484 -0.0123
   74SLPC  H15C 6527   5.226   6.240  10.570 -1.7208 -1.0796 -0.4151
   74SLPC   C12 6528   5.028   6.300  10.724 -0.1447  0.1600 -0.5490
   74SLPC  H12A 6529   4.984   6.336  10.815 -0.5712  0.2931 -0.8037
   74SLPC  H12B 6530   5.074   6.203  10.737  0.2582  0.6868  2.7951
   74SLPC   C11 6531   4.904   6.266  10.631  0.4197  0.1945 -0.1523
   74SLPC  H11A 6532   4.857   6.177  10.678  0.1108  1.2935  1.7404
   74SLPC  H11B 6533   4.934   6.236  10.528  2.7346  0.4477  0.3923
   74SLPC     P 6534   4.662   6.374  10.660 -0.0444 -0.3649 -0.0172
   74SLPC   O13 6535   4.646   6.303  10.787  0.1176 -0.1047  0.5095
   74SLPC   O14 6536   4.614   6.518  10.661 -0.4556  0.4120  0.5791
   74SLPC   O12 6537   4.814   6.375  10.627 -0.1111  0.7453  0.7491
   74SLPC   O11 6538   4.587   6.303  10.546 -0.8625  0.1985 -0.2043
   74SLPC    C1 6539   4.659   6.247  10.435  0.1000 -0.7197  0.0926
   74SLPC    HA 6540   4.748   6.184  10.456  0.6194 -0.3984 -1.0643
   74SLPC    HB 6541   4.593   6.180  10.375 -1.5847 -0.6138  1.7491
   74SLPC    C2 6542   4.713   6.355  10.333  0.3741 -0.0743  0.4726
   74SLPC    HS 6543   4.803   6.395  10.385 -0.0222 -1.4170  2.3189
   74SLPC   O21 6544   4.605   6.448  10.311  0.0644  0.1350 -0.1012
   74SLPC   C21 6545   4.649   6.569  10.288  0.3969 -1.0317 -0.6906
   74SLPC   O22 6546   4.763   6.610  10.309 -0.1604 -0.2643  0.0193
   74SLPC   C22 6547   4.534   6.651  10.228  0.3698  0.5355  0.2834
   74SLPC   H2R 6548   4.442   6.595  10.252  2.3944 -2.2639  2.1067
   74SLPC   H2S 6549   4.524   6.750  10.277  0.0091  0.7690 -0.2522
   74SLPC    C3 6550   4.744   6.298  10.197 -0.1522 -0.1419  0.2707
   74SLPC    HX 6551   4.648   6.262  10.154 -0.1751 -1.1562  1.1233
   74SLPC    HY 6552   4.807   6.209  10.218 -0.1845 -0.1213  0.4574
   74SLPC   O31 6553   4.813   6.402  10.110  0.4174  0.4341 -0.4414
   74SLPC   C31 6554   4.946   6.386  10.121  0.8539  0.4269  0.2370
   74SLPC   O32 6555   5.006   6.294  10.171  0.2832 -0.2743 -0.2265
   74SLPC   C32 6556   5.011   6.516  10.078  0.3986 -0.2786 -0.0530
   74SLPC   H2X 6557   5.071   6.553  10.164 -0.9073  2.6569 -0.3225
   74SLPC   H2Y 6558   4.938   6.596  10.056 -3.3953 -3.5718 -0.5537
   74SLPC   C23 6559   4.545   6.654  10.073 -0.2176  0.5964 -0.1762
   74SLPC   H3R 6560   4.640   6.707  10.049 -0.9431  2.1931  0.3365
   74SLPC   H3S 6561   4.466   6.721  10.034 -0.3219 -0.8215 -2.5723
   74SLPC   C24 6562   4.520   6.519  10.001  0.0356 -0.0731 -0.1760
   74SLPC   H4R 6563   4.423   6.480  10.039 -0.5323  0.9050 -0.5762
   74SLPC   H4S 6564   4.609   6.462  10.035 -0.4528 -0.1067  1.0871
   74SLPC   C25 6565   4.501   6.540   9.845  0.1194  0.7964  0.4296
   74SLPC   H5R 6566   4.442   6.631   9.818 -0.8926  0.1776  0.4939
   74SLPC   H5S 6567   4.449   6.455   9.796  1.1666  0.3003  0.1577
   74SLPC   C26 6568   4.639   6.544   9.788  0.2428 -0.5129  0.1990
   74SLPC   H6R 6569   4.696   6.461   9.835  0.3982 -0.5733 -0.0930
   74SLPC   H6S 6570   4.688   6.637   9.825 -2.6668  0.8397  1.0134
   74SLPC   C27 6571   4.630   6.546   9.635  0.0540  0.6376 -0.0571
   74SLPC   H7R 6572   4.562   6.466   9.599  2.3725 -0.0755 -3.3561
   74SLPC   H7S 6573   4.731   6.519   9.599  0.0208  0.3043  0.0985
   74SLPC   C28 6574   4.581   6.673   9.565 -0.4556 -0.6825  0.9029
   74SLPC   H8R 6575   4.491   6.725   9.604 -0.4206  1.1797 -1.3065
   74SLPC   H8S 6576   4.554   6.647   9.460 -3.1330 -0.5665  1.4890
   74SLPC   C29 6577   4.704   6.765   9.546  1.3820  0.8660 -0.0717
   74SLPC   H9R 6578   4.727   6.826   9.635 -2.6507  0.3589  1.5737
   74SLPC  C210 6579   4.780   6.780   9.438  0.0592 -1.0022 -0.7042
   74SLPC  H10R 6580   4.864   6.846   9.462 -0.7867 -0.3654  0.6034
   74SLPC  C211 6581   4.768   6.715   9.299 -0.0801 -0.3648 -0.2473
   74SLPC  H11R 6582   4.668   6.666   9.293  0.9011 -2.7140  1.2314
   74SLPC  H11S 6583   4.846   6.636   9.298  2.3755  1.9063  0.8753
   74SLPC  C212 6584   4.785   6.811   9.187  0.2096 -0.1667 -0.0781
   74SLPC  H12R 6585   4.807   6.914   9.219  0.0475 -0.5667  1.4192
   74SLPC  C213 6586   4.764   6.787   9.057 -0.1343  0.9516  0.0494
   74SLPC  H13R 6587   4.757   6.870   8.985 -1.9941  0.7666 -0.0243
   74SLPC  C214 6588   4.714   6.648   9.009 -0.3786  0.0169  0.1017
   74SLPC  H14R 6589   4.730   6.576   9.092  1.7559 -0.0228 -0.2935
   74SLPC  H14S 6590   4.755   6.602   8.917 -1.2172 -3.6332  1.4066
   74SLPC  C215 6591   4.562   6.648   8.987 -0.3621 -0.9004 -0.4874
   74SLPC  H15R 6592   4.532   6.706   8.898 -0.1230 -0.1537 -0.0860
   74SLPC  H15S 6593   4.514   6.691   9.078 -1.0785 -1.2008 -0.7140
   74SLPC  C216 6594   4.505   6.508   8.979  0.3567 -0.8109  0.3233
   74SLPC  H16R 6595   4.400   6.529   8.948 -0.2184  0.1535  2.7074
   74SLPC  H16S 6596   4.506   6.455   9.076  0.8912  0.5996  1.1270
   74SLPC  C217 6597   4.561   6.420   8.863 -0.2163  0.3509 -0.1352
   74SLPC  H17R 6598   4.669   6.395   8.872 -0.8387 -2.6286  0.4241
   74SLPC  H17S 6599   4.551   6.483   8.772  0.1392 -0.6109 -0.8549
   74SLPC  C218 6600   4.487   6.291   8.856 -0.0998 -0.0066  0.7687
   74SLPC  H18R 6601   4.540   6.210   8.911  1.9631  0.2527 -0.7214
   74SLPC  H18S 6602   4.471   6.257   8.752  2.1169  0.0382  0.3566
   74SLPC  H18T 6603   4.383   6.294   8.894 -0.9869  1.9290 -1.5789
   74SLPC   C33 6604   5.099   6.504   9.952 -0.0094 -0.2757  0.5453
   74SLPC   H3X 6605   5.197   6.460   9.979 -1.5736 -3.4643  1.5430
   74SLPC   H3Y 6606   5.120   6.609   9.921 -2.4183  0.4715  1.1858
   74SLPC   C34 6607   5.030   6.438   9.834 -0.3030  0.9202  0.1074
   74SLPC   H4X 6608   4.920   6.447   9.844 -0.4946  0.8058 -1.6546
   74SLPC   H4Y 6609   5.042   6.329   9.848 -0.4102  1.0023  0.8916
   74SLPC   C35 6610   5.061   6.494   9.697 -0.2935 -0.5283 -0.2148
   74SLPC   H5X 6611   5.022   6.599   9.699  2.4483  0.5566  0.1766
   74SLPC   H5Y 6612   5.021   6.434   9.613  0.3033  1.2536 -1.8524
   74SLPC   C36 6613   5.210   6.516   9.669  0.7729  0.4613  0.0263
   74SLPC   H6X 6614   5.254   6.416   9.651 -0.7846  0.1031 -2.1151
   74SLPC   H6Y 6615   5.264   6.564   9.754 -0.4064  1.9750 -0.0362
   74SLPC   C37 6616   5.233   6.593   9.541  0.2117 -0.4488  0.1663
   74SLPC   H7X 6617   5.343   6.596   9.525  0.1452  0.2410 -0.1990
   74SLPC   H7Y 6618   5.198   6.699   9.534  3.1769  0.5548 -1.0950
   74SLPC   C38 6619   5.190   6.508   9.416 -0.4542  0.3975 -0.2851
   74SLPC   H8X 6620   5.079   6.502   9.407 -0.4639 -3.4843  0.5895
   74SLPC   H8Y 6621   5.229   6.408   9.442 -0.2899  0.7141  0.7265
   74SLPC   C39 6622   5.255   6.548   9.281  0.2147  0.2470  0.4297
   74SLPC   H9X 6623   5.224   6.481   9.198  1.2215 -1.8574  1.6545
   74SLPC   H9Y 6624   5.365   6.528   9.282  0.3947  0.9978 -1.2777
   74SLPC  C310 6625   5.226   6.696   9.252 -0.6366  0.0624  0.3819
   74SLPC  H10X 6626   5.308   6.753   9.299 -0.1807 -0.9177  0.8014
   74SLPC  H10Y 6627   5.145   6.739   9.315 -1.5968  0.2579 -0.9461
   74SLPC  C311 6628   5.197   6.725   9.101 -0.0627  0.3756 -0.7438
   74SLPC  H11X 6629   5.179   6.834   9.087  0.7794  0.6831  0.4594
   74SLPC  H11Y 6630   5.118   6.653   9.071  0.4357 -0.8349  0.7154
   74SLPC  C312 6631   5.318   6.687   9.019 -0.5063 -0.6577 -0.1741
   74SLPC  H12X 6632   5.341   6.580   9.003 -0.8907 -0.4351 -2.6108
   74SLPC  H12Y 6633   5.407   6.734   9.067 -0.8779  0.3499 -0.4553
   74SLPC  C313 6634   5.312   6.747   8.881  0.1717  0.0048  0.1497
   74SLPC  H13X 6635   5.258   6.843   8.895  0.9012  0.2682  1.2968
   74SLPC  H13Y 6636   5.246   6.691   8.811 -1.4563  0.8486  0.9591
   74SLPC  C314 6637   5.443   6.766   8.803  0.4428  0.0782  0.3076
   74SLPC  H14X 6638   5.498   6.670   8.806  0.7123  0.1529 -1.4106
   74SLPC  H14Y 6639   5.504   6.836   8.866 -0.0082  0.8947 -0.1475
   74SLPC  C315 6640   5.429   6.813   8.658 -0.6933  0.3300 -0.1412
   74SLPC  H15X 6641   5.348   6.889   8.665 -1.6605 -0.8268  2.3624
   74SLPC  H15Y 6642   5.390   6.728   8.598  1.2205 -0.0864 -0.8503
   74SLPC  C316 6643   5.559   6.877   8.605  1.1100 -0.0631  0.3950
   74SLPC  H16X 6644   5.634   6.794   8.598  0.4046 -0.8669  2.0233
   74SLPC  H16Y 6645   5.591   6.952   8.680  0.0212  0.4529  0.3587
   74SLPC  C317 6646   5.544   6.958   8.470  0.5356 -0.6214  0.1268
   74SLPC  H17X 6647   5.460   7.030   8.486  0.7744 -0.1567 -0.6518
   74SLPC  H17Y 6648   5.510   6.892   8.387 -2.1978  1.0890 -0.2613
   74SLPC  C318 6649   5.674   7.029   8.429  0.5157  0.3355 -0.2892
   74SLPC  H18X 6650   5.765   6.971   8.401  1.1916  1.6032 -0.7951
   74SLPC  H18Y 6651   5.705   7.096   8.512  3.0665  1.6212 -2.1421
   74SLPC  H18Z 6652   5.664   7.106   8.349  0.8065  1.1678  0.4559
   75SLPC     N 6653   1.778   0.839   6.393 -0.3284 -0.6915 -0.3743
   75SLPC   C13 6654   1.713   0.823   6.258 -0.2719 -0.6234 -0.2129
   75SLPC  H13A 6655   1.718   0.718   6.233 -0.2807 -0.7532  0.3158
   75SLPC  H13B 6656   1.609   0.852   6.265 -0.0049  0.2437  0.4053
   75SLPC  H13C 6657   1.762   0.883   6.182  0.1915  0.2234  0.7291
   75SLPC   C14 6658   1.930   0.808   6.380  0.7057  0.4035 -0.4360
   75SLPC  H14A 6659   1.987   0.808   6.472 -0.5326  1.5398  0.3629
   75SLPC  H14B 6660   1.944   0.711   6.334 -1.2491 -0.2387  0.2457
   75SLPC  H14C 6661   1.963   0.880   6.306  1.0503 -2.3090 -3.1389
   75SLPC   C15 6662   1.718   0.732   6.484  0.0669 -0.4765 -0.1513
   75SLPC  H15A 6663   1.743   0.635   6.445  1.7912 -0.5254  0.9951
   75SLPC  H15B 6664   1.757   0.730   6.584 -2.8720  1.1015  1.1574
   75SLPC  H15C 6665   1.611   0.744   6.478 -0.2018 -2.9599 -1.9568
   75SLPC   C12 6666   1.754   0.978   6.448  0.3649  0.4226  0.0874
   75SLPC  H12A 6667   1.650   1.007   6.448  0.6401  1.6452  2.2244
   75SLPC  H12B 6668   1.798   1.045   6.375  0.5945  3.1420  2.5537
   75SLPC   C11 6669   1.795   1.013   6.590  0.0044  0.0536  0.0536
   75SLPC  H11A 6670   1.903   0.987   6.596  0.0534  0.0275 -0.7857
   75SLPC  H11B 6671   1.743   0.954   6.668 -0.3766 -0.8364 -0.8542
   75SLPC     P 6672   1.640   1.212   6.673  0.2369  0.0535 -0.4086
   75SLPC   O13 6673   1.627   1.354   6.649 -0.0751  0.3122  0.4347
   75SLPC   O14 6674   1.533   1.118   6.624 -0.4288 -0.1937  0.2922
   75SLPC   O12 6675   1.776   1.157   6.608 -0.4072  0.1784 -0.5792
   75SLPC   O11 6676   1.663   1.192   6.830  0.1019 -0.3738 -0.4046
   75SLPC    C1 6677   1.791   1.186   6.891  0.1649 -0.1248 -0.3947
   75SLPC    HA 6678   1.784   1.135   6.989  1.9815  0.1419 -0.0909
   75SLPC    HB 6679   1.869   1.129   6.836  0.9575 -1.0205  1.5768
   75SLPC    C2 6680   1.853   1.321   6.925 -0.0097  0.0065  0.2548
   75SLPC    HS 6681   1.882   1.368   6.829 -0.9901  1.3742  0.5885
   75SLPC   O21 6682   1.965   1.302   7.014  0.2837 -0.2676  0.5421
   75SLPC   C21 6683   2.083   1.264   6.965  0.1405  0.5408 -0.1566
   75SLPC   O22 6684   2.106   1.252   6.845  0.2632 -0.3043 -0.6663
   75SLPC   C22 6685   2.187   1.254   7.082 -0.3236 -0.2441  0.3241
   75SLPC   H2R 6686   2.142   1.316   7.162  3.1975  3.2010 -0.0775
   75SLPC   H2S 6687   2.187   1.146   7.107  1.9101 -0.8033 -1.6663
   75SLPC    C3 6688   1.760   1.433   6.976 -0.1075 -0.2907  0.1085
   75SLPC    HX 6689   1.689   1.440   6.891  0.5152  0.4765 -0.3632
   75SLPC    HY 6690   1.809   1.532   6.991 -1.7377  0.7762 -1.2908
   75SLPC   O31 6691   1.683   1.399   7.092 -0.6995 -0.2761 -0.2858
   75SLPC   C31 6692   1.747   1.419   7.210  1.5019 -0.1965  0.2889
   75SLPC   O32 6693   1.855   1.469   7.230 -0.0185  0.2283 -0.1548
   75SLPC   C32 6694   1.670   1.356   7.326  0.2446  1.4988 -0.2259
   75SLPC   H2X 6695   1.732   1.269   7.357  0.6780  1.9610  0.2311
   75SLPC   H2Y 6696   1.569   1.325   7.291  1.4021 -1.2218 -1.4665
   75SLPC   C23 6697   2.325   1.309   7.040  0.3364  0.2558 -1.0404
   75SLPC   H3R 6698   2.330   1.411   6.997  3.2447  1.2068  1.1671
   75SLPC   H3S 6699   2.363   1.248   6.955 -0.5791 -0.0856 -1.2129
   75SLPC   C24 6700   2.431   1.303   7.160 -0.3922  0.9712  0.3695
   75SLPC   H4R 6701   2.465   1.197   7.163 -0.0340  0.9957 -1.7758
   75SLPC   H4S 6702   2.374   1.336   7.250 -0.7365  0.4807  0.3364
   75SLPC   C25 6703   2.560   1.384   7.123  0.3124  0.5058 -0.8365
   75SLPC   H5R 6704   2.534   1.490   7.103  1.0337  0.4572 -2.1278
   75SLPC   H5S 6705   2.612   1.336   7.038 -0.3218 -0.9264 -0.4558
   75SLPC   C26 6706   2.655   1.374   7.246 -0.0497  0.1639  0.3588
   75SLPC   H6R 6707   2.668   1.265   7.262 -4.3564 -0.6396 -0.2464
   75SLPC   H6S 6708   2.597   1.406   7.336  0.9071 -0.7932  1.3425
   75SLPC   C27 6709   2.793   1.446   7.236  0.2282  0.1933 -0.4002
   75SLPC   H7R 6710   2.779   1.556   7.223  2.2223  0.7146  1.2631
   75SLPC   H7S 6711   2.844   1.419   7.141 -0.6832 -1.2771 -0.4996
   75SLPC   C28 6712   2.887   1.413   7.353 -0.1762 -0.5742 -0.6120
   75SLPC   H8R 6713   2.980   1.459   7.314 -0.2497 -0.4658 -0.6583
   75SLPC   H8S 6714   2.909   1.305   7.366  0.4754 -0.4384 -0.5697
   75SLPC   C29 6715   2.846   1.475   7.481 -0.3068 -0.7269  0.0177
   75SLPC   H9R 6716   2.842   1.585   7.480 -1.1641 -0.7431 -1.1875
   75SLPC  C210 6717   2.838   1.410   7.592 -0.0695  0.1692 -0.1580
   75SLPC  H10R 6718   2.799   1.459   7.682 -0.2339 -1.8638  0.9355
   75SLPC  C211 6719   2.859   1.263   7.621 -0.0041 -0.1330 -0.0369
   75SLPC  H11R 6720   2.886   1.211   7.527  1.1559 -0.3534  0.4058
   75SLPC  H11S 6721   2.765   1.219   7.661 -0.2051  2.6134  2.9150
   75SLPC  C212 6722   2.965   1.251   7.721 -0.4330  0.2707  0.4088
   75SLPC  H12R 6723   3.061   1.224   7.676 -0.3773  0.0319  0.6751
   75SLPC  C213 6724   2.967   1.278   7.852 -0.7437  0.1979 -0.6462
   75SLPC  H13R 6725   3.064   1.268   7.904 -1.9124  0.9048  1.8235
   75SLPC  C214 6726   2.859   1.334   7.943 -0.0438  0.2409 -0.1750
   75SLPC  H14R 6727   2.767   1.360   7.887  1.0491  0.6562 -1.8257
   75SLPC  H14S 6728   2.882   1.434   7.986 -1.6709  0.9930 -0.9789
   75SLPC  C215 6729   2.831   1.226   8.049 -0.3399 -0.2358  0.0038
   75SLPC  H15R 6730   2.748   1.264   8.111 -1.1619 -1.2184 -0.4666
   75SLPC  H15S 6731   2.921   1.222   8.114 -0.5839  1.2274  0.4692
   75SLPC  C216 6732   2.793   1.082   8.005  0.1715  0.1851 -0.0167
   75SLPC  H16R 6733   2.878   1.025   7.961 -0.5342 -0.5657 -0.4428
   75SLPC  H16S 6734   2.719   1.090   7.923 -0.6592  2.7871  0.8820
   75SLPC  C217 6735   2.731   1.000   8.115 -0.0900  0.5928 -0.0524
   75SLPC  H17R 6736   2.711   0.901   8.068 -0.4526 -0.0206  1.3504
   75SLPC  H17S 6737   2.638   1.054   8.143 -0.6867 -0.9192  1.0561
   75SLPC  C218 6738   2.810   0.984   8.248 -0.2452  0.8171  1.0011
   75SLPC  H18R 6739   2.912   0.954   8.217  1.1196  3.4648  2.5419
   75SLPC  H18S 6740   2.760   0.917   8.321  0.2239 -0.9732 -0.2540
   75SLPC  H18T 6741   2.824   1.082   8.300  1.2826 -0.3932  3.0411
   75SLPC   C33 6742   1.657   1.453   7.448  0.5730  0.0605 -0.0083
   75SLPC   H3X 6743   1.758   1.492   7.471  0.9700 -0.8578 -0.1604
   75SLPC   H3Y 6744   1.589   1.533   7.409  1.4760  0.6513 -0.4127
   75SLPC   C34 6745   1.602   1.391   7.574 -0.2723 -0.5233  0.1186
   75SLPC   H4X 6746   1.592   1.282   7.553  1.8700 -0.4897 -1.2903
   75SLPC   H4Y 6747   1.499   1.431   7.588 -0.7460 -1.5688 -0.2149
   75SLPC   C35 6748   1.694   1.410   7.693 -0.0591  0.3161 -0.6476
   75SLPC   H5X 6749   1.709   1.513   7.732  0.5239  0.7307 -1.8983
   75SLPC   H5Y 6750   1.791   1.386   7.644 -0.4489 -0.3897 -1.0848
   75SLPC   C36 6751   1.654   1.319   7.814 -0.3732 -0.3063 -0.3415
   75SLPC   H6X 6752   1.646   1.213   7.782 -0.4329 -1.2572  2.5397
   75SLPC   H6Y 6753   1.554   1.350   7.853 -0.1251 -1.3280  1.1719
   75SLPC   C37 6754   1.751   1.318   7.929 -0.7939  1.0561 -0.4442
   75SLPC   H7X 6755   1.750   1.224   7.988  3.9943 -0.8940 -2.9687
   75SLPC   H7Y 6756   1.716   1.397   7.999 -0.9434  1.4639 -0.9731
   75SLPC   C38 6757   1.899   1.360   7.907 -0.4932 -0.2929  0.1158
   75SLPC   H8X 6758   1.911   1.466   7.876 -3.5567 -0.3724 -1.7001
   75SLPC   H8Y 6759   1.956   1.292   7.840  2.3156  0.3729  1.6570
   75SLPC   C39 6760   1.984   1.357   8.037 -0.3724 -0.3157 -0.0507
   75SLPC   H9X 6761   1.938   1.411   8.122  2.4057  1.1912  0.6263
   75SLPC   H9Y 6762   2.091   1.385   8.025 -0.1847 -0.7651  0.5332
   75SLPC  C310 6763   1.987   1.202   8.079 -0.4048 -0.7304 -0.3752
   75SLPC  H10X 6764   2.005   1.146   7.984  0.0321 -1.3349  0.0592
   75SLPC  H10Y 6765   1.895   1.167   8.131  0.5402 -0.1254  1.7789
   75SLPC  C311 6766   2.101   1.175   8.175 -0.0641 -0.0818 -0.2961
   75SLPC  H11X 6767   2.197   1.222   8.145  0.0046  0.6009  0.9315
   75SLPC  H11Y 6768   2.131   1.068   8.168  1.6314  0.3063  0.4463
   75SLPC  C312 6769   2.074   1.230   8.318 -0.1915 -0.0344 -0.3844
   75SLPC  H12X 6770   2.010   1.152   8.366 -1.7106  0.6268 -1.2755
   75SLPC  H12Y 6771   2.004   1.316   8.311 -1.5361 -1.1596 -1.2204
   75SLPC  C313 6772   2.191   1.244   8.413  0.4187  0.1499  0.0227
   75SLPC  H13X 6773   2.147   1.281   8.508 -0.0553  0.4849 -0.3182
   75SLPC  H13Y 6774   2.261   1.322   8.375  0.1903  0.4436  0.1973
   75SLPC  C314 6775   2.270   1.118   8.440  0.2264  0.3193  0.9055
   75SLPC  H14X 6776   2.322   1.090   8.345 -1.4952 -1.5785  0.4333
   75SLPC  H14Y 6777   2.202   1.034   8.465 -1.3950  1.0855 -0.6486
   75SLPC  C315 6778   2.375   1.127   8.555  0.2204  0.0915  0.7758
   75SLPC  H15X 6779   2.326   1.178   8.640  1.8248 -2.3554  3.3516
   75SLPC  H15Y 6780   2.466   1.179   8.517 -0.2429  0.0806 -0.4037
   75SLPC  C316 6781   2.426   0.986   8.597 -0.8733 -0.7533  0.4583
   75SLPC  H16X 6782   2.427   0.931   8.500  2.3006  2.2382 -1.4210
   75SLPC  H16Y 6783   2.360   0.935   8.670 -1.4014  0.3191  0.7520
   75SLPC  C317 6784   2.566   0.982   8.661 -0.4630  0.4428  0.0257
   75SLPC  H17X 6785   2.554   1.037   8.756 -0.9822  1.3577 -0.5571
   75SLPC  H17Y 6786   2.646   1.036   8.605 -0.8593  0.6116 -0.3844
   75SLPC  C318 6787   2.613   0.842   8.680 -1.2104  0.6368 -0.0172
   75SLPC  H18X 6788   2.543   0.780   8.739 -0.3253 -2.1361 -1.7115
   75SLPC  H18Y 6789   2.713   0.831   8.728 -1.1891 -2.2554 -0.5420
   75SLPC  H18Z 6790   2.619   0.786   8.585  0.8820  0.9105 -0.1021
   76SLPC     N 6791   3.973   6.572   6.132  0.2112 -0.1127  0.0849
   76SLPC   C13 6792   3.958   6.518   5.995  0.3896 -0.5049 -0.2544
   76SLPC  H13A 6793   3.865   6.559   5.958 -0.8564 -1.0818  2.0785
   76SLPC  H13B 6794   4.044   6.545   5.934  0.0067  2.2420  0.2913
   76SLPC  H13C 6795   3.951   6.411   6.001 -0.4477 -0.4939 -0.8153
   76SLPC   C14 6796   3.933   6.720   6.117 -0.3841  0.0652  0.3604
   76SLPC  H14A 6797   3.904   6.749   6.217  2.0846 -3.2153  2.2505
   76SLPC  H14B 6798   4.016   6.781   6.086 -2.0816  2.0449 -0.5288
   76SLPC  H14C 6799   3.859   6.739   6.041 -0.2316  2.3211  0.7102
   76SLPC   C15 6800   4.115   6.562   6.179 -0.3536  0.7846  0.5903
   76SLPC  H15A 6801   4.149   6.460   6.173 -0.5497  0.8051 -1.1615
   76SLPC  H15B 6802   4.183   6.608   6.109  0.8858 -1.4347  0.2326
   76SLPC  H15C 6803   4.140   6.606   6.275  0.5182  0.3908  0.5533
   76SLPC   C12 6804   3.891   6.499   6.233 -0.7555  0.1654  0.6862
   76SLPC  H12A 6805   3.915   6.551   6.324 -1.4140  1.3416  0.2063
   76SLPC  H12B 6806   3.923   6.396   6.242 -0.2524 -0.0262 -2.3285
   76SLPC   C11 6807   3.741   6.486   6.210 -0.2600 -0.5606  0.4088
   76SLPC  H11A 6808   3.716   6.410   6.288 -0.9964 -3.0769 -2.0968
   76SLPC  H11B 6809   3.716   6.434   6.115 -0.0283  1.0868 -0.6001
   76SLPC     P 6810   3.668   6.682   6.365 -0.2031  0.0345 -0.2873
   76SLPC   O13 6811   3.805   6.730   6.405 -0.6346  0.9560  0.1653
   76SLPC   O14 6812   3.555   6.783   6.356  0.1353 -0.1276  0.0116
   76SLPC   O12 6813   3.674   6.610   6.228 -0.6155 -0.0765 -0.3551
   76SLPC   O11 6814   3.625   6.566   6.457  0.5949  0.2343 -0.1089
   76SLPC    C1 6815   3.566   6.591   6.582 -0.0190  0.1986 -0.1696
   76SLPC    HA 6816   3.510   6.687   6.588  0.9054  0.6708  2.2040
   76SLPC    HB 6817   3.496   6.505   6.591  0.8450 -0.6253 -1.1333
   76SLPC    C2 6818   3.668   6.583   6.702 -0.7023  0.5869  0.3417
   76SLPC    HS 6819   3.754   6.649   6.676 -1.7722  2.2926  0.9442
   76SLPC   O21 6820   3.713   6.449   6.730 -0.6968  0.0035  0.3622
   76SLPC   C21 6821   3.812   6.405   6.655  0.0443 -0.1402 -0.3916
   76SLPC   O22 6822   3.867   6.461   6.564  0.2710 -0.3400  0.3072
   76SLPC   C22 6823   3.849   6.267   6.702  0.5508  0.0610 -0.0080
   76SLPC   H2R 6824   3.758   6.205   6.722  0.8437 -0.5113 -0.4293
   76SLPC   H2S 6825   3.904   6.228   6.614  0.9655  1.1754 -0.2576
   76SLPC    C3 6826   3.598   6.641   6.831  0.4584 -0.6636  0.3142
   76SLPC    HX 6827   3.505   6.581   6.817  0.4390 -0.1252 -2.3753
   76SLPC    HY 6828   3.585   6.749   6.811  2.1722 -0.8011 -2.0111
   76SLPC   O31 6829   3.676   6.613   6.949  0.3186  0.2670  0.2401
   76SLPC   C31 6830   3.601   6.580   7.052  0.5165  0.2601  0.9962
   76SLPC   O32 6831   3.477   6.562   7.053  0.1933  0.5894 -0.2316
   76SLPC   C32 6832   3.686   6.571   7.176  0.9930  0.3086 -0.4416
   76SLPC   H2X 6833   3.768   6.646   7.168  2.5960 -1.0447  1.9030
   76SLPC   H2Y 6834   3.715   6.463   7.181 -0.6615 -0.1610 -0.4943
   76SLPC   C23 6835   3.924   6.268   6.833 -0.5047 -0.1008 -0.6875
   76SLPC   H3R 6836   3.949   6.367   6.878  1.9557  0.5581 -3.1942
   76SLPC   H3S 6837   4.017   6.211   6.815 -0.4717 -0.8255  1.4743
   76SLPC   C24 6838   3.856   6.188   6.948  0.3991 -0.1575  0.1915
   76SLPC   H4R 6839   3.858   6.079   6.927  2.3316 -0.2228  0.5025
   76SLPC   H4S 6840   3.749   6.217   6.946  0.3454 -0.2731  1.0767
   76SLPC   C25 6841   3.916   6.222   7.080 -0.2442  0.1764 -0.0027
   76SLPC   H5R 6842   3.926   6.330   7.102 -1.6594  0.3512 -0.1592
   76SLPC   H5S 6843   4.021   6.186   7.090 -0.1436  0.2652 -0.7007
   76SLPC   C26 6844   3.833   6.177   7.192 -0.1691  0.1439 -0.2518
   76SLPC   H6R 6845   3.833   6.066   7.200 -1.5457  0.0778 -0.7901
   76SLPC   H6S 6846   3.731   6.213   7.168  0.6603  1.5542 -1.9272
   76SLPC   C27 6847   3.878   6.237   7.330 -0.0202  0.6480 -0.1755
   76SLPC   H7R 6848   3.864   6.347   7.316  0.0135  0.3332 -3.7530
   76SLPC   H7S 6849   3.981   6.203   7.351 -0.6470 -1.9403 -0.9094
   76SLPC   C28 6850   3.782   6.188   7.443 -0.1386 -0.0188  0.0934
   76SLPC   H8R 6851   3.679   6.221   7.417 -0.2698 -0.1175  0.4729
   76SLPC   H8S 6852   3.779   6.077   7.450  1.6475 -0.3393 -2.5810
   76SLPC   C29 6853   3.814   6.248   7.576 -0.3821 -0.4582  0.1666
   76SLPC   H9R 6854   3.836   6.356   7.568 -0.6879 -0.5296 -2.5530
   76SLPC  C210 6855   3.846   6.182   7.685 -0.0346  0.1938 -0.2533
   76SLPC  H10R 6856   3.884   6.249   7.764 -0.2838  1.1255 -0.9056
   76SLPC  C211 6857   3.861   6.034   7.706  0.9224 -0.5063 -0.5979
   76SLPC  H11R 6858   3.968   6.003   7.713  0.1669 -3.5448 -1.1776
   76SLPC  H11S 6859   3.803   5.973   7.634 -0.5351 -1.1626  1.0731
   76SLPC  C212 6860   3.788   6.018   7.837 -0.6566 -0.0829 -0.5258
   76SLPC  H12R 6861   3.681   5.994   7.826 -0.8098 -0.0741  0.8411
   76SLPC  C213 6862   3.844   6.039   7.961 -0.3007 -0.1031 -0.1345
   76SLPC  H13R 6863   3.778   6.017   8.046 -0.0796  0.6016  0.2280
   76SLPC  C214 6864   3.985   6.081   7.986 -0.9110  0.2265  0.3625
   76SLPC  H14R 6865   4.047   6.056   7.897 -0.8344  1.9275 -0.0986
   76SLPC  H14S 6866   4.021   6.027   8.076 -2.6319 -1.5137  0.0795
   76SLPC  C215 6867   3.997   6.235   8.024 -0.7071 -0.1778 -0.1042
   76SLPC  H15R 6868   3.953   6.298   7.944 -0.3342  0.4555  0.1830
   76SLPC  H15S 6869   4.104   6.264   8.032 -0.7728  0.0949 -0.2059
   76SLPC  C216 6870   3.931   6.280   8.158  0.3902 -0.0711 -0.6835
   76SLPC  H16R 6871   3.978   6.234   8.247  0.4886  0.2875 -0.5512
   76SLPC  H16S 6872   3.822   6.262   8.166  0.0362  2.1360 -0.0805
   76SLPC  C217 6873   3.943   6.430   8.161  0.4158 -0.1697  0.1007
   76SLPC  H17R 6874   3.878   6.466   8.078 -1.2595  0.3985  1.5858
   76SLPC  H17S 6875   4.046   6.465   8.142 -0.3555  1.7001 -0.9739
   76SLPC  C218 6876   3.880   6.498   8.287 -0.2786 -0.6131  0.2352
   76SLPC  H18R 6877   3.937   6.588   8.316  1.8855 -1.1600 -1.9576
   76SLPC  H18S 6878   3.881   6.434   8.378  0.0100 -1.6950 -0.5057
   76SLPC  H18T 6879   3.772   6.521   8.271 -0.0654 -0.8550 -1.8459
   76SLPC   C33 6880   3.606   6.597   7.305  0.0008  0.4999  0.4738
   76SLPC   H3X 6881   3.531   6.518   7.322  1.2214 -0.3026  2.4343
   76SLPC   H3Y 6882   3.546   6.691   7.308  0.3094  0.7556 -0.6772
   76SLPC   C34 6883   3.699   6.607   7.419 -0.4161 -0.0817 -0.0623
   76SLPC   H4X 6884   3.796   6.651   7.388 -2.1353  3.2836 -1.1635
   76SLPC   H4Y 6885   3.737   6.508   7.452 -0.0298  0.8900  2.6151
   76SLPC   C35 6886   3.627   6.682   7.536 -0.1845 -0.2430 -0.1733
   76SLPC   H5X 6887   3.526   6.643   7.557 -0.4170  0.2690 -0.3205
   76SLPC   H5Y 6888   3.619   6.788   7.505  0.6401 -0.8843 -2.8053
   76SLPC   C36 6889   3.723   6.692   7.662 -0.5364  0.1129 -0.5576
   76SLPC   H6X 6890   3.806   6.760   7.634 -0.3017  0.6252  1.2788
   76SLPC   H6Y 6891   3.775   6.598   7.693 -1.6715 -0.7642 -1.1981
   76SLPC   C37 6892   3.665   6.762   7.782  0.0349  0.1221 -0.0621
   76SLPC   H7X 6893   3.580   6.830   7.759 -1.0140 -0.6616  1.3293
   76SLPC   H7Y 6894   3.745   6.826   7.825  0.7286  0.3692 -1.6472
   76SLPC   C38 6895   3.627   6.660   7.898  0.7571 -0.6214 -0.6698
   76SLPC   H8X 6896   3.631   6.708   7.998 -1.3936 -1.1120 -0.2826
   76SLPC   H8Y 6897   3.700   6.576   7.895  0.0392 -1.2465 -2.2899
   76SLPC   C39 6898   3.487   6.588   7.889  0.0379 -0.1554  0.0493
   76SLPC   H9X 6899   3.488   6.537   7.790 -1.4157  0.2840 -0.2159
   76SLPC   H9Y 6900   3.409   6.667   7.882  0.4293  0.1543 -1.3323
   76SLPC  C310 6901   3.455   6.491   8.004 -0.1744  0.5181  0.1983
   76SLPC  H10X 6902   3.353   6.447   7.991 -0.1018  0.5998 -0.6995
   76SLPC  H10Y 6903   3.454   6.535   8.106 -0.8555  0.3571  0.2709
   76SLPC  C311 6904   3.537   6.363   8.010 -0.1817 -0.3638 -1.1289
   76SLPC  H11X 6905   3.645   6.388   8.009 -0.4776  1.3833  1.1217
   76SLPC  H11Y 6906   3.518   6.306   7.917  0.5427 -0.1848 -1.3930
   76SLPC  C312 6907   3.521   6.270   8.137  0.4611 -0.3563  0.1408
   76SLPC  H12X 6908   3.549   6.331   8.226  0.4143 -1.3535  0.8482
   76SLPC  H12Y 6909   3.583   6.178   8.129 -2.1569 -2.0453 -2.0662
   76SLPC  C313 6910   3.385   6.222   8.161  0.3574 -0.5581 -0.9590
   76SLPC  H13X 6911   3.333   6.178   8.073 -2.4402 -1.4664  0.9950
   76SLPC  H13Y 6912   3.324   6.311   8.187 -1.0685 -1.6876 -0.3329
   76SLPC  C314 6913   3.383   6.133   8.284 -0.1888  0.9857 -0.2829
   76SLPC  H14X 6914   3.278   6.113   8.312  0.8443 -2.9524  1.5543
   76SLPC  H14Y 6915   3.437   6.178   8.371  0.8165  1.0369 -0.9106
   76SLPC  C315 6916   3.452   5.987   8.263  0.8322  0.4791  0.8033
   76SLPC  H15X 6917   3.454   5.924   8.355 -0.9499 -1.3272 -0.3180
   76SLPC  H15Y 6918   3.559   5.999   8.235  0.8234 -1.4244 -0.2104
   76SLPC  C316 6919   3.378   5.893   8.168 -0.9109  1.2426  0.3653
   76SLPC  H16X 6920   3.272   5.920   8.187 -1.5819 -0.2776 -0.9541
   76SLPC  H16Y 6921   3.394   5.785   8.187 -0.5309  1.0023 -1.1445
   76SLPC  C317 6922   3.419   5.907   8.026 -0.5154  1.2541  0.2196
   76SLPC  H17X 6923   3.520   5.859   8.025 -1.9570 -2.0991  0.6041
   76SLPC  H17Y 6924   3.415   6.010   7.984 -3.5234  0.3580 -2.0626
   76SLPC  C318 6925   3.343   5.822   7.927  0.2315  0.6310 -0.0950
   76SLPC  H18X 6926   3.316   5.734   7.990 -2.8795  2.3565  1.2115
   76SLPC  H18Y 6927   3.397   5.803   7.832  1.9367  1.9417  0.5619
   76SLPC  H18Z 6928   3.248   5.862   7.887  0.9093  1.4356 -0.9241
   77SLPC     N 6929   0.380   0.572   6.588  0.2062  0.2346  0.2040
   77SLPC   C13 6930   0.433   0.435   6.625  0.6350 -0.7008 -0.0728
   77SLPC  H13A 6931   0.408   0.371   6.542 -0.9851 -0.5315  0.2465
   77SLPC  H13B 6932   0.539   0.443   6.644  0.7523 -2.2442  0.0622
   77SLPC  H13C 6933   0.373   0.404   6.709 -0.5350 -0.7749 -0.9209
   77SLPC   C14 6934   0.414   0.659   6.707 -0.5909 -0.3268  0.0085
   77SLPC  H14A 6935   0.358   0.615   6.788 -0.3838  0.5713  0.6538
   77SLPC  H14B 6936   0.521   0.661   6.726 -0.0486 -1.4809 -2.4101
   77SLPC  H14C 6937   0.376   0.760   6.708 -1.3018 -0.5722 -0.8163
   77SLPC   C15 6938   0.234   0.566   6.575 -0.2590 -0.2569  0.0975
   77SLPC  H15A 6939   0.198   0.547   6.675 -0.8399 -0.6954 -0.1921
   77SLPC  H15B 6940   0.188   0.664   6.570 -1.1131 -0.6717 -0.2873
   77SLPC  H15C 6941   0.195   0.487   6.514  0.3868 -1.0545  0.6910
   77SLPC   C12 6942   0.449   0.628   6.466 -0.5791 -0.1002 -0.5234
   77SLPC  H12A 6943   0.459   0.734   6.484 -3.8034  0.0751  0.7479
   77SLPC  H12B 6944   0.377   0.618   6.386 -2.1420 -0.8931  0.9253
   77SLPC   C11 6945   0.590   0.583   6.432 -0.7802 -0.1070 -0.2921
   77SLPC  H11A 6946   0.618   0.652   6.349 -2.2762  0.2273 -0.5647
   77SLPC  H11B 6947   0.595   0.476   6.403  3.6886 -0.0976 -0.2300
   77SLPC     P 6948   0.748   0.754   6.580 -0.0116 -0.0680 -0.1108
   77SLPC   O13 6949   0.886   0.767   6.522  0.2084  0.6491  0.0507
   77SLPC   O14 6950   0.659   0.866   6.549  0.1952 -0.2284 -0.1986
   77SLPC   O12 6951   0.673   0.615   6.543  0.0731 -0.4643 -0.3408
   77SLPC   O11 6952   0.747   0.747   6.736 -0.6352  0.2011  0.6492
   77SLPC    C1 6953   0.792   0.632   6.814  0.6072  0.0143  0.4532
   77SLPC    HA 6954   0.748   0.639   6.916 -1.5915  0.4975 -0.4728
   77SLPC    HB 6955   0.738   0.538   6.791 -0.7597 -0.5116  4.8298
   77SLPC    C2 6956   0.945   0.614   6.820 -0.2931  0.0943 -0.2220
   77SLPC    HS 6957   0.979   0.638   6.717  0.7809 -0.8445 -0.1021
   77SLPC   O21 6958   0.972   0.479   6.854 -0.3015 -0.1391 -0.0550
   77SLPC   C21 6959   1.093   0.438   6.812  0.9846  0.5964 -0.1014
   77SLPC   O22 6960   1.178   0.503   6.759  0.1508 -0.7815  0.2269
   77SLPC   C22 6961   1.101   0.286   6.848  1.1593  0.4293 -0.5505
   77SLPC   H2R 6962   1.030   0.227   6.786 -0.7290  1.3832  0.6130
   77SLPC   H2S 6963   1.202   0.249   6.820  0.6148 -0.7184 -1.0474
   77SLPC    C3 6964   1.010   0.712   6.923 -0.5464  0.4921  0.1793
   77SLPC    HX 6965   0.979   0.814   6.894 -1.6941  0.3225  0.7304
   77SLPC    HY 6966   1.120   0.713   6.911 -0.4044 -1.3214  0.9867
   77SLPC   O31 6967   0.966   0.679   7.062  0.1481 -0.2787  0.2026
   77SLPC   C31 6968   1.054   0.602   7.129  0.1431 -0.0769  0.0028
   77SLPC   O32 6969   1.163   0.570   7.090 -0.0739  0.6472 -0.7049
   77SLPC   C32 6970   0.995   0.573   7.269 -0.5951 -0.1154  0.6870
   77SLPC   H2X 6971   0.924   0.488   7.262  0.3658 -1.0160  1.4395
   77SLPC   H2Y 6972   0.941   0.664   7.302  1.7264  1.7573 -0.4447
   77SLPC   C23 6973   1.080   0.255   7.003 -0.0729 -0.2558  0.1290
   77SLPC   H3R 6974   0.972   0.256   7.030  0.0237  0.4212  0.5267
   77SLPC   H3S 6975   1.122   0.343   7.057 -1.1424  0.9761 -0.9450
   77SLPC   C24 6976   1.144   0.119   7.046  0.4773  0.1954 -0.0874
   77SLPC   H4R 6977   1.253   0.120   7.024  1.1076 -2.3388  2.3644
   77SLPC   H4S 6978   1.107   0.041   6.976  1.5013 -0.8221  0.4714
   77SLPC   C25 6979   1.134   0.087   7.198  0.3031 -0.0582  0.9318
   77SLPC   H5R 6980   1.183   0.162   7.263 -2.0269 -0.8943  3.8811
   77SLPC   H5S 6981   1.179  -0.012   7.223  0.6803 -1.1935 -3.3720
   77SLPC   C26 6982   0.987   0.104   7.252  0.4963  0.3213 -0.3898
   77SLPC   H6R 6983   0.918   0.028   7.207  0.5974 -0.6666  1.0487
   77SLPC   H6S 6984   0.953   0.207   7.230 -1.5407 -0.1134  0.4558
   77SLPC   C27 6985   0.975   0.081   7.410  1.3184  0.9369 -0.0067
   77SLPC   H7R 6986   1.048   0.147   7.461 -0.5292  2.6532  0.5557
   77SLPC   H7S 6987   1.010  -0.023   7.426  1.8732  0.9443 -1.0309
   77SLPC   C28 6988   0.832   0.103   7.460 -0.9975  0.2317 -0.2361
   77SLPC   H8R 6989   0.802   0.208   7.438  0.0595  0.5610 -0.1552
   77SLPC   H8S 6990   0.848   0.098   7.570 -1.5954 -0.8706 -0.1855
   77SLPC   C29 6991   0.735  -0.002   7.416  0.2021 -0.4423 -0.7490
   77SLPC   H9R 6992   0.694   0.008   7.314 -1.3103  0.3603 -0.0900
   77SLPC  C210 6993   0.697  -0.110   7.487 -0.3547  0.9456  0.2650
   77SLPC  H10R 6994   0.632  -0.181   7.434  1.6257 -1.1474  0.4458
   77SLPC  C211 6995   0.752  -0.151   7.624 -0.1230  0.0514 -0.0167
   77SLPC  H11R 6996   0.848  -0.097   7.637 -0.9352  1.4338  0.4273
   77SLPC  H11S 6997   0.773  -0.260   7.632  1.2992  0.4236  2.3938
   77SLPC  C212 6998   0.652  -0.113   7.732  0.2399 -0.6357  1.0262
   77SLPC  H12R 6999   0.550  -0.150   7.721  0.7377 -1.2758 -3.1884
   77SLPC  C213 7000   0.671  -0.027   7.831  0.5398  0.3457 -0.6560
   77SLPC  H13R 7001   0.584  -0.004   7.894 -0.0367 -1.5505 -0.7080
   77SLPC  C214 7002   0.800   0.043   7.871 -0.4217 -0.5246 -0.4127
   77SLPC  H14R 7003   0.808   0.146   7.831 -0.1536  0.1635  1.3188
   77SLPC  H14S 7004   0.887  -0.021   7.845  0.6555  1.0896 -0.9080
   77SLPC  C215 7005   0.785   0.053   8.025 -0.4858  0.6327 -0.0106
   77SLPC  H15R 7006   0.764  -0.048   8.067 -3.2187  0.7597 -0.8349
   77SLPC  H15S 7007   0.699   0.121   8.047 -0.9529  0.1967 -0.4673
   77SLPC  C216 7008   0.912   0.120   8.078  0.2906  0.1212 -0.4235
   77SLPC  H16R 7009   0.924   0.224   8.040 -1.0860  0.1835 -0.7182
   77SLPC  H16S 7010   1.002   0.067   8.040  0.0599 -0.4050 -0.2452
   77SLPC  C217 7011   0.921   0.116   8.237  0.3377  0.0693 -0.1869
   77SLPC  H17R 7012   0.881   0.018   8.270  0.7162 -0.2269 -0.5926
   77SLPC  H17S 7013   0.872   0.207   8.278  1.1685  1.0459 -1.2986
   77SLPC  C218 7014   1.071   0.131   8.286  0.2827 -0.2082 -0.3132
   77SLPC  H18R 7015   1.145   0.063   8.239  0.4833  0.8025 -1.5125
   77SLPC  H18S 7016   1.076   0.120   8.397  1.2848  0.3338 -0.2977
   77SLPC  H18T 7017   1.092   0.237   8.260 -0.0255  0.0180  0.3393
   77SLPC   C33 7018   1.107   0.555   7.377  0.0705 -0.6373  0.0517
   77SLPC   H3X 7019   1.192   0.624   7.356  0.1653 -0.2382  1.6300
   77SLPC   H3Y 7020   1.139   0.450   7.357 -0.0704 -1.0031  1.6259
   77SLPC   C34 7021   1.069   0.557   7.524  0.2403 -0.3346  0.2827
   77SLPC   H4X 7022   1.063   0.664   7.552  1.3220  0.1801 -1.3369
   77SLPC   H4Y 7023   1.151   0.515   7.587 -1.8705  0.2036  3.6276
   77SLPC   C35 7024   0.936   0.487   7.544 -0.5461  0.1790  0.3365
   77SLPC   H5X 7025   0.946   0.377   7.532 -1.1747  0.2350 -0.8046
   77SLPC   H5Y 7026   0.857   0.520   7.473  0.1309 -1.5472 -1.3069
   77SLPC   C36 7027   0.883   0.516   7.685  0.2532 -0.4217 -0.1130
   77SLPC   H6X 7028   0.778   0.491   7.711  0.0229 -0.7356 -1.2843
   77SLPC   H6Y 7029   0.864   0.626   7.688 -0.4259 -0.5467  0.6415
   77SLPC   C37 7030   0.972   0.472   7.806  0.5410  0.5154  0.1419
   77SLPC   H7X 7031   1.076   0.509   7.804  0.6082  0.5116  2.1714
   77SLPC   H7Y 7032   0.979   0.362   7.818 -0.9048  0.4333  0.4319
   77SLPC   C38 7033   0.916   0.546   7.931 -0.3800  0.2763  0.1600
   77SLPC   H8X 7034   0.821   0.496   7.958  0.5858 -1.2553  0.8077
   77SLPC   H8Y 7035   0.900   0.652   7.900  1.2986  0.0621 -1.6728
   77SLPC   C39 7036   0.996   0.558   8.058  0.4471 -0.0865  0.7316
   77SLPC   H9X 7037   1.105   0.573   8.043  0.1062  0.7988 -1.1246
   77SLPC   H9Y 7038   0.975   0.465   8.115  0.6860  0.2741  1.4146
   77SLPC  C310 7039   0.948   0.673   8.139 -0.2550 -0.4783  0.5165
   77SLPC  H10X 7040   0.838   0.662   8.149 -0.4404  0.9716  0.2868
   77SLPC  H10Y 7041   0.972   0.775   8.103 -0.6737 -0.1328  1.2006
   77SLPC  C311 7042   0.998   0.649   8.284  0.6559  0.1540  0.0298
   77SLPC  H11X 7043   1.108   0.659   8.297  0.6664  0.0009  0.0693
   77SLPC  H11Y 7044   0.961   0.548   8.311 -1.2663  0.4577 -1.2504
   77SLPC  C312 7045   0.941   0.757   8.371  0.2451 -0.2394  0.4384
   77SLPC  H12X 7046   0.830   0.761   8.360  0.3779 -0.8816 -1.4096
   77SLPC  H12Y 7047   0.973   0.859   8.340 -0.0322  0.6146  2.7646
   77SLPC  C313 7048   0.964   0.748   8.519 -0.2064 -0.1158  0.6471
   77SLPC  H13X 7049   1.070   0.774   8.538 -0.1056 -1.1074  1.6033
   77SLPC  H13Y 7050   0.967   0.638   8.534  2.2902 -0.3364 -0.9460
   77SLPC  C314 7051   0.861   0.814   8.606  0.9521 -0.0798 -0.9101
   77SLPC  H14X 7052   0.766   0.757   8.595  0.6316  0.4238 -0.7559
   77SLPC  H14Y 7053   0.849   0.919   8.572 -0.5269  0.7767  1.9597
   77SLPC  C315 7054   0.900   0.815   8.758 -0.3736  0.9941 -0.0766
   77SLPC  H15X 7055   0.915   0.706   8.773  0.0680  0.8275 -1.4925
   77SLPC  H15Y 7056   0.818   0.847   8.825 -0.9567  1.5966 -1.0547
   77SLPC  C316 7057   1.031   0.881   8.801 -0.8499  0.0863  0.0032
   77SLPC  H16X 7058   1.108   0.835   8.736 -2.8488 -4.2074  0.3412
   77SLPC  H16Y 7059   1.047   0.861   8.910 -0.1932  0.8386  0.0516
   77SLPC  C317 7060   1.051   1.028   8.774  0.3940 -0.2422 -0.8668
   77SLPC  H17X 7061   0.970   1.085   8.824  0.1012 -1.8081  0.5512
   77SLPC  H17Y 7062   1.034   1.049   8.666  0.5186  0.9294 -0.6673
   77SLPC  C318 7063   1.190   1.073   8.811  0.2921  0.2249  0.0485
   77SLPC  H18X 7064   1.198   1.065   8.921 -1.4884  0.2790  0.2048
   77SLPC  H18Y 7065   1.209   1.180   8.791  1.2795  0.2769  1.1642
   77SLPC  H18Z 7066   1.270   1.020   8.755  0.0536  0.7888 -0.8398
   78SLPC     N 7067   2.974   0.531   6.025  0.1403 -0.4117 -0.3849
   78SLPC   C13 7068   3.022   0.606   5.905 -0.2069 -0.2720  0.2959
   78SLPC  H13A 7069   3.095   0.555   5.845 -0.0888  1.7723 -1.4495
   78SLPC  H13B 7070   2.938   0.650   5.852  0.2010 -0.5107 -0.5670
   78SLPC  H13C 7071   3.088   0.682   5.944  2.3531 -2.0723 -0.3267
   78SLPC   C14 7072   2.882   0.422   5.976  0.2785 -1.0200  0.3016
   78SLPC  H14A 7073   2.815   0.464   5.902  0.7532  1.2408  1.0680
   78SLPC  H14B 7074   2.941   0.344   5.931 -1.4936 -0.7580 -2.8173
   78SLPC  H14C 7075   2.833   0.379   6.062  2.4851 -0.8791  1.7074
   78SLPC   C15 7076   2.908   0.629   6.115  0.6723 -0.4118  0.5021
   78SLPC  H15A 7077   2.898   0.609   6.221 -0.6754 -0.1057  0.4561
   78SLPC  H15B 7078   2.951   0.727   6.102  1.0852 -0.6978 -0.3764
   78SLPC  H15C 7079   2.809   0.654   6.079  0.2388 -1.0292  1.2358
   78SLPC   C12 7080   3.097   0.468   6.092  1.1829 -0.2100  0.2723
   78SLPC  H12A 7081   3.149   0.410   6.017  0.4192  1.2117 -1.4396
   78SLPC  H12B 7082   3.053   0.401   6.165  1.3081  1.2830  1.7538
   78SLPC   C11 7083   3.197   0.552   6.162  0.1057  0.0967 -0.7126
   78SLPC  H11A 7084   3.231   0.632   6.093  0.9535  0.9264  0.6069
   78SLPC  H11B 7085   3.281   0.482   6.183  0.4129  0.1146 -1.8547
   78SLPC     P 7086   3.099   0.516   6.412  0.2859 -0.0910  0.3469
   78SLPC   O13 7087   3.001   0.599   6.482 -0.4885  0.5063  0.0805
   78SLPC   O14 7088   3.036   0.391   6.362 -0.1285 -0.0351 -0.0625
   78SLPC   O12 7089   3.154   0.604   6.289 -0.2330  0.0339  0.7091
   78SLPC   O11 7090   3.225   0.481   6.504 -0.1676 -0.8432  0.6229
   78SLPC    C1 7091   3.356   0.519   6.487 -0.4397 -0.8932 -0.4563
   78SLPC    HA 7092   3.415   0.425   6.483  1.3597  0.1363  0.7344
   78SLPC    HB 7093   3.369   0.562   6.385  0.0600  0.4388  0.1467
   78SLPC    C2 7094   3.407   0.608   6.600 -0.9962  0.1031 -0.9760
   78SLPC    HS 7095   3.513   0.637   6.590 -1.3797  2.2446  0.4921
   78SLPC   O21 7096   3.376   0.542   6.723  0.6855 -0.0980  0.2540
   78SLPC   C21 7097   3.463   0.444   6.758  0.2971  0.3287 -0.4140
   78SLPC   O22 7098   3.557   0.407   6.692  0.4924 -0.0754 -0.0516
   78SLPC   C22 7099   3.431   0.406   6.900  0.0609  0.7460  0.0415
   78SLPC   H2R 7100   3.483   0.479   6.967 -2.9443  2.5706  0.5898
   78SLPC   H2S 7101   3.322   0.413   6.919 -0.6626  0.7206 -3.3922
   78SLPC    C3 7102   3.330   0.742   6.593 -0.6877 -0.0639  0.1030
   78SLPC    HX 7103   3.222   0.717   6.608 -0.4091 -0.5772  1.3867
   78SLPC    HY 7104   3.352   0.789   6.495 -1.3731  0.2532  0.0943
   78SLPC   O31 7105   3.375   0.818   6.700  0.0446  0.2973  0.0859
   78SLPC   C31 7106   3.296   0.917   6.744 -0.3295 -0.8191 -0.6157
   78SLPC   O32 7107   3.188   0.945   6.697 -0.2926  0.4993  0.5357
   78SLPC   C32 7108   3.359   0.994   6.863  0.0192  0.4012  0.5014
   78SLPC   H2X 7109   3.283   0.996   6.945  0.3694  0.4212  0.8305
   78SLPC   H2Y 7110   3.379   1.099   6.833 -0.0768  0.0749 -0.7280
   78SLPC   C23 7111   3.481   0.269   6.939  0.2982  0.9631  0.1855
   78SLPC   H3R 7112   3.586   0.252   6.906 -0.6505  1.1405 -3.2529
   78SLPC   H3S 7113   3.420   0.189   6.892 -1.3170  2.7271 -0.8633
   78SLPC   C24 7114   3.492   0.250   7.090 -0.0606 -0.3070 -0.3724
   78SLPC   H4R 7115   3.504   0.141   7.108  2.7109 -0.0189 -0.0399
   78SLPC   H4S 7116   3.395   0.284   7.132 -1.1630 -3.0484 -0.5125
   78SLPC   C25 7117   3.616   0.319   7.158  0.5321  0.8196  0.0866
   78SLPC   H5R 7118   3.603   0.429   7.154 -1.3407  0.6186 -0.1026
   78SLPC   H5S 7119   3.699   0.291   7.090 -0.5116 -2.4921  0.0140
   78SLPC   C26 7120   3.641   0.272   7.301 -0.1177 -0.1639 -0.1366
   78SLPC   H6R 7121   3.647   0.161   7.307  2.7586 -0.0119  1.5539
   78SLPC   H6S 7122   3.544   0.289   7.353 -1.0369  0.0005 -1.8420
   78SLPC   C27 7123   3.765   0.324   7.374 -0.0987 -0.1086  0.2749
   78SLPC   H7R 7124   3.835   0.335   7.288 -1.1557 -1.2465 -0.7742
   78SLPC   H7S 7125   3.794   0.251   7.452 -2.3335  2.2760  3.5865
   78SLPC   C28 7126   3.736   0.462   7.428 -0.1809 -0.3676  0.4600
   78SLPC   H8R 7127   3.653   0.444   7.500  1.0741  0.1392  2.0753
   78SLPC   H8S 7128   3.693   0.536   7.357  0.2857 -1.2734 -0.8091
   78SLPC   C29 7129   3.855   0.530   7.491 -0.5930  0.4076  0.1521
   78SLPC   H9R 7130   3.928   0.582   7.427 -0.2809  0.9220  0.9218
   78SLPC  C210 7131   3.893   0.522   7.617 -0.6475  0.4363 -0.2532
   78SLPC  H10R 7132   3.993   0.556   7.650 -1.6160  0.6309  2.7811
   78SLPC  C211 7133   3.826   0.448   7.728  0.0972 -0.0686 -0.7764
   78SLPC  H11R 7134   3.723   0.414   7.704 -0.9425 -0.1704  3.0678
   78SLPC  H11S 7135   3.811   0.522   7.810 -1.4711  0.6255 -1.6414
   78SLPC  C212 7136   3.907   0.322   7.773  0.5193 -0.0648 -0.6559
   78SLPC  H12R 7137   3.958   0.264   7.695  0.7071  1.6814 -1.9052
   78SLPC  C213 7138   3.912   0.279   7.898  0.4040 -0.4151 -0.5591
   78SLPC  H13R 7139   3.977   0.191   7.912  0.2210 -0.4791 -0.0758
   78SLPC  C214 7140   3.837   0.339   8.020 -0.2947  0.1389  0.3566
   78SLPC  H14R 7141   3.742   0.376   7.978  1.0252  2.2166 -0.9567
   78SLPC  H14S 7142   3.907   0.415   8.061 -2.0016  2.8542 -1.4620
   78SLPC  C215 7143   3.801   0.229   8.122 -0.6065  0.0482 -0.6315
   78SLPC  H15R 7144   3.728   0.157   8.078  0.5731 -0.7297 -1.3980
   78SLPC  H15S 7145   3.749   0.299   8.190 -0.1906  1.2250 -1.4892
   78SLPC  C216 7146   3.923   0.178   8.200 -0.4523  0.0364 -0.4548
   78SLPC  H16R 7147   3.998   0.256   8.220 -0.7586  0.2626 -0.1732
   78SLPC  H16S 7148   3.961   0.103   8.127 -2.8980 -0.6686 -1.1115
   78SLPC  C217 7149   3.885   0.108   8.328  0.2696  0.5847  0.4883
   78SLPC  H17R 7150   3.972   0.045   8.356  0.8579  1.8501  1.6604
   78SLPC  H17S 7151   3.803   0.034   8.316  1.0080 -0.4270  1.4362
   78SLPC  C218 7152   3.851   0.206   8.452 -0.6357  0.0389  0.0671
   78SLPC  H18R 7153   3.942   0.251   8.496 -1.4560 -0.1902  2.1170
   78SLPC  H18S 7154   3.801   0.147   8.531 -2.7918 -1.1729 -2.0475
   78SLPC  H18T 7155   3.780   0.288   8.427  0.9581  0.8034 -2.3559
   78SLPC   C33 7156   3.485   0.921   6.923  0.5570 -0.2170 -0.7692
   78SLPC   H3X 7157   3.574   0.929   6.857 -1.0439  0.0239 -3.0120
   78SLPC   H3Y 7158   3.467   0.812   6.930 -1.2636  0.0870 -0.2422
   78SLPC   C34 7159   3.525   0.980   7.057  0.5195  0.1228  0.2982
   78SLPC   H4X 7160   3.530   1.091   7.056  0.2006  0.1360  0.1220
   78SLPC   H4Y 7161   3.624   0.931   7.068  1.9863  2.4885 -1.4840
   78SLPC   C35 7162   3.439   0.941   7.176  0.4181 -0.5417 -0.0437
   78SLPC   H5X 7163   3.392   0.841   7.165 -0.3209 -0.4590  1.9297
   78SLPC   H5Y 7164   3.352   1.011   7.172  0.6343 -0.3232 -2.0189
   78SLPC   C36 7165   3.513   0.959   7.310  0.2861 -0.1959 -0.4349
   78SLPC   H6X 7166   3.443   0.933   7.392 -0.0400 -1.7068 -1.1441
   78SLPC   H6Y 7167   3.556   1.061   7.309  1.3583 -0.6344 -1.2509
   78SLPC   C37 7168   3.627   0.856   7.330 -0.0314 -0.6604 -0.8010
   78SLPC   H7X 7169   3.705   0.876   7.255  0.3757 -3.1776 -1.1150
   78SLPC   H7Y 7170   3.599   0.753   7.300  0.9943 -1.6901  1.5136
   78SLPC   C38 7171   3.696   0.866   7.471  0.0483  0.2261  0.5564
   78SLPC   H8X 7172   3.712   0.975   7.489  1.4073  0.0967  0.2279
   78SLPC   H8Y 7173   3.789   0.807   7.459 -0.7471 -0.9117 -0.1377
   78SLPC   C39 7174   3.618   0.834   7.596  0.5310  0.0806  0.6277
   78SLPC   H9X 7175   3.617   0.726   7.622 -1.2756  0.2513  1.4249
   78SLPC   H9Y 7176   3.513   0.869   7.587 -0.2540 -2.3989 -0.5504
   78SLPC  C310 7177   3.683   0.896   7.720 -1.2027 -0.1181 -0.1750
   78SLPC  H10X 7178   3.702   1.003   7.697  1.4617 -0.2653  0.9825
   78SLPC  H10Y 7179   3.780   0.846   7.742 -0.1041  1.5227 -1.0897
   78SLPC  C311 7180   3.606   0.881   7.850  0.0050 -0.4037 -0.3367
   78SLPC  H11X 7181   3.497   0.901   7.835 -0.0753 -0.8533 -0.3769
   78SLPC  H11Y 7182   3.649   0.960   7.914 -0.7522 -1.2687  1.3165
   78SLPC  C312 7183   3.634   0.745   7.916 -0.0409  0.8242 -0.1199
   78SLPC  H12X 7184   3.743   0.740   7.933 -0.3001 -0.4756  1.4222
   78SLPC  H12Y 7185   3.596   0.664   7.849  0.9662  0.9754 -0.8951
   78SLPC  C313 7186   3.571   0.729   8.054  0.4699 -0.2455 -1.1416
   78SLPC  H13X 7187   3.465   0.720   8.023  0.8112 -0.0083 -2.4408
   78SLPC  H13Y 7188   3.568   0.824   8.110 -0.7442 -0.9602  0.0522
   78SLPC  C314 7189   3.618   0.611   8.146 -1.5721 -0.1125  0.4391
   78SLPC  H14X 7190   3.729   0.618   8.149 -1.4778 -0.6713 -1.0118
   78SLPC  H14Y 7191   3.600   0.519   8.086  1.4811 -0.9463  0.6119
   78SLPC  C315 7192   3.549   0.612   8.286  0.2693  0.4380  0.6223
   78SLPC  H15X 7193   3.440   0.615   8.263  0.7151  1.7793 -1.6025
   78SLPC  H15Y 7194   3.577   0.709   8.332  2.8511  0.3606 -0.6140
   78SLPC  C316 7195   3.577   0.484   8.365  1.0185 -0.8295  0.1058
   78SLPC  H16X 7196   3.686   0.475   8.378  1.3598  2.0078 -0.1249
   78SLPC  H16Y 7197   3.553   0.399   8.297  0.0222  0.3463 -1.0826
   78SLPC  C317 7198   3.513   0.465   8.506 -0.0388  0.1367  1.0831
   78SLPC  H17X 7199   3.530   0.359   8.536 -0.1841 -1.0054 -2.4400
   78SLPC  H17Y 7200   3.405   0.467   8.481  0.6119  2.4143 -2.1379
   78SLPC  C318 7201   3.545   0.565   8.618 -0.7495 -0.7345  0.1162
   78SLPC  H18X 7202   3.654   0.560   8.635 -0.8000 -2.0073  0.1367
   78SLPC  H18Y 7203   3.494   0.542   8.714 -1.6086 -0.9116 -0.3662
   78SLPC  H18Z 7204   3.521   0.669   8.585  0.3690 -0.0687  1.3412
   79SLPC     N 7205   0.120   2.290   6.170 -0.0460 -0.2008 -0.3749
   79SLPC   C13 7206   0.215   2.188   6.107 -0.1514  0.5084  0.0800
   79SLPC  H13A 7207   0.295   2.243   6.060  1.7850 -2.7368 -0.7777
   79SLPC  H13B 7208   0.243   2.116   6.182  2.0700 -0.2103 -1.3322
   79SLPC  H13C 7209   0.165   2.125   6.034  0.7863 -1.4720  1.0671
   79SLPC   C14 7210   0.002   2.210   6.219  0.1489 -0.5636  0.4283
   79SLPC  H14A 7211  -0.044   2.167   6.131 -0.8557  0.2514  0.5346
   79SLPC  H14B 7212   0.033   2.129   6.282 -0.7330 -1.3677 -0.1429
   79SLPC  H14C 7213  -0.054   2.289   6.266  1.2646 -0.7362  2.1372
   79SLPC   C15 7214   0.094   2.378   6.049  0.3001 -0.0939  0.6551
   79SLPC  H15A 7215   0.054   2.317   5.970  1.1272 -0.6216  0.6296
   79SLPC  H15B 7216   0.021   2.454   6.070  2.8566  3.4307 -1.9667
   79SLPC  H15C 7217   0.183   2.430   6.017  0.7664  0.0949  2.1634
   79SLPC   C12 7218   0.178   2.375   6.275  0.4148  0.0484  0.2316
   79SLPC  H12A 7219   0.114   2.461   6.287 -0.0227  0.1291 -2.2193
   79SLPC  H12B 7220   0.272   2.415   6.239 -0.9616  1.1232 -2.3948
   79SLPC   C11 7221   0.190   2.320   6.419 -0.0173  0.4165  0.8990
   79SLPC  H11A 7222   0.263   2.387   6.469  0.6692  0.3392  0.0294
   79SLPC  H11B 7223   0.228   2.216   6.424 -0.6287  0.2227  1.5349
   79SLPC     P 7224  -0.011   2.441   6.553  0.2604  0.2739 -0.0044
   79SLPC   O13 7225  -0.043   2.542   6.445  0.4966 -0.0535  0.4496
   79SLPC   O14 7226  -0.123   2.389   6.637  0.2299  0.8850  0.1343
   79SLPC   O12 7227   0.062   2.322   6.476 -0.1885 -0.4476  0.2228
   79SLPC   O11 7228   0.107   2.497   6.641 -0.3648 -0.2638  0.5555
   79SLPC    C1 7229   0.166   2.422   6.745  0.4773 -0.8114  0.3752
   79SLPC    HA 7230   0.127   2.318   6.739  1.7731 -1.4959  2.5445
   79SLPC    HB 7231   0.276   2.417   6.728  0.1646 -1.3358 -1.6621
   79SLPC    C2 7232   0.125   2.485   6.883  0.5419  1.0593 -0.4260
   79SLPC    HS 7233   0.017   2.461   6.889  0.6442  0.8897  1.0811
   79SLPC   O21 7234   0.150   2.630   6.891  0.4972 -0.0461  1.0681
   79SLPC   C21 7235   0.057   2.702   6.962 -0.4057 -0.0871 -0.0372
   79SLPC   O22 7236  -0.047   2.653   7.007  0.0747 -0.3035  0.1938
   79SLPC   C22 7237   0.099   2.847   6.941  0.4558  0.1084  0.1196
   79SLPC   H2R 7238   0.209   2.844   6.952  0.5505 -1.2458 -1.0048
   79SLPC   H2S 7239   0.078   2.879   6.837  0.2811 -0.9211 -0.1739
   79SLPC    C3 7240   0.200   2.412   7.001 -0.7396  0.2668  0.2544
   79SLPC    HX 7241   0.304   2.447   6.983 -1.3685  0.6406 -3.1856
   79SLPC    HY 7242   0.199   2.301   6.994  3.5987  0.0170  0.7310
   79SLPC   O31 7243   0.157   2.464   7.126  0.1107  0.2739  0.2385
   79SLPC   C31 7244   0.057   2.382   7.185 -0.3397  0.2101 -0.1745
   79SLPC   O32 7245   0.017   2.278   7.138 -0.1497 -0.1418  0.1611
   79SLPC   C32 7246   0.017   2.453   7.317 -0.3577  0.4998  0.3841
   79SLPC   H2X 7247  -0.088   2.480   7.295  0.5551  3.7412 -0.5121
   79SLPC   H2Y 7248   0.079   2.545   7.322  2.1888 -0.9677 -1.3116
   79SLPC   C23 7249   0.007   2.929   7.035  0.0897  0.6326  0.1803
   79SLPC   H3R 7250  -0.102   2.909   7.031  0.2464 -0.1030 -0.5040
   79SLPC   H3S 7251   0.019   3.037   7.009  2.5009  0.5644  0.8096
   79SLPC   C24 7252   0.054   2.898   7.178 -0.3596  0.7836 -0.0901
   79SLPC   H4R 7253   0.160   2.925   7.197 -0.6935  1.1220  1.4184
   79SLPC   H4S 7254   0.041   2.792   7.207 -0.9392  0.6424 -0.8238
   79SLPC   C25 7255  -0.028   2.990   7.280  0.4625  0.5313 -0.1030
   79SLPC   H5R 7256  -0.138   2.980   7.274  0.4862 -0.2161  0.4976
   79SLPC   H5S 7257  -0.009   3.095   7.250  2.3149  0.9713  2.2409
   79SLPC   C26 7258   0.027   2.991   7.428  0.0578 -0.8130 -0.2815
   79SLPC   H6R 7259  -0.021   3.079   7.476 -0.6549  0.5231 -3.1951
   79SLPC   H6S 7260   0.137   3.004   7.436 -0.0747 -0.9770  3.6234
   79SLPC   C27 7261  -0.025   2.867   7.501 -0.4264  1.0499  0.0398
   79SLPC   H7R 7262   0.035   2.780   7.467 -0.4573  0.6827  0.9053
   79SLPC   H7S 7263  -0.128   2.852   7.463 -0.3858 -0.1441  0.3677
   79SLPC   C28 7264  -0.033   2.865   7.654 -0.4427 -0.2904 -0.2272
   79SLPC   H8R 7265   0.064   2.891   7.702 -1.3233  1.1322  0.8647
   79SLPC   H8S 7266  -0.062   2.773   7.709 -0.9389  1.8100  3.3123
   79SLPC   C29 7267  -0.130   2.972   7.701 -0.3317  0.4507 -0.5915
   79SLPC   H9R 7268  -0.171   3.038   7.623  1.2569 -0.1054 -1.9423
   79SLPC  C210 7269  -0.150   3.008   7.829  0.6541 -0.5643 -0.1081
   79SLPC  H10R 7270  -0.200   3.102   7.857  0.9018 -0.7565  0.9998
   79SLPC  C211 7271  -0.091   2.944   7.952 -0.0343 -0.2097 -0.6625
   79SLPC  H11R 7272  -0.002   3.002   7.984  1.7814 -4.3081  2.5545
   79SLPC  H11S 7273  -0.060   2.841   7.929 -0.9064 -0.9964  1.4311
   79SLPC  C212 7274  -0.189   2.947   8.073  0.4940 -0.4252 -0.4540
   79SLPC  H12R 7275  -0.272   3.019   8.066  1.7913  1.1278 -0.2740
   79SLPC  C213 7276  -0.187   2.865   8.173 -0.1751 -0.5320 -0.2346
   79SLPC  H13R 7277  -0.271   2.872   8.243 -1.9724 -0.5964 -2.2872
   79SLPC  C214 7278  -0.094   2.745   8.198  0.9859  0.3437 -0.1367
   79SLPC  H14R 7279   0.014   2.771   8.198  1.2534 -0.6809  0.6938
   79SLPC  H14S 7280  -0.109   2.658   8.131 -1.7399  0.6144  0.0163
   79SLPC  C215 7281  -0.112   2.684   8.341 -0.1410 -0.2660 -0.7676
   79SLPC  H15R 7282  -0.118   2.762   8.420  0.0991 -1.4635  0.4629
   79SLPC  H15S 7283  -0.027   2.625   8.380 -1.2945 -2.1536 -0.9355
   79SLPC  C216 7284  -0.245   2.602   8.348  0.4930 -0.3602  0.1408
   79SLPC  H16R 7285  -0.252   2.532   8.262  1.5354 -0.5440  0.1962
   79SLPC  H16S 7286  -0.316   2.685   8.333  0.0229 -1.2412 -3.2992
   79SLPC  C217 7287  -0.277   2.530   8.474 -0.5841 -0.5028 -0.3801
   79SLPC  H17R 7288  -0.194   2.456   8.484 -0.8350 -0.8850 -1.0755
   79SLPC  H17S 7289  -0.366   2.467   8.454 -0.1828 -0.9344 -0.8148
   79SLPC  C218 7290  -0.292   2.610   8.603  0.1875  0.4921  0.1128
   79SLPC  H18R 7291  -0.189   2.648   8.623  1.0822 -1.2923 -0.8714
   79SLPC  H18S 7292  -0.323   2.548   8.689  0.6893  0.9985  0.6696
   79SLPC  H18T 7293  -0.365   2.694   8.598 -1.7987 -1.0711  1.3107
   79SLPC   C33 7294   0.033   2.359   7.436  0.2735 -0.1895  0.4254
   79SLPC   H3X 7295   0.129   2.303   7.434  0.5268  0.2511 -0.3917
   79SLPC   H3Y 7296  -0.050   2.285   7.439  0.1524 -0.0532  3.2677
   79SLPC   C34 7297   0.017   2.433   7.567 -0.2433 -0.6472  0.8250
   79SLPC   H4X 7298  -0.074   2.496   7.555 -0.1454 -0.7540 -0.5528
   79SLPC   H4Y 7299   0.096   2.506   7.592 -0.8643 -0.5901  2.7987
   79SLPC   C35 7300  -0.003   2.332   7.678  0.3650 -0.1977 -0.0418
   79SLPC   H5X 7301   0.080   2.258   7.679  2.3002  1.8552  0.8783
   79SLPC   H5Y 7302  -0.098   2.290   7.638 -0.6864  0.9330  1.1430
   79SLPC   C36 7303  -0.039   2.403   7.807  0.3347  0.0810  0.2013
   79SLPC   H6X 7304  -0.119   2.480   7.796  1.3657  1.1618  0.0954
   79SLPC   H6Y 7305   0.047   2.452   7.857  0.8508 -0.2125 -0.3820
   79SLPC   C37 7306  -0.098   2.303   7.904 -0.0822 -0.7312 -0.1840
   79SLPC   H7X 7307  -0.010   2.241   7.932  0.6276  0.8587  1.3133
   79SLPC   H7Y 7308  -0.176   2.243   7.853 -1.1896  1.5660 -1.3597
   79SLPC   C38 7309  -0.141   2.365   8.039  0.2924 -0.4669 -0.3852
   79SLPC   H8X 7310  -0.234   2.426   8.045  1.1692  1.2666 -2.7281
   79SLPC   H8Y 7311  -0.062   2.434   8.076 -1.5976  1.9095 -0.4979
   79SLPC   C39 7312  -0.161   2.245   8.130  1.2229  0.1980 -0.7865
   79SLPC   H9X 7313  -0.148   2.278   8.236 -4.0056  1.8317 -0.3654
   79SLPC   H9Y 7314  -0.081   2.173   8.101  2.1698  0.3610  1.1980
   79SLPC  C310 7315  -0.292   2.168   8.114  0.7746  0.0556 -0.7332
   79SLPC  H10X 7316  -0.304   2.120   8.015  0.0202  0.3276 -0.7730
   79SLPC  H10Y 7317  -0.383   2.229   8.129  1.2808  0.1071  3.1171
   79SLPC  C311 7318  -0.301   2.046   8.209  0.0824 -0.5693 -0.8283
   79SLPC  H11X 7319  -0.205   1.991   8.204  0.3918  0.0120 -1.5552
   79SLPC  H11Y 7320  -0.386   1.985   8.173 -0.0190 -0.7759 -0.2305
   79SLPC  C312 7321  -0.341   2.069   8.358  0.6672 -0.5688  0.2493
   79SLPC  H12X 7322  -0.447   2.102   8.361  0.7517 -0.3639  1.6119
   79SLPC  H12Y 7323  -0.277   2.152   8.394 -0.9386  0.8196 -0.0023
   79SLPC  C313 7324  -0.318   1.945   8.444 -0.4190  0.8611 -0.1594
   79SLPC  H13X 7325  -0.208   1.928   8.444 -0.3990  0.7890  1.8009
   79SLPC  H13Y 7326  -0.364   1.860   8.390  1.0899 -0.2419  0.2301
   79SLPC  C314 7327  -0.372   1.962   8.583 -0.4238 -0.3070 -0.4194
   79SLPC  H14X 7328  -0.480   1.988   8.580  0.0517  1.8306 -0.2505
   79SLPC  H14Y 7329  -0.323   2.052   8.626 -0.4468  0.1614 -1.3456
   79SLPC  C315 7330  -0.353   1.836   8.660 -1.0784  0.0209 -0.7569
   79SLPC  H15X 7331  -0.242   1.829   8.666 -0.9103 -0.1770 -3.1851
   79SLPC  H15Y 7332  -0.386   1.747   8.602 -1.2765 -0.4101 -0.0012
   79SLPC  C316 7333  -0.413   1.853   8.803  0.4510 -0.3438  0.0640
   79SLPC  H16X 7334  -0.396   1.760   8.861  0.3474 -0.9238 -0.8181
   79SLPC  H16Y 7335  -0.524   1.854   8.788  0.5520 -0.0130 -0.7307
   79SLPC  C317 7336  -0.369   1.984   8.871 -0.1414 -0.3900  0.1142
   79SLPC  H17X 7337  -0.408   2.078   8.826  1.8898  0.3856 -0.1275
   79SLPC  H17Y 7338  -0.260   1.997   8.857  0.0054 -1.7160 -0.0544
   79SLPC  C318 7339  -0.408   1.983   9.021 -0.3748 -0.4365 -0.3675
   79SLPC  H18X 7340  -0.353   1.904   9.077 -0.9459  0.8964  2.1852
   79SLPC  H18Y 7341  -0.515   1.956   9.029 -0.1069 -1.3159  0.4435
   79SLPC  H18Z 7342  -0.399   2.083   9.067 -3.4970  0.3016 -1.1832
   80SLPC     N 7343   1.715   0.029   6.081 -0.2418  0.6435 -0.3381
   80SLPC   C13 7344   1.573   0.044   6.067  0.2362 -0.2675  0.6352
   80SLPC  H13A 7345   1.548   0.146   6.088 -1.6204 -1.0786  2.7304
   80SLPC  H13B 7346   1.542   0.019   5.966 -0.1105  1.0055  0.4102
   80SLPC  H13C 7347   1.520  -0.028   6.127  0.4872 -1.4081 -0.4518
   80SLPC   C14 7348   1.789   0.105   5.973 -0.6228  0.3837 -0.2294
   80SLPC  H14A 7349   1.766   0.059   5.878  1.8198  0.6713 -1.0273
   80SLPC  H14B 7350   1.770   0.211   5.969  0.9070  0.6720 -0.5770
   80SLPC  H14C 7351   1.893   0.093   5.997 -0.8429  0.0116  0.5937
   80SLPC   C15 7352   1.751  -0.117   6.076 -0.5161 -0.2692  1.0036
   80SLPC  H15A 7353   1.717  -0.159   5.982 -1.1081 -1.5264  1.7597
   80SLPC  H15B 7354   1.857  -0.138   6.088 -0.4165  0.7324  1.9222
   80SLPC  H15C 7355   1.697  -0.168   6.154  0.1699 -0.3995  1.4050
   80SLPC   C12 7356   1.763   0.068   6.226 -0.4139 -0.0767 -0.0920
   80SLPC  H12A 7357   1.870   0.053   6.234 -0.6767 -2.1308  0.1552
   80SLPC  H12B 7358   1.724  -0.022   6.271  0.3202 -2.4052 -3.6399
   80SLPC   C11 7359   1.726   0.204   6.287  0.1484 -0.3954  0.4701
   80SLPC  H11A 7360   1.743   0.208   6.397 -0.3141 -0.1457  0.5363
   80SLPC  H11B 7361   1.618   0.227   6.274  0.4184  0.0637 -1.3349
   80SLPC     P 7362   1.778   0.464   6.258  0.5305  0.1376  0.2948
   80SLPC   O13 7363   1.896   0.547   6.216 -0.2130  0.7794 -0.5511
   80SLPC   O14 7364   1.648   0.508   6.211  0.5295 -0.2047  0.6412
   80SLPC   O12 7365   1.797   0.305   6.221  0.2635 -0.1679  0.0694
   80SLPC   O11 7366   1.774   0.457   6.409 -1.1366  0.2439 -0.5915
   80SLPC    C1 7367   1.881   0.417   6.500  1.0767 -0.3974  0.1613
   80SLPC    HA 7368   1.945   0.343   6.447  2.0106 -0.7754  1.7426
   80SLPC    HB 7369   1.955   0.498   6.516  0.1188  0.3618  0.8413
   80SLPC    C2 7370   1.827   0.357   6.629  0.6923  0.6662  0.7974
   80SLPC    HS 7371   1.783   0.260   6.596  4.1777 -0.1242 -2.2017
   80SLPC   O21 7372   1.735   0.448   6.694  0.0206  0.0189 -0.0802
   80SLPC   C21 7373   1.629   0.384   6.751  0.5371  0.0211 -0.0720
   80SLPC   O22 7374   1.612   0.265   6.749 -0.5588  0.1142  0.0451
   80SLPC   C22 7375   1.546   0.484   6.835 -0.1315 -0.0457 -0.0607
   80SLPC   H2R 7376   1.623   0.552   6.876  2.3356 -3.6995  1.8910
   80SLPC   H2S 7377   1.474   0.533   6.766  0.0048 -0.9372 -0.8590
   80SLPC    C3 7378   1.949   0.319   6.723 -0.3768 -0.2308 -0.1672
   80SLPC    HX 7379   1.989   0.422   6.725 -2.5080  0.6302 -0.1748
   80SLPC    HY 7380   2.025   0.255   6.673  2.9814  2.0624  1.6513
   80SLPC   O31 7381   1.916   0.279   6.864 -0.2968  0.1727  0.2133
   80SLPC   C31 7382   1.897   0.146   6.862  0.4063  0.2076 -0.5936
   80SLPC   O32 7383   1.912   0.065   6.772  0.2150  0.0095 -0.5683
   80SLPC   C32 7384   1.874   0.102   7.006 -0.0337  0.3915  0.1307
   80SLPC   H2X 7385   1.944   0.017   7.022 -0.9137 -0.3892 -0.0724
   80SLPC   H2Y 7386   1.777   0.049   7.007  1.1381 -1.9717  2.3690
   80SLPC   C23 7387   1.453   0.422   6.940 -0.4626  0.2186 -0.2920
   80SLPC   H3R 7388   1.385   0.336   6.920 -0.5360  0.2890 -0.3474
   80SLPC   H3S 7389   1.388   0.509   6.964 -0.4093  0.7174 -1.8523
   80SLPC   C24 7390   1.534   0.387   7.063 -0.2309  0.2945  0.1947
   80SLPC   H4R 7391   1.622   0.454   7.076  1.9700 -2.0921 -1.3221
   80SLPC   H4S 7392   1.572   0.282   7.063 -1.0393 -0.0115  1.0810
   80SLPC   C25 7393   1.447   0.407   7.193 -0.7317  0.3106 -0.8194
   80SLPC   H5R 7394   1.349   0.362   7.165  0.4174 -2.4181 -0.8212
   80SLPC   H5S 7395   1.423   0.514   7.209 -0.5439  0.4693 -1.5514
   80SLPC   C26 7396   1.501   0.339   7.316 -0.3723  0.4626 -0.2818
   80SLPC   H6R 7397   1.581   0.407   7.350 -0.3335  0.2082  0.1334
   80SLPC   H6S 7398   1.541   0.239   7.290  2.9008  1.2002  1.3918
   80SLPC   C27 7399   1.401   0.308   7.419  0.1722 -0.9031 -0.5462
   80SLPC   H7R 7400   1.308   0.292   7.359  0.5210 -0.5635 -1.1912
   80SLPC   H7S 7401   1.388   0.404   7.473 -0.3920 -1.2103 -0.1226
   80SLPC   C28 7402   1.426   0.180   7.503 -0.5653  0.4804  0.2553
   80SLPC   H8R 7403   1.505   0.214   7.574 -1.9016  3.0125  0.6541
   80SLPC   H8S 7404   1.457   0.095   7.439 -1.6390 -0.8972  1.4857
   80SLPC   C29 7405   1.305   0.139   7.582  0.1686  0.0441 -0.6813
   80SLPC   H9R 7406   1.238   0.063   7.540 -0.4441 -1.0112  1.9902
   80SLPC  C210 7407   1.265   0.179   7.705 -0.0172 -0.4599  0.6493
   80SLPC  H10R 7408   1.187   0.115   7.748 -0.8789 -0.2759 -0.5659
   80SLPC  C211 7409   1.344   0.269   7.796  0.0769 -0.1503  0.4950
   80SLPC  H11R 7410   1.275   0.310   7.873 -0.2362  1.5270 -0.6105
   80SLPC  H11S 7411   1.378   0.355   7.734  0.1321 -1.5650 -1.5478
   80SLPC  C212 7412   1.464   0.209   7.864 -0.7381  0.3804 -0.2262
   80SLPC  H12R 7413   1.550   0.174   7.804  0.9476 -1.2857  2.8967
   80SLPC  C213 7414   1.485   0.197   7.994 -0.0415  0.3524  0.3448
   80SLPC  H13R 7415   1.586   0.178   8.032  0.5053  0.0741 -1.1707
   80SLPC  C214 7416   1.382   0.236   8.096 -0.4844  0.0807 -0.5672
   80SLPC  H14R 7417   1.380   0.162   8.179  0.0888 -1.7008 -2.0762
   80SLPC  H14S 7418   1.276   0.229   8.062 -1.0567  1.1838  0.8760
   80SLPC  C215 7419   1.413   0.373   8.158 -0.2124  0.0460  0.3898
   80SLPC  H15R 7420   1.323   0.424   8.199  0.3775  3.3242 -2.0583
   80SLPC  H15S 7421   1.450   0.429   8.070 -0.6285 -0.5127 -0.1465
   80SLPC  C216 7422   1.539   0.384   8.243  0.4614  0.3372 -0.0108
   80SLPC  H16R 7423   1.585   0.485   8.240  1.3418  0.0587  2.1996
   80SLPC  H16S 7424   1.620   0.324   8.196  0.0838  1.4628 -2.2621
   80SLPC  C217 7425   1.517   0.332   8.383 -0.8758  0.3703  0.0459
   80SLPC  H17R 7426   1.610   0.350   8.442 -0.2134 -2.4795  0.0222
   80SLPC  H17S 7427   1.498   0.223   8.388 -0.0627  0.2099 -0.1808
   80SLPC  C218 7428   1.410   0.402   8.466  0.5116 -0.5161 -0.1194
   80SLPC  H18R 7429   1.312   0.363   8.431  0.5563  1.4731 -2.7900
   80SLPC  H18S 7430   1.406   0.513   8.455 -2.4506 -0.4977  0.2438
   80SLPC  H18T 7431   1.410   0.371   8.573 -0.7005 -2.7163 -0.7034
   80SLPC   C33 7432   1.887   0.198   7.127  0.1465  0.0921  0.3291
   80SLPC   H3X 7433   1.813   0.281   7.119  0.9593  0.6395 -3.0485
   80SLPC   H3Y 7434   1.983   0.254   7.130  0.5939 -0.6699  0.4884
   80SLPC   C34 7435   1.860   0.119   7.255 -0.8358 -0.2019 -0.2701
   80SLPC   H4X 7436   1.922   0.027   7.263 -1.3165 -0.4269  1.1243
   80SLPC   H4Y 7437   1.757   0.078   7.247 -1.9171  2.0077  1.3569
   80SLPC   C35 7438   1.871   0.197   7.387  0.2696 -0.1039 -0.5459
   80SLPC   H5X 7439   1.788   0.270   7.404 -0.4632 -1.2822  1.2370
   80SLPC   H5Y 7440   1.968   0.252   7.392  1.2220 -1.8078  0.4514
   80SLPC   C36 7441   1.857   0.105   7.513  0.1301 -0.2430 -1.0161
   80SLPC   H6X 7442   1.947   0.045   7.535  1.1880  1.8347  0.6515
   80SLPC   H6Y 7443   1.768   0.038   7.503  0.0380 -0.5592  1.3469
   80SLPC   C37 7444   1.840   0.185   7.642 -0.3331  0.7077 -0.5420
   80SLPC   H7X 7445   1.753   0.254   7.638 -0.9688 -0.0829 -0.5948
   80SLPC   H7Y 7446   1.934   0.244   7.644  0.0025  0.2016 -1.0488
   80SLPC   C38 7447   1.841   0.089   7.767 -0.2043 -0.7296  0.6622
   80SLPC   H8X 7448   1.913   0.005   7.754 -0.8696 -0.9931 -1.9476
   80SLPC   H8Y 7449   1.742   0.044   7.788 -0.5424  0.0559  0.7868
   80SLPC   C39 7450   1.878   0.164   7.897 -0.4327 -1.2647 -1.1888
   80SLPC   H9X 7451   1.829   0.263   7.904  0.8200 -0.4440 -3.0224
   80SLPC   H9Y 7452   1.986   0.189   7.891 -0.8541  0.3936 -2.5117
   80SLPC  C310 7453   1.844   0.086   8.034 -0.4611  0.6649  0.1252
   80SLPC  H10X 7454   1.916   0.002   8.031 -1.1508  0.0882 -0.9378
   80SLPC  H10Y 7455   1.738   0.057   8.022 -0.5566  1.9278 -3.2342
   80SLPC  C311 7456   1.878   0.174   8.159  0.1633  0.1557 -0.4218
   80SLPC  H11X 7457   1.827   0.272   8.144 -1.8460 -0.9160 -1.0385
   80SLPC  H11Y 7458   1.987   0.192   8.159 -0.0262  1.4220 -1.2237
   80SLPC  C312 7459   1.832   0.097   8.287 -0.5461  0.3626 -0.8583
   80SLPC  H12X 7460   1.871  -0.007   8.290  0.6837  0.7450 -2.0054
   80SLPC  H12Y 7461   1.722   0.091   8.280 -0.6637 -0.3975  1.1642
   80SLPC  C313 7462   1.872   0.183   8.408 -0.0287 -0.1389  0.0379
   80SLPC  H13X 7463   1.797   0.265   8.411  0.1904  0.0943 -0.8244
   80SLPC  H13Y 7464   1.967   0.239   8.414 -0.1119  0.0240 -0.1456
   80SLPC  C314 7465   1.859   0.104   8.535  0.4305  0.4115  0.1041
   80SLPC  H14X 7466   1.942   0.030   8.541  0.7069  0.8629  3.1747
   80SLPC  H14Y 7467   1.771   0.036   8.531  1.5759 -1.3038  2.0920
   80SLPC  C315 7468   1.859   0.192   8.665  0.0987 -1.0489 -0.9333
   80SLPC  H15X 7469   1.808   0.287   8.640 -0.1502 -0.8918  0.1299
   80SLPC  H15Y 7470   1.960   0.229   8.692 -0.6413  0.2588  0.1633
   80SLPC  C316 7471   1.807   0.114   8.785  0.1563  0.6256  0.3643
   80SLPC  H16X 7472   1.844   0.009   8.793  1.4968  1.1896  2.2477
   80SLPC  H16Y 7473   1.698   0.106   8.765  0.8480 -1.1976 -3.5246
   80SLPC  C317 7474   1.851   0.174   8.920 -0.2171 -0.7045 -0.9694
   80SLPC  H17X 7475   1.822   0.281   8.914 -0.2341 -0.6973 -0.7552
   80SLPC  H17Y 7476   1.959   0.155   8.938 -0.8077 -2.5253  1.0079
   80SLPC  C318 7477   1.780   0.111   9.038 -0.4732 -0.5149 -1.0805
   80SLPC  H18X 7478   1.669   0.110   9.028 -0.6571  1.0367  0.2570
   80SLPC  H18Y 7479   1.807   0.170   9.129  0.6782 -3.9967  1.0413
   80SLPC  H18Z 7480   1.810   0.005   9.054  1.2026  0.0595 -0.1659
   81SAPS     N 7481   3.006   3.083  11.170  0.8139 -0.2963  0.5358
   81SAPS   HN1 7482   2.993   3.081  11.273 -1.0921 -3.2600  0.3558
   81SAPS   HN2 7483   3.010   2.982  11.145  0.4238  0.0844 -1.2416
   81SAPS   HN3 7484   3.096   3.125  11.138 -0.8639  2.1531 -1.3381
   81SAPS   C12 7485   2.896   3.152  11.102  0.1372  0.9237  0.4615
   81SAPS  H12A 7486   2.914   3.136  10.997  0.3008  0.2678  0.5795
   81SAPS   C13 7487   2.751   3.092  11.119 -0.2346 -0.6015 -0.0176
   81SAPS  O13A 7488   2.729   2.998  11.199 -0.0110 -0.6021 -0.3065
   81SAPS  O13B 7489   2.665   3.133  11.039 -0.3473  0.1066  0.1933
   81SAPS   C11 7490   2.904   3.297  11.155  0.0802 -0.0223 -0.1593
   81SAPS  H11A 7491   2.894   3.303  11.265  1.0158 -2.7115  0.1612
   81SAPS  H11B 7492   2.823   3.358  11.110  0.5300  2.2396  1.8817
   81SAPS     P 7493   3.049   3.496  11.055  0.0924  0.1505  0.2126
   81SAPS   O13 7494   2.972   3.588  11.147  0.1597  0.4397 -0.4314
   81SAPS   O14 7495   3.193   3.530  11.046 -0.2080 -0.2399  0.5893
   81SAPS   O12 7496   3.035   3.346  11.104  0.4919  0.2774 -0.4893
   81SAPS   O11 7497   2.983   3.486  10.908 -0.1336 -0.3688  0.1464
   81SAPS    C1 7498   3.023   3.586  10.808  0.2012  0.2195  1.0324
   81SAPS    HA 7499   3.128   3.620  10.814 -0.0015  1.4804 -1.2436
   81SAPS    HB 7500   3.011   3.529  10.713  1.5465 -1.1287  1.6284
   81SAPS    C2 7501   2.935   3.711  10.793  0.4341  0.8709  0.9290
   81SAPS    HS 7502   2.949   3.762  10.891 -2.4916  2.8212  0.4607
   81SAPS   O21 7503   2.801   3.665  10.777 -0.4422  0.3979 -0.3945
   81SAPS   C21 7504   2.710   3.759  10.821 -0.1678  0.4532 -0.3888
   81SAPS   O22 7505   2.743   3.868  10.868  0.4350  0.3763 -0.1867
   81SAPS   C22 7506   2.568   3.706  10.808  0.8012  0.1926  0.5081
   81SAPS   H2R 7507   2.538   3.648  10.898 -1.2149  0.3659 -0.0166
   81SAPS   H2S 7508   2.512   3.802  10.806  0.1613 -0.1819  0.4267
   81SAPS    C3 7509   2.968   3.803  10.665  0.5905  0.3398  0.1071
   81SAPS    HX 7510   3.073   3.836  10.680  0.1439  1.3885  1.1109
   81SAPS    HY 7511   2.902   3.892  10.660 -0.1872 -0.1392  1.3506
   81SAPS   O31 7512   2.962   3.732  10.538 -0.3476 -0.2002 -0.1678
   81SAPS   C31 7513   2.873   3.763  10.448  0.1327  0.4685 -0.6236
   81SAPS   O32 7514   2.787   3.851  10.458 -0.4429  0.0107  0.2994
   81SAPS   C32 7515   2.875   3.653  10.342  0.5040 -0.1736  0.2508
   81SAPS   H2X 7516   2.797   3.578  10.369  2.1512 -2.9651 -2.1902
   81SAPS   H2Y 7517   2.968   3.592  10.348  0.6125  0.0084  0.4418
   81SAPS   C23 7518   2.547   3.640  10.670  0.0882 -0.5963 -0.6455
   81SAPS   H3R 7519   2.599   3.542  10.665  0.4613 -0.5750  1.5707
   81SAPS   H3S 7520   2.580   3.706  10.588 -4.2354  2.1634 -0.4433
   81SAPS   C24 7521   2.395   3.616  10.639  0.2334 -0.5734  0.2742
   81SAPS   H4R 7522   2.375   3.604  10.531 -1.5323  0.2775  0.4600
   81SAPS   H4S 7523   2.336   3.707  10.667  1.1460  0.9314 -2.3832
   81SAPS   C25 7524   2.339   3.503  10.726 -0.1182 -0.2184  0.6790
   81SAPS   H5R 7525   2.393   3.507  10.822 -1.2557  0.6821  1.3149
   81SAPS   C26 7526   2.232   3.433  10.697 -0.4207 -0.1911  0.0515
   81SAPS   H6R 7527   2.206   3.348  10.762 -0.3098  2.4292  3.8546
   81SAPS   C27 7528   2.140   3.450  10.578 -0.0315 -0.7621 -0.1636
   81SAPS   H7R 7529   2.187   3.504  10.493  0.1714 -2.8778 -1.4383
   81SAPS   H7S 7530   2.075   3.535  10.610  1.7266  0.3191  0.6590
   81SAPS   C28 7531   2.061   3.329  10.534 -0.3166  0.1784  0.5063
   81SAPS   H8R 7532   2.048   3.250  10.610 -0.3986  2.0163  2.5189
   81SAPS   C29 7533   2.022   3.315  10.408  0.9964 -0.2771 -0.6289
   81SAPS   H9R 7534   1.963   3.224  10.387 -1.4952  1.4526 -1.5507
   81SAPS  C210 7535   2.024   3.403  10.281 -0.1492  0.5223 -0.1530
   81SAPS  H10R 7536   2.045   3.344  10.189 -0.1104  1.8266 -1.0066
   81SAPS  H10S 7537   2.116   3.465  10.286  0.2520 -0.0079 -0.8048
   81SAPS  C211 7538   1.889   3.466  10.260  1.1620  0.2034 -0.2468
   81SAPS  H11R 7539   1.839   3.498  10.353 -2.5255 -0.8525 -1.7004
   81SAPS  C212 7540   1.810   3.477  10.144 -0.0410 -0.4326 -0.3646
   81SAPS  H12R 7541   1.713   3.529  10.149 -0.3268 -0.8681 -1.0894
   81SAPS  C213 7542   1.856   3.433  10.006  0.5396  0.1903 -0.6699
   81SAPS  H13R 7543   1.811   3.333   9.987  2.6480 -0.8284 -0.6129
   81SAPS  H13S 7544   1.962   3.399  10.011  0.5652  0.4342  1.6266
   81SAPS  C214 7545   1.824   3.530   9.899 -0.7746 -0.1780 -0.2736
   81SAPS  H14R 7546   1.719   3.564   9.900 -0.7208  0.0115  1.2429
   81SAPS  C215 7547   1.903   3.574   9.798  0.2884  0.2650  0.3348
   81SAPS  H15R 7548   1.856   3.632   9.718 -2.0002 -1.7289  0.1064
   81SAPS  C216 7549   2.043   3.531   9.777 -0.1506 -0.3262  0.8451
   81SAPS  H16R 7550   2.051   3.421   9.795  0.7238 -0.8292 -2.0927
   81SAPS  H16S 7551   2.120   3.577   9.843  0.4706 -1.6133  1.0456
   81SAPS  C217 7552   2.090   3.536   9.627  0.1574 -0.3035 -0.3514
   81SAPS  H17R 7553   2.197   3.505   9.631  0.3748  0.1293 -1.9829
   81SAPS  H17S 7554   2.085   3.646   9.609 -1.8520  0.0090  1.6767
   81SAPS  C218 7555   2.008   3.448   9.531 -0.7941 -0.1446 -0.0845
   81SAPS  H18R 7556   1.905   3.485   9.511 -1.2613 -1.9625 -1.2928
   81SAPS  H18S 7557   1.985   3.350   9.579  1.3505 -0.4014  0.5178
   81SAPS  C219 7558   2.083   3.404   9.406 -0.0550  0.2647  0.2873
   81SAPS  H19R 7559   2.130   3.304   9.415  0.4361  0.2455 -1.8218
   81SAPS  H19S 7560   2.170   3.472   9.391  0.1200  0.6244  2.6131
   81SAPS  C220 7561   1.989   3.379   9.276  0.4438 -0.4009 -0.2738
   81SAPS  H20R 7562   1.916   3.463   9.278  0.4302 -0.4078 -0.4923
   81SAPS  H20S 7563   1.945   3.277   9.278  0.3360 -0.3986 -1.6617
   81SAPS  H20T 7564   2.048   3.396   9.184 -0.0422  3.6572  0.0029
   81SAPS   C33 7565   2.859   3.703  10.198  0.5486 -0.3253 -0.4078
   81SAPS   H3X 7566   2.932   3.783  10.173  0.2749  0.4414  1.1065
   81SAPS   H3Y 7567   2.761   3.752  10.183  0.1239 -0.2662  2.0991
   81SAPS   C34 7568   2.883   3.594  10.089  0.1680 -0.3324 -1.0512
   81SAPS   H4X 7569   2.811   3.511  10.105  0.8826 -0.8355 -0.3897
   81SAPS   H4Y 7570   2.980   3.542  10.102  0.8320  0.9727 -0.5602
   81SAPS   C35 7571   2.875   3.653   9.950  0.4462 -0.0440  0.2361
   81SAPS   H5X 7572   2.971   3.697   9.916  0.2133  1.8976  1.8853
   81SAPS   H5Y 7573   2.807   3.741   9.954  0.6018  0.0728  0.3327
   81SAPS   C36 7574   2.838   3.560   9.834  0.1344  0.3510  0.1577
   81SAPS   H6X 7575   2.741   3.522   9.872 -1.0211 -0.7200 -3.4822
   81SAPS   H6Y 7576   2.902   3.470   9.828  0.4895  0.6079  0.0783
   81SAPS   C37 7577   2.799   3.625   9.707 -0.7454 -0.5548 -0.6191
   81SAPS   H7X 7578   2.749   3.720   9.734 -1.0974 -1.7930  3.7175
   81SAPS   H7Y 7579   2.716   3.569   9.659 -1.8885 -0.8469  1.5707
   81SAPS   C38 7580   2.914   3.638   9.608  0.5086  0.1581 -0.2842
   81SAPS   H8X 7581   2.960   3.538   9.593 -0.8768 -0.5514  0.0466
   81SAPS   H8Y 7582   2.992   3.711   9.642  0.6088  0.9603 -2.0981
   81SAPS   C39 7583   2.854   3.686   9.475  0.1898  0.0901 -0.3952
   81SAPS   H9X 7584   2.800   3.780   9.497  1.5733  1.4082 -2.3048
   81SAPS   H9Y 7585   2.779   3.613   9.438  0.1829  0.7093 -1.6833
   81SAPS  C310 7586   2.955   3.705   9.364 -0.1245 -0.1550  0.0713
   81SAPS  H10X 7587   3.023   3.618   9.351 -0.3049 -0.1008 -1.3753
   81SAPS  H10Y 7588   3.010   3.800   9.378 -1.4368  0.4880  1.1244
   81SAPS  C311 7589   2.877   3.721   9.232 -0.0359  0.8777  0.0502
   81SAPS  H11X 7590   2.817   3.815   9.234 -1.0132  0.2588  0.9246
   81SAPS  H11Y 7591   2.818   3.627   9.219  1.3583  0.1174 -1.0863
   81SAPS  C312 7592   2.963   3.743   9.108  0.6510 -0.2421  0.7771
   81SAPS  H12X 7593   3.005   3.647   9.071  0.1275  0.3433 -1.5167
   81SAPS  H12Y 7594   3.053   3.801   9.139  2.6627 -2.2104 -1.0156
   81SAPS  C313 7595   2.888   3.805   8.987  0.6395 -0.2239 -0.3225
   81SAPS  H13X 7596   2.963   3.821   8.906 -1.0660 -0.0758 -1.9437
   81SAPS  H13Y 7597   2.841   3.901   9.016  1.8179  0.1336  0.4591
   81SAPS  C314 7598   2.781   3.711   8.929  0.3208  0.1620 -0.2654
   81SAPS  H14X 7599   2.711   3.716   9.015 -0.5588 -0.6879 -0.9029
   81SAPS  H14Y 7600   2.820   3.607   8.918  0.9939  0.3720  0.1086
   81SAPS  C315 7601   2.720   3.750   8.794  0.0380 -0.2408 -0.2607
   81SAPS  H15X 7602   2.642   3.672   8.779  1.4178 -1.4320 -1.5249
   81SAPS  H15Y 7603   2.793   3.736   8.711 -0.8848 -0.8529 -0.9867
   81SAPS  C316 7604   2.643   3.884   8.798 -0.3826 -0.1712  1.0487
   81SAPS  H16X 7605   2.712   3.969   8.785  1.6507 -1.6384  1.7284
   81SAPS  H16Y 7606   2.583   3.890   8.891 -0.7139  2.1228  0.7366
   81SAPS  C317 7607   2.547   3.889   8.678  0.9137  0.1524 -0.0644
   81SAPS  H17X 7608   2.467   3.813   8.689  1.6920 -0.4260  2.1271
   81SAPS  H17Y 7609   2.595   3.866   8.581  0.2886  0.7174 -0.5239
   81SAPS  C318 7610   2.475   4.027   8.665 -0.6289 -0.5972  0.3544
   81SAPS  H18X 7611   2.396   4.031   8.587 -0.0046  1.6392 -0.2376
   81SAPS  H18Y 7612   2.548   4.099   8.623  0.3639 -0.8565  1.5602
   81SAPS  H18Z 7613   2.442   4.074   8.760 -2.1838 -0.1622 -0.3749
   82SAPS     N 7614   0.431   4.263  11.017 -0.3222 -0.0605 -0.3609
   82SAPS   HN1 7615   0.385   4.307  10.935 -0.2067  0.0063 -0.3902
   82SAPS   HN2 7616   0.355   4.240  11.084 -1.0894 -0.4762 -1.3493
   82SAPS   HN3 7617   0.496   4.332  11.060 -1.1802  0.0492  0.7862
   82SAPS   C12 7618   0.503   4.143  10.971 -0.2574  0.5714 -0.1576
   82SAPS  H12A 7619   0.545   4.095  11.058 -2.6946  0.1677  0.9016
   82SAPS   C13 7620   0.404   4.037  10.904  0.2212 -0.1490 -0.1859
   82SAPS  O13A 7621   0.280   4.069  10.897 -0.2484  0.0459  0.9084
   82SAPS  O13B 7622   0.437   3.926  10.855 -0.0171 -0.4660  0.2762
   82SAPS   C11 7623   0.618   4.174  10.868  0.3499 -0.6001  0.7446
   82SAPS  H11A 7624   0.578   4.216  10.773 -1.1089  0.2420  1.6895
   82SAPS  H11B 7625   0.662   4.078  10.833  1.9709  0.1375  0.6825
   82SAPS     P 7626   0.837   4.216  10.995 -0.2744  0.0784  0.0547
   82SAPS   O13 7627   0.892   4.323  11.085  0.1648 -0.3762 -0.8094
   82SAPS   O14 7628   0.810   4.082  11.060 -0.6386 -0.1340  0.3130
   82SAPS   O12 7629   0.713   4.268  10.915  0.3407  0.1717 -0.7350
   82SAPS   O11 7630   0.944   4.193  10.883  0.2934 -0.8126 -0.1635
   82SAPS    C1 7631   0.993   4.308  10.809  0.6733  0.0959 -0.0775
   82SAPS    HA 7632   0.954   4.405  10.846  0.5293  0.5577 -1.4066
   82SAPS    HB 7633   1.104   4.315  10.812  0.6081  1.3275  0.0266
   82SAPS    C2 7634   0.961   4.302  10.656 -0.2556 -0.2344 -0.0940
   82SAPS    HS 7635   0.994   4.393  10.601  2.7486 -0.1535  1.6103
   82SAPS   O21 7636   0.817   4.267  10.631 -0.3661 -0.7904 -0.5170
   82SAPS   C21 7637   0.770   4.324  10.524 -0.1595 -0.2240 -0.1386
   82SAPS   O22 7638   0.828   4.405  10.459 -0.5491 -0.3676 -0.1808
   82SAPS   C22 7639   0.623   4.290  10.499 -0.4342  0.2283  0.0320
   82SAPS   H2R 7640   0.606   4.180  10.499  0.0637  0.1426 -0.7114
   82SAPS   H2S 7641   0.567   4.333  10.584  0.8338 -1.1693  1.6467
   82SAPS    C3 7642   1.041   4.195  10.587  0.3077  0.7080 -1.1134
   82SAPS    HX 7643   1.017   4.095  10.629  0.1313  0.3962 -1.9415
   82SAPS    HY 7644   1.147   4.204  10.619 -0.6261 -0.0735  2.6795
   82SAPS   O31 7645   1.015   4.184  10.446 -0.8038  0.7003  0.6738
   82SAPS   C31 7646   1.078   4.264  10.365 -0.3160 -0.0344 -0.5625
   82SAPS   O32 7647   1.168   4.341  10.397  0.2040 -0.1314 -0.1157
   82SAPS   C32 7648   1.021   4.227  10.230 -0.6329 -0.0131  0.2310
   82SAPS   H2X 7649   0.921   4.270  10.210 -0.0039  0.9043 -1.0658
   82SAPS   H2Y 7650   1.032   4.118  10.211 -0.4220  0.4848 -2.9603
   82SAPS   C23 7651   0.581   4.342  10.352 -0.3704  0.8231 -0.2426
   82SAPS   H3R 7652   0.658   4.299  10.284  1.0196 -1.2933  2.4638
   82SAPS   H3S 7653   0.579   4.451  10.334  1.1737  0.9745  0.3181
   82SAPS   C24 7654   0.442   4.269  10.331  0.1954  0.0946  0.4225
   82SAPS   H4R 7655   0.387   4.330  10.406  1.6840 -0.2503  1.8639
   82SAPS   H4S 7656   0.429   4.164  10.365 -3.6730 -0.9233 -3.2793
   82SAPS   C25 7657   0.398   4.260  10.181 -0.0159  0.1803  0.2969
   82SAPS   H5R 7658   0.460   4.211  10.105  0.4947 -1.8427  1.9463
   82SAPS   C26 7659   0.292   4.319  10.130  0.2140  0.0185 -0.1329
   82SAPS   H6R 7660   0.269   4.318  10.022 -0.0890 -1.9771 -0.1014
   82SAPS   C27 7661   0.191   4.406  10.193  0.1260  0.1644 -0.2702
   82SAPS   H7R 7662   0.186   4.510  10.156 -0.1096  0.3106  0.1646
   82SAPS   H7S 7663   0.207   4.419  10.302 -0.5442 -0.4284 -0.0885
   82SAPS   C28 7664   0.049   4.350  10.189  0.1039  0.5851  0.1211
   82SAPS   H8R 7665   0.020   4.286  10.273  1.5625 -0.0347  0.1831
   82SAPS   C29 7666  -0.034   4.365  10.080 -0.0134 -0.3695  0.5376
   82SAPS   H9R 7667  -0.138   4.329  10.084 -0.5061  0.5659 -2.0505
   82SAPS  C210 7668  -0.015   4.429   9.944 -0.5914 -0.4620 -0.2826
   82SAPS  H10R 7669   0.062   4.507   9.961 -2.1728  1.1351 -0.2239
   82SAPS  H10S 7670  -0.101   4.499   9.934  1.2692  2.3164  1.5659
   82SAPS  C211 7671   0.002   4.327   9.838 -0.7652 -0.0432 -0.1353
   82SAPS  H11R 7672  -0.010   4.221   9.863  1.7737  0.3903  3.6552
   82SAPS  C212 7673   0.044   4.362   9.712 -0.3999  0.3047  0.1162
   82SAPS  H12R 7674   0.050   4.279   9.639 -0.8858 -0.2826  0.7220
   82SAPS  C213 7675   0.077   4.501   9.665 -0.2068  0.4433  0.3064
   82SAPS  H13R 7676   0.028   4.571   9.736 -0.3686 -2.3601  3.1701
   82SAPS  H13S 7677   0.026   4.520   9.568  1.0414  0.4368 -0.3688
   82SAPS  C214 7678   0.231   4.525   9.658  0.8938  0.1302 -0.1098
   82SAPS  H14R 7679   0.288   4.518   9.752  0.3595 -0.1096  0.2041
   82SAPS  C215 7680   0.312   4.536   9.554  0.2641 -0.2357  0.3076
   82SAPS  H15R 7681   0.419   4.544   9.580  0.6472 -1.3203 -0.8187
   82SAPS  C216 7682   0.295   4.533   9.407  0.9779  0.7914  0.1404
   82SAPS  H16R 7683   0.325   4.631   9.363 -0.2317  0.6684 -1.0160
   82SAPS  H16S 7684   0.190   4.531   9.370  0.5344  0.0663  1.3965
   82SAPS  C217 7685   0.363   4.423   9.327 -0.1696  1.0470  0.7325
   82SAPS  H17R 7686   0.303   4.330   9.339  1.8977 -1.0117 -3.0887
   82SAPS  H17S 7687   0.462   4.388   9.361 -0.4376 -0.4103  0.1355
   82SAPS  C218 7688   0.381   4.464   9.178  0.3808  0.5243 -0.4189
   82SAPS  H18R 7689   0.281   4.482   9.131  0.1336 -2.4674 -1.2998
   82SAPS  H18S 7690   0.426   4.375   9.129  2.5700  1.2110  0.2497
   82SAPS  C219 7691   0.476   4.580   9.165 -0.2649  0.4835 -0.3264
   82SAPS  H19R 7692   0.553   4.582   9.245 -1.0556 -1.2504  0.5140
   82SAPS  H19S 7693   0.421   4.676   9.181 -0.9547 -0.1334  1.1498
   82SAPS  C220 7694   0.540   4.593   9.021  0.4288 -0.6173  0.0007
   82SAPS  H20R 7695   0.451   4.588   8.955 -0.6096 -3.7788  1.4273
   82SAPS  H20S 7696   0.603   4.505   8.999 -0.3446 -1.1817 -0.0195
   82SAPS  H20T 7697   0.601   4.685   9.016  2.3389 -1.8903 -1.3729
   82SAPS   C33 7698   1.116   4.276  10.121 -0.2417  0.1922  0.2340
   82SAPS   H3X 7699   1.213   4.223  10.111 -1.3731 -1.8505 -0.3824
   82SAPS   H3Y 7700   1.138   4.381  10.150 -1.8709  0.4620  0.5844
   82SAPS   C34 7701   1.049   4.298   9.984 -0.0747 -0.0697 -0.2345
   82SAPS   H4X 7702   0.976   4.381   9.993 -2.0877 -1.5468 -2.0443
   82SAPS   H4Y 7703   0.976   4.215   9.975  0.9612 -1.0336  0.0758
   82SAPS   C35 7704   1.141   4.309   9.862 -0.0556 -0.6145  0.6532
   82SAPS   H5X 7705   1.242   4.276   9.895  0.2208 -1.5411 -0.9963
   82SAPS   H5Y 7706   1.162   4.417   9.854  2.5151 -1.0607  0.3427
   82SAPS   C36 7707   1.092   4.238   9.734 -0.4742 -0.4064 -0.0990
   82SAPS   H6X 7708   1.002   4.281   9.685 -0.0776  1.8063  1.0104
   82SAPS   H6Y 7709   1.077   4.129   9.753 -0.9386 -0.5428 -1.1363
   82SAPS   C37 7710   1.199   4.244   9.618 -0.0608 -0.0564  0.6398
   82SAPS   H7X 7711   1.289   4.182   9.634 -0.3101 -0.4309  0.5861
   82SAPS   H7Y 7712   1.241   4.347   9.623 -0.9354  0.3033  0.6175
   82SAPS   C38 7713   1.159   4.213   9.475 -0.0975  0.2826  1.0681
   82SAPS   H8X 7714   1.086   4.287   9.433 -0.0644 -0.7966 -1.0416
   82SAPS   H8Y 7715   1.096   4.123   9.459 -0.5747  0.8141 -0.2251
   82SAPS   C39 7716   1.278   4.209   9.382  0.4363  0.6268  0.2249
   82SAPS   H9X 7717   1.354   4.138   9.420  0.8879  1.0361  0.0935
   82SAPS   H9Y 7718   1.329   4.307   9.391 -0.5050  1.1750 -0.2324
   82SAPS  C310 7719   1.233   4.186   9.234 -1.1082 -0.3245  0.5265
   82SAPS  H10X 7720   1.149   4.256   9.216  0.7519  1.8386 -0.3058
   82SAPS  H10Y 7721   1.205   4.079   9.223  2.5324 -1.5493  1.6213
   82SAPS  C311 7722   1.349   4.215   9.128  0.0689  0.1782 -0.1902
   82SAPS  H11X 7723   1.449   4.191   9.171  0.3305 -0.8657 -1.3153
   82SAPS  H11Y 7724   1.353   4.325   9.110  2.7710  0.6621  2.3846
   82SAPS  C312 7725   1.342   4.130   9.002  0.6418 -0.2650 -0.6140
   82SAPS  H12X 7726   1.260   4.176   8.944 -1.5620 -4.0260 -0.7770
   82SAPS  H12Y 7727   1.305   4.027   9.018  1.0751 -0.3792 -0.3091
   82SAPS  C313 7728   1.474   4.122   8.929 -0.2101 -0.3105 -0.7908
   82SAPS  H13X 7729   1.566   4.103   8.989  1.3799  2.3784 -2.1403
   82SAPS  H13Y 7730   1.481   4.229   8.900  0.1499  0.1302  0.7997
   82SAPS  C314 7731   1.484   4.025   8.806  0.3194 -0.8277  0.4565
   82SAPS  H14X 7732   1.474   3.921   8.845 -1.1793  0.2147  3.1270
   82SAPS  H14Y 7733   1.580   4.039   8.752 -0.2785 -2.4571 -1.1313
   82SAPS  C315 7734   1.375   4.057   8.693  0.1138 -0.5167 -0.7010
   82SAPS  H15X 7735   1.290   4.106   8.745  1.6425  0.2769  1.1399
   82SAPS  H15Y 7736   1.340   3.955   8.663  3.6948 -1.9086 -0.5887
   82SAPS  C316 7737   1.411   4.148   8.578 -0.2259  0.3108  0.3172
   82SAPS  H16X 7738   1.467   4.084   8.507 -1.3592 -2.5140  1.8176
   82SAPS  H16Y 7739   1.478   4.235   8.595  0.5759 -0.0201 -1.0356
   82SAPS  C317 7740   1.291   4.218   8.515 -0.0192  0.1104  1.1377
   82SAPS  H17X 7741   1.218   4.257   8.590 -0.4846  0.5522  0.4739
   82SAPS  H17Y 7742   1.237   4.147   8.448  1.3952  0.1605 -0.1017
   82SAPS  C318 7743   1.324   4.346   8.433  0.2851  0.1234 -0.4890
   82SAPS  H18X 7744   1.348   4.441   8.486  2.1861 -0.6276  0.0826
   82SAPS  H18Y 7745   1.226   4.366   8.384 -0.0951  0.8738  0.5426
   82SAPS  H18Z 7746   1.401   4.307   8.363  1.1073 -0.3672  0.6673
   83SAPS     N 7747   2.653   3.925  11.136  0.0656  0.0855 -0.5833
   83SAPS   HN1 7748   2.755   3.942  11.124  0.2566 -0.4814  0.1837
   83SAPS   HN2 7749   2.643   3.825  11.162 -0.5334 -0.2305 -1.9561
   83SAPS   HN3 7750   2.602   3.929  11.045  2.0663 -2.8617 -1.9955
   83SAPS   C12 7751   2.613   3.984  11.264 -0.6589 -0.6498 -0.4599
   83SAPS  H12A 7752   2.514   3.951  11.292 -1.4330 -0.0166 -2.2985
   83SAPS   C13 7753   2.708   3.953  11.373 -0.0391  0.7592 -0.2766
   83SAPS  O13A 7754   2.819   3.896  11.354 -0.1486 -0.3047  0.8886
   83SAPS  O13B 7755   2.682   3.992  11.491 -0.0622 -0.2777  0.2557
   83SAPS   C11 7756   2.623   4.139  11.247  0.1166 -0.3276  0.3189
   83SAPS  H11A 7757   2.597   4.185  11.345 -1.5906 -1.7091  0.5608
   83SAPS  H11B 7758   2.540   4.163  11.177 -1.8400 -3.0374  1.5299
   83SAPS     P 7759   2.772   4.333  11.155  0.5110 -0.4145 -0.1665
   83SAPS   O13 7760   2.663   4.416  11.209  0.8182 -0.1366  0.2237
   83SAPS   O14 7761   2.907   4.371  11.202  0.1445  0.5608  0.2333
   83SAPS   O12 7762   2.746   4.184  11.196  0.1038 -0.0190 -0.3152
   83SAPS   O11 7763   2.759   4.318  11.002 -0.0141 -0.1287 -0.4414
   83SAPS    C1 7764   2.783   4.192  10.939 -0.8518  0.1196  0.3926
   83SAPS    HA 7765   2.887   4.157  10.950 -0.5834 -0.3234 -2.5518
   83SAPS    HB 7766   2.718   4.108  10.973 -0.2914 -0.4430  0.1030
   83SAPS    C2 7767   2.770   4.192  10.788  0.6991  0.3281  0.3207
   83SAPS    HS 7768   2.778   4.088  10.751 -0.6520  0.3442 -0.0977
   83SAPS   O21 7769   2.860   4.277  10.722 -0.3139  0.9410  0.2689
   83SAPS   C21 7770   2.987   4.243  10.712 -0.6824 -0.4689  0.4531
   83SAPS   O22 7771   3.034   4.135  10.748  0.0809  0.2126  0.4063
   83SAPS   C22 7772   3.059   4.344  10.623  0.1382 -0.2369 -1.0935
   83SAPS   H2R 7773   3.047   4.446  10.665 -0.9987 -1.4089  1.7094
   83SAPS   H2S 7774   3.164   4.313  10.638 -0.0742 -0.8754 -0.8792
   83SAPS    C3 7775   2.629   4.244  10.741  0.1850  0.4236  0.0425
   83SAPS    HX 7776   2.632   4.354  10.758  1.2543  0.5841 -1.0491
   83SAPS    HY 7777   2.546   4.211  10.806  0.5230 -0.7347 -0.0979
   83SAPS   O31 7778   2.602   4.202  10.600  0.2073  0.2011 -0.3603
   83SAPS   C31 7779   2.526   4.092  10.585  0.5117 -0.3761  0.2333
   83SAPS   O32 7780   2.479   4.033  10.681  0.2889  0.0113 -0.6404
   83SAPS   C32 7781   2.493   4.053  10.436  0.3009 -1.0306 -0.6680
   83SAPS   H2X 7782   2.383   4.057  10.431  0.0689 -1.9938  1.9309
   83SAPS   H2Y 7783   2.534   3.956  10.401 -2.1386 -3.1236  1.8657
   83SAPS   C23 7784   3.010   4.348  10.479  0.1203  0.2462 -0.4410
   83SAPS   H3R 7785   3.075   4.421  10.427  0.1648 -1.4031 -2.9220
   83SAPS   H3S 7786   2.908   4.390  10.465  0.4996  0.8375 -1.5640
   83SAPS   C24 7787   3.023   4.217  10.407  0.6635 -0.3741 -0.0898
   83SAPS   H4R 7788   2.984   4.228  10.303 -1.7382 -1.0929  0.6503
   83SAPS   H4S 7789   2.965   4.135  10.455  1.6150 -2.2550 -1.9548
   83SAPS   C25 7790   3.160   4.159  10.407 -0.1050 -0.3819 -0.2016
   83SAPS   H5R 7791   3.204   4.164  10.508 -0.5612  0.2696 -0.0330
   83SAPS   C26 7792   3.231   4.108  10.301 -0.2887  0.1341 -0.1456
   83SAPS   H6R 7793   3.336   4.079  10.313 -0.8387 -1.3231  1.6949
   83SAPS   C27 7794   3.180   4.092  10.163  0.0372  0.1227 -0.0328
   83SAPS   H7R 7795   3.247   4.025  10.104  1.3283  2.6399 -1.6021
   83SAPS   H7S 7796   3.195   4.185  10.104  0.4378  0.1847  0.1634
   83SAPS   C28 7797   3.039   4.047  10.136  0.0104 -0.4774 -0.8664
   83SAPS   H8R 7798   2.983   4.004  10.221 -0.2161  1.4409  0.0181
   83SAPS   C29 7799   2.981   4.035  10.009 -0.1275 -0.4786 -0.5448
   83SAPS   H9R 7800   2.878   3.997   9.997 -0.5747  0.7880 -0.9017
   83SAPS  C210 7801   3.048   4.073   9.880 -0.3644  0.1743 -0.1654
   83SAPS  H10R 7802   3.157   4.089   9.890 -0.5705  2.0267 -0.6228
   83SAPS  H10S 7803   3.014   4.172   9.843  0.7490  0.3875 -0.6555
   83SAPS  C211 7804   3.003   3.977   9.769 -0.6145 -0.1954 -0.5316
   83SAPS  H11R 7805   2.955   3.887   9.808 -2.9320  1.8949  1.8746
   83SAPS  C212 7806   3.016   4.004   9.636 -0.4990  0.2082 -0.1659
   83SAPS  H12R 7807   2.962   3.930   9.575 -0.9582  2.6818 -2.9177
   83SAPS  C213 7808   3.069   4.110   9.542 -0.3802  0.5051  0.1423
   83SAPS  H13R 7809   3.111   4.187   9.610 -0.9091  0.2367  0.7896
   83SAPS  H13S 7810   2.985   4.152   9.482 -0.0467  2.1554  0.7856
   83SAPS  C214 7811   3.164   4.036   9.454  0.0763 -0.5277  0.4827
   83SAPS  H14R 7812   3.216   3.949   9.497  0.3720  0.6159  2.5700
   83SAPS  C215 7813   3.196   4.077   9.327 -0.6498 -0.2308 -0.5646
   83SAPS  H15R 7814   3.240   3.998   9.264  0.8330 -1.4024  1.8135
   83SAPS  C216 7815   3.132   4.187   9.247  0.6028  0.3923 -0.2192
   83SAPS  H16R 7816   3.201   4.263   9.206  0.8631 -0.3879 -1.2593
   83SAPS  H16S 7817   3.063   4.250   9.308 -0.3747 -2.0990  1.4392
   83SAPS  C217 7818   3.058   4.116   9.124  0.3649 -0.7838 -0.6830
   83SAPS  H17R 7819   3.003   4.028   9.163 -0.1323 -1.0677 -1.9808
   83SAPS  H17S 7820   3.139   4.078   9.057  1.9336 -1.3684  1.4221
   83SAPS  C218 7821   2.959   4.212   9.044  0.6991 -0.4100  0.6223
   83SAPS  H18R 7822   2.998   4.316   9.041  0.0926 -0.1554  1.2146
   83SAPS  H18S 7823   2.858   4.191   9.086 -0.0009 -3.0255 -2.0627
   83SAPS  C219 7824   2.940   4.176   8.895  0.4075  0.0950  0.8563
   83SAPS  H19R 7825   2.904   4.072   8.877  0.1943  0.5091 -1.3965
   83SAPS  H19S 7826   3.040   4.186   8.847  0.6721  1.5081  1.6850
   83SAPS  C220 7827   2.837   4.270   8.836  0.5182 -0.2430  0.0558
   83SAPS  H20R 7828   2.809   4.256   8.729 -2.4466 -1.5203  0.8925
   83SAPS  H20S 7829   2.864   4.375   8.858  0.4680 -0.4648  1.2180
   83SAPS  H20T 7830   2.735   4.263   8.879  1.0737  0.0222  1.4544
   83SAPS   C33 7831   2.551   4.152  10.326  0.6226  0.9950  0.0471
   83SAPS   H3X 7832   2.661   4.141  10.331  0.4001 -1.4091  3.4018
   83SAPS   H3Y 7833   2.511   4.254  10.342  0.7269  1.3098 -1.5890
   83SAPS   C34 7834   2.507   4.115  10.186  0.0209  0.4486  0.0898
   83SAPS   H4X 7835   2.399   4.133  10.168  0.0234 -0.4449 -0.8875
   83SAPS   H4Y 7836   2.511   4.004  10.195 -0.5516  0.5714  2.6108
   83SAPS   C35 7837   2.590   4.171  10.066 -0.2765 -0.5349 -0.1440
   83SAPS   H5X 7838   2.696   4.151  10.093 -0.4892  0.7955  1.9722
   83SAPS   H5Y 7839   2.587   4.282  10.057 -0.0719 -0.6220 -1.3795
   83SAPS   C36 7840   2.548   4.120   9.931  0.5681 -0.0991 -0.2236
   83SAPS   H6X 7841   2.446   4.156   9.903  1.1365  0.7466 -1.2896
   83SAPS   H6Y 7842   2.541   4.009   9.935 -0.4484 -0.0305  0.1500
   83SAPS   C37 7843   2.637   4.162   9.814 -0.7625  0.2613 -0.2985
   83SAPS   H7X 7844   2.718   4.086   9.814 -1.8114 -0.9214  1.1333
   83SAPS   H7Y 7845   2.676   4.263   9.839  1.9388 -0.7038 -0.2531
   83SAPS   C38 7846   2.575   4.160   9.675  0.3901 -0.4259  0.2752
   83SAPS   H8X 7847   2.493   4.234   9.661 -0.9283 -1.9825 -0.5288
   83SAPS   H8Y 7848   2.526   4.062   9.661  0.5753 -0.4122 -0.5139
   83SAPS   C39 7849   2.679   4.171   9.558 -0.8399 -0.5231  0.0457
   83SAPS   H9X 7850   2.756   4.092   9.576 -0.6378 -0.2715  0.2995
   83SAPS   H9Y 7851   2.739   4.265   9.562 -0.8813 -0.5072  0.2997
   83SAPS  C310 7852   2.626   4.158   9.417 -0.5546  0.1764  0.4953
   83SAPS  H10X 7853   2.533   4.098   9.428 -0.7321  0.0022 -1.6692
   83SAPS  H10Y 7854   2.695   4.089   9.363  0.5983  1.2338  0.5654
   83SAPS  C311 7855   2.622   4.293   9.343 -0.0784  0.0790  0.4867
   83SAPS  H11X 7856   2.722   4.341   9.346  0.7022 -1.4195 -0.3665
   83SAPS  H11Y 7857   2.541   4.350   9.393 -1.3312 -1.3697  0.2063
   83SAPS  C312 7858   2.577   4.294   9.189 -0.4245  0.0061 -0.2519
   83SAPS  H12X 7859   2.484   4.232   9.185 -0.2090 -0.2620 -1.3798
   83SAPS  H12Y 7860   2.651   4.243   9.124 -2.0997  0.7054 -2.8633
   83SAPS  C313 7861   2.529   4.425   9.137 -0.0776 -1.0802  0.4292
   83SAPS  H13X 7862   2.615   4.491   9.160 -1.4173  1.0011 -0.2973
   83SAPS  H13Y 7863   2.445   4.468   9.195 -0.8677  0.3747 -1.6789
   83SAPS  C314 7864   2.488   4.439   8.992 -0.1561 -0.8254  0.4554
   83SAPS  H14X 7865   2.572   4.410   8.925 -1.4767 -2.6451 -0.4819
   83SAPS  H14Y 7866   2.480   4.548   8.973  1.0259 -0.4793  1.7994
   83SAPS  C315 7867   2.363   4.366   8.949 -0.7328  0.4697 -0.1757
   83SAPS  H15X 7868   2.286   4.411   9.015  0.4586  0.6386  1.1516
   83SAPS  H15Y 7869   2.369   4.260   8.981  0.5815  1.1192  1.8943
   83SAPS  C316 7870   2.320   4.359   8.799  0.1745  0.5767  0.1890
   83SAPS  H16X 7871   2.393   4.322   8.724  0.4876  0.2946  0.6262
   83SAPS  H16Y 7872   2.289   4.461   8.769 -2.4457 -0.1498  0.1356
   83SAPS  C317 7873   2.189   4.279   8.786  0.5479 -0.3750  0.0869
   83SAPS  H17X 7874   2.116   4.326   8.856 -0.3278 -1.3196 -0.1832
   83SAPS  H17Y 7875   2.215   4.176   8.816 -0.9226 -0.1865  2.3631
   83SAPS  C318 7876   2.142   4.273   8.644 -0.1064  0.2222  0.1229
   83SAPS  H18X 7877   2.077   4.185   8.624 -0.2313  0.2997  0.1909
   83SAPS  H18Y 7878   2.233   4.263   8.580 -0.1851  0.6518 -0.0600
   83SAPS  H18Z 7879   2.089   4.365   8.612 -0.2935  0.8620  2.1322
   84SAPS     N 7880   3.538   3.136  11.070 -0.2279 -0.2146 -0.0330
   84SAPS   HN1 7881   3.494   3.229  11.056  0.9619  0.2773 -0.7126
   84SAPS   HN2 7882   3.642   3.141  11.082 -0.2731 -0.6485  0.5658
   84SAPS   HN3 7883   3.518   3.074  10.988  1.1616 -0.2251 -0.4012
   84SAPS   C12 7884   3.490   3.061  11.196  0.7996 -0.4599  0.8370
   84SAPS  H12A 7885   3.521   3.120  11.281  0.9277  0.9244 -0.1376
   84SAPS   C13 7886   3.335   3.051  11.219  0.8255  0.1666  0.0308
   84SAPS  O13A 7887   3.269   3.115  11.135  0.3931 -0.0678  0.2387
   84SAPS  O13B 7888   3.291   3.028  11.328 -0.3434 -0.0152  0.1360
   84SAPS   C11 7889   3.561   2.924  11.206 -0.0210  0.1140 -0.1184
   84SAPS  H11A 7890   3.531   2.882  11.305 -2.4072  2.6802  0.3709
   84SAPS  H11B 7891   3.672   2.934  11.204 -0.0719  0.8886  0.3796
   84SAPS     P 7892   3.546   2.688  11.097  0.3037  0.0001  0.0690
   84SAPS   O13 7893   3.583   2.638  11.231 -0.5942 -0.8970  0.0538
   84SAPS   O14 7894   3.445   2.608  11.018 -0.3588  0.0331 -0.4457
   84SAPS   O12 7895   3.502   2.839  11.102 -0.2529 -0.5484 -0.3383
   84SAPS   O11 7896   3.679   2.685  11.007  0.1611 -0.1829  0.2669
   84SAPS    C1 7897   3.721   2.773  10.900  0.4345  0.0290 -0.0244
   84SAPS    HA 7898   3.717   2.880  10.930  0.7491  0.4603 -1.4409
   84SAPS    HB 7899   3.829   2.759  10.877  0.4072 -1.0547  0.4642
   84SAPS    C2 7900   3.655   2.761  10.761  0.3461  0.3883  0.1224
   84SAPS    HS 7901   3.699   2.840  10.697  1.5184  1.7314  2.4584
   84SAPS   O21 7902   3.512   2.759  10.762 -0.0056 -0.7801 -0.2881
   84SAPS   C21 7903   3.455   2.875  10.794 -0.6189  0.5644  1.3621
   84SAPS   O22 7904   3.516   2.980  10.819  0.1314 -1.0719  0.1161
   84SAPS   C22 7905   3.306   2.861  10.792  1.1762 -0.1651  0.3683
   84SAPS   H2R 7906   3.268   2.809  10.702 -1.6219 -0.0569  1.3821
   84SAPS   H2S 7907   3.276   2.790  10.872 -1.3726 -0.3627 -0.6663
   84SAPS    C3 7908   3.702   2.629  10.690  0.4311  0.1754  0.4108
   84SAPS    HX 7909   3.646   2.544  10.733 -1.2668  1.4125  0.7372
   84SAPS    HY 7910   3.810   2.613  10.709 -0.0353 -3.7961  0.6218
   84SAPS   O31 7911   3.677   2.640  10.548 -0.1529 -0.0815  0.2604
   84SAPS   C31 7912   3.783   2.627  10.472  0.0588 -0.2336  0.0704
   84SAPS   O32 7913   3.900   2.617  10.508  0.2478 -0.7652  0.4615
   84SAPS   C32 7914   3.742   2.625  10.321 -0.6003 -0.3375 -1.0018
   84SAPS   H2X 7915   3.674   2.709  10.299 -1.2206 -0.0501  1.6957
   84SAPS   H2Y 7916   3.693   2.529  10.295 -3.7722  1.3793 -1.8961
   84SAPS   C23 7917   3.222   2.991  10.783  0.1394 -0.0276 -0.2517
   84SAPS   H3R 7918   3.261   3.062  10.860  0.1991 -0.8395  0.4765
   84SAPS   H3S 7919   3.115   2.976  10.809  0.0564 -0.8698 -1.0372
   84SAPS   C24 7920   3.248   3.076  10.654  0.9976 -0.4924 -0.3925
   84SAPS   H4R 7921   3.219   3.014  10.566  1.5480  0.6769 -1.4369
   84SAPS   H4S 7922   3.357   3.089  10.639  1.4220 -0.1599  2.5472
   84SAPS   C25 7923   3.181   3.211  10.652 -0.1591 -0.1902  0.0119
   84SAPS   H5R 7924   3.187   3.264  10.748 -0.7728  2.2424 -1.1914
   84SAPS   C26 7925   3.102   3.265  10.552 -0.4501 -0.2529  0.5125
   84SAPS   H6R 7926   3.070   3.369  10.567  0.1180  0.2851 -1.7071
   84SAPS   C27 7927   3.072   3.209  10.414 -0.5286  0.1304  0.6797
   84SAPS   H7R 7928   3.162   3.153  10.383  1.1839  3.2646 -0.4948
   84SAPS   H7S 7929   3.071   3.293  10.341 -0.4041 -1.4798 -1.2759
   84SAPS   C28 7930   2.944   3.127  10.411  1.0884 -0.0493  0.4251
   84SAPS   H8R 7931   2.906   3.086  10.506 -1.5377 -1.1228 -0.9992
   84SAPS   C29 7932   2.868   3.094  10.307  0.1883  0.0884  0.3367
   84SAPS   H9R 7933   2.777   3.035  10.324  0.0284 -0.0345 -0.8752
   84SAPS  C210 7934   2.883   3.142  10.161 -0.5618 -0.5606 -0.5612
   84SAPS  H10R 7935   2.979   3.195  10.149 -0.3316 -0.6754  0.6490
   84SAPS  H10S 7936   2.796   3.210  10.143 -2.6039 -2.4575  1.4248
   84SAPS  C211 7937   2.876   3.027  10.067 -0.2698 -0.7718  0.4096
   84SAPS  H11R 7938   2.856   2.931  10.117 -2.2905 -1.5872 -1.7652
   84SAPS  C212 7939   2.914   3.033   9.933 -0.2342  0.6621 -0.6961
   84SAPS  H12R 7940   2.891   2.940   9.879  0.0226  1.1976 -1.7547
   84SAPS  C213 7941   2.956   3.157   9.864  0.1421 -1.0482  0.7348
   84SAPS  H13R 7942   3.059   3.180   9.896 -0.2530 -1.4311  2.3574
   84SAPS  H13S 7943   2.906   3.248   9.904  0.7883 -0.8153  1.0082
   84SAPS  C214 7944   2.938   3.162   9.712 -0.5014  0.3588 -0.1221
   84SAPS  H14R 7945   2.831   3.173   9.691 -0.3935 -0.6719 -1.3373
   84SAPS  C215 7946   3.026   3.153   9.610  0.0635  0.3254 -0.0444
   84SAPS  H15R 7947   2.995   3.141   9.505  0.0876 -2.1334  0.1613
   84SAPS  C216 7948   3.173   3.142   9.626 -0.0128  0.2052 -0.0188
   84SAPS  H16R 7949   3.219   3.057   9.571  0.9995  0.9126 -0.2937
   84SAPS  H16S 7950   3.201   3.131   9.733  0.8721 -0.2458 -0.2807
   84SAPS  C217 7951   3.245   3.254   9.567 -0.3676  0.0119 -0.1548
   84SAPS  H17R 7952   3.352   3.248   9.595  0.4111 -0.1077 -2.9172
   84SAPS  H17S 7953   3.199   3.349   9.601  0.2238  1.4811 -3.1602
   84SAPS  C218 7954   3.229   3.260   9.408 -0.4950 -0.5277 -0.0453
   84SAPS  H18R 7955   3.222   3.367   9.380  1.0898 -0.6096 -0.8591
   84SAPS  H18S 7956   3.128   3.228   9.373 -0.6264  1.0799 -1.2446
   84SAPS  C219 7957   3.335   3.179   9.340 -0.1880  0.9911  0.3854
   84SAPS  H19R 7958   3.337   3.078   9.387  1.2602  0.7490 -0.1395
   84SAPS  H19S 7959   3.438   3.213   9.362 -0.2202  0.9961  0.5253
   84SAPS  C220 7960   3.313   3.156   9.194  0.1181 -0.1069  0.0599
   84SAPS  H20R 7961   3.312   3.251   9.137 -0.9105  0.1786  0.5274
   84SAPS  H20S 7962   3.215   3.103   9.187 -0.6518  0.5069  3.7751
   84SAPS  H20T 7963   3.393   3.092   9.152 -0.6392 -0.4893 -0.8330
   84SAPS   C33 7964   3.867   2.648  10.238 -0.4125  0.3769 -0.0493
   84SAPS   H3X 7965   3.945   2.570  10.224  1.5608  2.4791 -1.3942
   84SAPS   H3Y 7966   3.917   2.739  10.277 -1.6616  0.7573  0.6936
   84SAPS   C34 7967   3.824   2.683  10.091 -0.3311  0.4358  0.1349
   84SAPS   H4X 7968   3.760   2.774  10.082 -0.1153  0.6189  0.4257
   84SAPS   H4Y 7969   3.766   2.597  10.054  0.1752 -0.2446  0.8916
   84SAPS   C35 7970   3.949   2.708   9.997 -0.1185 -0.2904  0.4115
   84SAPS   H5X 7971   3.996   2.607   9.989  1.6657  0.2762  2.6388
   84SAPS   H5Y 7972   4.017   2.775  10.054 -0.5112  1.1256 -0.7260
   84SAPS   C36 7973   3.927   2.763   9.858  0.5094  0.0597  0.3912
   84SAPS   H6X 7974   3.871   2.859   9.861 -1.9194 -1.2835  0.5186
   84SAPS   H6Y 7975   3.855   2.698   9.803  1.3026  1.6441 -2.7899
   84SAPS   C37 7976   4.058   2.769   9.776  0.8861  0.2043 -0.2161
   84SAPS   H7X 7977   4.081   2.665   9.746 -1.4441 -0.2212 -0.7768
   84SAPS   H7Y 7978   4.143   2.813   9.832  0.3999  0.8150  0.0589
   84SAPS   C38 7979   4.038   2.858   9.658  0.3113  0.4131 -0.0234
   84SAPS   H8X 7980   4.068   2.961   9.687  0.0514  0.7057 -0.7596
   84SAPS   H8Y 7981   3.929   2.861   9.637  0.0086  1.5765  1.4927
   84SAPS   C39 7982   4.116   2.824   9.537 -0.1954  0.3917  0.5856
   84SAPS   H9X 7983   4.085   2.720   9.514 -1.4467  0.7167  0.7193
   84SAPS   H9Y 7984   4.225   2.824   9.558 -0.0354 -1.7718 -0.0312
   84SAPS  C310 7985   4.079   2.921   9.423  0.3839 -0.1310  0.6704
   84SAPS  H10X 7986   4.086   3.030   9.446 -1.7985  0.4763 -1.1076
   84SAPS  H10Y 7987   3.975   2.896   9.392  0.3617 -1.0828  1.4687
   84SAPS  C311 7988   4.179   2.910   9.303  0.1960 -0.0038 -0.9894
   84SAPS  H11X 7989   4.182   2.802   9.273  0.3927  0.0752 -1.2602
   84SAPS  H11Y 7990   4.280   2.934   9.341 -0.0709 -0.7774  0.2926
   84SAPS  C312 7991   4.139   3.005   9.188 -0.5121  0.2146  0.4754
   84SAPS  H12X 7992   4.116   3.108   9.224  1.2054  1.2361 -1.1774
   84SAPS  H12Y 7993   4.048   2.965   9.139 -0.1252 -0.9820  0.7020
   84SAPS  C313 7994   4.247   3.013   9.082  0.3615 -0.5605  0.2505
   84SAPS  H13X 7995   4.345   3.035   9.130 -1.2123  0.5310  3.2121
   84SAPS  H13Y 7996   4.226   3.095   9.010  1.5107  0.1125  0.6549
   84SAPS  C314 7997   4.274   2.884   8.999  0.3028 -0.2983  0.3863
   84SAPS  H14X 7998   4.184   2.863   8.937  0.9826 -0.8780 -0.4205
   84SAPS  H14Y 7999   4.283   2.803   9.074 -0.7268 -0.2424  0.5811
   84SAPS  C315 8000   4.394   2.901   8.907 -0.3056  0.2437 -0.3910
   84SAPS  H15X 8001   4.377   2.994   8.849 -0.4875  0.3009 -0.2459
   84SAPS  H15Y 8002   4.392   2.817   8.835 -0.7687  0.3718 -0.5316
   84SAPS  C316 8003   4.534   2.914   8.976 -0.4710  1.1107 -0.5414
   84SAPS  H16X 8004   4.607   2.864   8.909 -0.1864  0.8278 -0.0229
   84SAPS  H16Y 8005   4.524   2.861   9.074 -0.1815  1.2099 -0.4574
   84SAPS  C317 8006   4.565   3.064   8.997 -0.3053  0.9358 -1.0197
   84SAPS  H17X 8007   4.510   3.112   9.081  4.2489  2.8986  1.2209
   84SAPS  H17Y 8008   4.540   3.114   8.901  1.6536 -1.2989 -2.8232
   84SAPS  C318 8009   4.710   3.095   9.018  0.9294  0.0258  0.1067
   84SAPS  H18X 8010   4.782   3.070   8.937  0.8446  0.4182 -0.0928
   84SAPS  H18Y 8011   4.745   3.053   9.115  0.8251 -0.9058 -0.2466
   84SAPS  H18Z 8012   4.718   3.205   9.019  1.0990  0.0427 -1.0969
   85SAPS     N 8013   0.045   4.096  11.028  0.1708  0.1100 -0.0113
   85SAPS   HN1 8014   0.074   4.016  11.088  4.1529  1.0842 -0.3564
   85SAPS   HN2 8015  -0.037   4.068  10.971  1.8688  0.4624 -2.8096
   85SAPS   HN3 8016   0.118   4.106  10.954 -1.2013 -0.2710 -1.4633
   85SAPS   C12 8017   0.019   4.235  11.084 -0.1207  0.7664 -0.2526
   85SAPS  H12A 8018  -0.049   4.230  11.167  1.9515  0.0993  1.4684
   85SAPS   C13 8019   0.146   4.292  11.152 -0.6786 -0.3019 -0.5105
   85SAPS  O13A 8020   0.229   4.210  11.198 -0.1573 -0.2327  0.2033
   85SAPS  O13B 8021   0.169   4.416  11.168 -0.0255  0.3591 -0.3817
   85SAPS   C11 8022  -0.025   4.319  10.966 -0.1381 -0.1881  0.4405
   85SAPS  H11A 8023   0.064   4.335  10.901  0.4904  0.4102  1.4241
   85SAPS  H11B 8024  -0.051   4.422  10.996  0.8837 -0.0085  0.7286
   85SAPS     P 8025  -0.276   4.264  10.971  0.3213 -0.1642 -0.4206
   85SAPS   O13 8026  -0.317   4.125  10.997 -0.3398 -0.2559 -0.5326
   85SAPS   O14 8027  -0.269   4.351  11.089  0.1647 -0.6329  0.0617
   85SAPS   O12 8028  -0.139   4.261  10.900  0.1972 -0.2100  0.3832
   85SAPS   O11 8029  -0.372   4.330  10.869  0.3238 -0.0104  0.6062
   85SAPS    C1 8030  -0.354   4.340  10.726 -0.1250 -1.2073 -0.5239
   85SAPS    HA 8031  -0.279   4.275  10.677 -2.0198 -1.5054 -3.2818
   85SAPS    HB 8032  -0.452   4.302  10.688 -0.6190  0.5722 -1.1347
   85SAPS    C2 8033  -0.343   4.484  10.686  0.3597 -0.8323 -0.6003
   85SAPS    HS 8034  -0.379   4.499  10.582  0.2474  2.4594 -0.1924
   85SAPS   O21 8035  -0.209   4.530  10.706  0.2701 -0.9508  0.6580
   85SAPS   C21 8036  -0.133   4.513  10.599  0.1472 -0.2950  0.8376
   85SAPS   O22 8037  -0.154   4.433  10.510  0.0313  0.1391  0.6112
   85SAPS   C22 8038  -0.011   4.610  10.589 -0.0457 -0.0322  0.3258
   85SAPS   H2R 8039  -0.050   4.714  10.592  0.3002  0.1849 -1.5509
   85SAPS   H2S 8040   0.061   4.595  10.673 -2.2941 -3.2297  1.8553
   85SAPS    C3 8041  -0.442   4.582  10.769 -0.0883  0.0986  0.9076
   85SAPS    HX 8042  -0.427   4.575  10.879  2.4905 -0.5561  0.5780
   85SAPS    HY 8043  -0.542   4.548  10.735  1.3334 -2.3023 -1.2953
   85SAPS   O31 8044  -0.437   4.710  10.714  0.5189  0.2111  0.3880
   85SAPS   C31 8045  -0.360   4.803  10.762 -0.1022  1.0244  0.0684
   85SAPS   O32 8046  -0.291   4.801  10.864 -0.1322  0.7946  0.7289
   85SAPS   C32 8047  -0.372   4.932  10.681  0.7407 -0.2470 -0.5177
   85SAPS   H2X 8048  -0.427   5.001  10.749  1.6662 -1.4860  1.5886
   85SAPS   H2Y 8049  -0.438   4.919  10.592  1.9819  0.0737 -1.5053
   85SAPS   C23 8050   0.067   4.583  10.458  0.7543 -0.4767 -0.4549
   85SAPS   H3R 8051   0.004   4.585  10.366 -0.3120  0.6309  0.2757
   85SAPS   H3S 8052   0.106   4.482  10.479  2.7035  0.5050  0.8818
   85SAPS   C24 8053   0.187   4.686  10.465 -0.4442  0.7022  1.1465
   85SAPS   H4R 8054   0.228   4.667  10.363 -1.8174 -2.1311  1.0293
   85SAPS   H4S 8055   0.264   4.670  10.544  1.1348  3.0136  0.2055
   85SAPS   C25 8056   0.151   4.831  10.478  0.1554  0.2166 -0.5173
   85SAPS   H5R 8057   0.188   4.878  10.571 -0.4809 -0.1709 -0.0650
   85SAPS   C26 8058   0.083   4.907  10.394 -0.0139  0.5455  0.0340
   85SAPS   H6R 8059   0.061   5.010  10.424  0.9224 -0.1578  3.5196
   85SAPS   C27 8060   0.022   4.868  10.263  0.2077  0.0708 -0.6562
   85SAPS   H7R 8061  -0.085   4.896  10.271 -0.6106 -3.0748  0.5761
   85SAPS   H7S 8062   0.019   4.758  10.255 -1.4072 -0.1492  1.7521
   85SAPS   C28 8063   0.092   4.928  10.145 -0.1300  0.0408  0.4617
   85SAPS   H8R 8064   0.172   5.000  10.171 -1.1464  0.8723  1.3528
   85SAPS   C29 8065   0.067   4.907  10.011  0.3895 -0.2308 -0.0916
   85SAPS   H9R 8066   0.121   4.970   9.939 -2.4155 -0.6233 -2.7813
   85SAPS  C210 8067  -0.038   4.814   9.954 -0.5561  0.1133 -0.4415
   85SAPS  H10R 8068  -0.081   4.746  10.031  0.9749  0.4355  0.7419
   85SAPS  H10S 8069   0.027   4.747   9.894 -0.0359 -1.3685  1.6655
   85SAPS  C211 8070  -0.154   4.881   9.882 -0.4074 -0.1738 -1.1104
   85SAPS  H11R 8071  -0.243   4.885   9.947  0.6231  0.0467  0.3376
   85SAPS  C212 8072  -0.170   4.914   9.752  0.2182  0.1001 -0.0691
   85SAPS  H12R 8073  -0.258   4.967   9.713  0.4599  0.3741 -0.2399
   85SAPS  C213 8074  -0.063   4.894   9.646 -0.1159  0.5042  0.1862
   85SAPS  H13R 8075  -0.025   4.789   9.645 -2.4570 -0.4181 -1.3329
   85SAPS  H13S 8076   0.020   4.964   9.670  0.2867 -0.2723  1.1462
   85SAPS  C214 8077  -0.115   4.924   9.498 -0.6124  0.7222 -1.0372
   85SAPS  H14R 8078  -0.208   4.981   9.509 -0.3538  0.7229  2.8063
   85SAPS  C215 8079  -0.071   4.881   9.383 -0.5337  0.1267  0.2502
   85SAPS  H15R 8080  -0.136   4.912   9.300 -1.3369  0.8234  1.1212
   85SAPS  C216 8081   0.052   4.791   9.361 -0.4944 -0.2475  1.1485
   85SAPS  H16R 8082   0.033   4.685   9.332 -0.9047  0.7032 -2.5930
   85SAPS  H16S 8083   0.108   4.785   9.456 -0.1015 -1.1909  0.8676
   85SAPS  C217 8084   0.149   4.853   9.250  0.6817 -0.3678  0.1026
   85SAPS  H17R 8085   0.252   4.812   9.252  0.6195 -0.7765 -2.3029
   85SAPS  H17S 8086   0.173   4.959   9.275 -0.5761  0.2533 -1.1322
   85SAPS  C218 8087   0.086   4.841   9.112 -0.5249 -0.2620  0.3133
   85SAPS  H18R 8088  -0.002   4.908   9.106  0.2209  0.7127  0.1650
   85SAPS  H18S 8089   0.047   4.738   9.094  1.8749 -0.6588 -3.8127
   85SAPS  C219 8090   0.186   4.871   8.995  0.2651 -0.2056  0.2021
   85SAPS  H19R 8091   0.278   4.808   8.998  2.4494  2.6747 -1.3826
   85SAPS  H19S 8092   0.227   4.973   9.007  1.0804 -0.5750  0.6261
   85SAPS  C220 8093   0.120   4.879   8.856 -0.3887  0.2730 -0.4549
   85SAPS  H20R 8094   0.179   4.914   8.769  0.4343  1.3411  0.5031
   85SAPS  H20S 8095   0.024   4.931   8.872 -1.5783 -2.0791  0.5884
   85SAPS  H20T 8096   0.088   4.774   8.837  0.2969 -0.3252  1.4311
   85SAPS   C33 8097  -0.241   4.996  10.639 -0.8582 -0.3252  0.2657
   85SAPS   H3X 8098  -0.193   4.940  10.556 -2.4434 -0.8405 -0.3249
   85SAPS   H3Y 8099  -0.181   4.992  10.733 -2.1536 -0.5650  1.1081
   85SAPS   C34 8100  -0.262   5.142  10.594  0.0184  0.1008 -0.3644
   85SAPS   H4X 8101  -0.167   5.157  10.538  1.2261 -2.6099  0.7809
   85SAPS   H4Y 8102  -0.270   5.209  10.683  0.1562  1.3808 -1.2871
   85SAPS   C35 8103  -0.377   5.169  10.500 -0.3724  0.4425  0.7522
   85SAPS   H5X 8104  -0.388   5.280  10.493 -0.4842  0.4998  1.7731
   85SAPS   H5Y 8105  -0.472   5.122  10.531  0.3396 -1.6115  0.0270
   85SAPS   C36 8106  -0.353   5.106  10.361 -0.1884 -0.0868  0.3545
   85SAPS   H6X 8107  -0.344   4.996  10.374  0.1524 -0.3075 -1.4436
   85SAPS   H6Y 8108  -0.253   5.133  10.319 -0.3678 -1.6507 -1.1946
   85SAPS   C37 8109  -0.459   5.131  10.254  0.2937 -0.3851  0.4508
   85SAPS   H7X 8110  -0.492   5.236  10.244 -0.7604 -0.7358  0.1154
   85SAPS   H7Y 8111  -0.554   5.082  10.283 -0.5476  0.0733 -1.4007
   85SAPS   C38 8112  -0.423   5.080  10.117  0.0632  0.3133  0.1794
   85SAPS   H8X 8113  -0.389   4.974  10.115 -0.6103  0.1007 -1.9938
   85SAPS   H8Y 8114  -0.351   5.153  10.073  0.6413  0.9120  2.0148
   85SAPS   C39 8115  -0.542   5.091  10.029  0.0465 -0.1867  0.1760
   85SAPS   H9X 8116  -0.597   5.187  10.034 -3.0432 -1.8742  2.0595
   85SAPS   H9Y 8117  -0.622   5.023  10.066  0.0972 -0.6109 -0.4692
   85SAPS  C310 8118  -0.517   5.045   9.880  0.7570  0.2034 -0.5772
   85SAPS  H10X 8119  -0.464   4.947   9.885  0.6139  0.1396 -0.2245
   85SAPS  H10Y 8120  -0.449   5.125   9.844  0.6700  0.6298  0.1732
   85SAPS  C311 8121  -0.652   5.037   9.804 -0.0812  0.1176 -0.3736
   85SAPS  H11X 8122  -0.726   5.109   9.845  0.1625  0.8967 -1.2657
   85SAPS  H11Y 8123  -0.706   4.942   9.822  0.2741 -0.1783 -0.8661
   85SAPS  C312 8124  -0.625   5.061   9.658  0.0322 -0.2273  0.8143
   85SAPS  H12X 8125  -0.558   5.150   9.656  0.9353 -0.8495  2.0236
   85SAPS  H12Y 8126  -0.721   5.077   9.605  0.9428  1.1010 -0.5379
   85SAPS  C313 8127  -0.571   4.931   9.598 -0.1927  0.1517 -0.0731
   85SAPS  H13X 8128  -0.662   4.869   9.589 -1.2575  0.5240  5.0786
   85SAPS  H13Y 8129  -0.497   4.879   9.664 -2.7565 -0.8832  2.1733
   85SAPS  C314 8130  -0.505   4.957   9.454  0.8585  0.8548 -0.5309
   85SAPS  H14X 8131  -0.453   4.866   9.417  2.6821  1.5466  0.1808
   85SAPS  H14Y 8132  -0.429   5.036   9.473 -0.1181  1.1501  2.7422
   85SAPS  C315 8133  -0.603   5.005   9.352 -0.0532  0.1821 -0.2966
   85SAPS  H15X 8134  -0.622   5.114   9.357  1.3920  0.4887 -0.9307
   85SAPS  H15Y 8135  -0.701   4.956   9.365  1.1764 -2.5511 -0.6231
   85SAPS  C316 8136  -0.546   4.996   9.212  0.4710  0.3710 -0.5106
   85SAPS  H16X 8137  -0.633   5.004   9.143 -0.2349 -0.3823  0.2815
   85SAPS  H16Y 8138  -0.487   4.906   9.185  0.7458 -0.0221  1.3174
   85SAPS  C317 8139  -0.452   5.114   9.188  0.2843  0.6927  0.9254
   85SAPS  H17X 8140  -0.378   5.119   9.271 -0.0027  1.8036  1.1255
   85SAPS  H17Y 8141  -0.512   5.207   9.179 -3.7612 -1.6154  1.7021
   85SAPS  C318 8142  -0.371   5.103   9.057  0.4441  0.6892 -0.2247
   85SAPS  H18X 8143  -0.314   5.009   9.074  1.6104  1.0554 -1.9295
   85SAPS  H18Y 8144  -0.298   5.186   9.042  0.9340 -0.0547 -2.2256
   85SAPS  H18Z 8145  -0.428   5.086   8.963  0.3886  0.3154 -0.1251
   86SAPS     N 8146   2.770   5.070  11.320  0.6135 -0.2568 -0.6972
   86SAPS   HN1 8147   2.719   5.000  11.378 -1.3303  0.0202 -1.9510
   86SAPS   HN2 8148   2.781   5.030  11.224  0.9202  0.3015 -0.8954
   86SAPS   HN3 8149   2.860   5.109  11.353 -1.0555  3.1152  0.3072
   86SAPS   C12 8150   2.670   5.186  11.300 -0.5397 -0.4295 -0.4827
   86SAPS  H12A 8151   2.605   5.149  11.222  0.2393 -1.5527 -0.6098
   86SAPS   C13 8152   2.586   5.214  11.424 -0.6944 -0.9456  0.2338
   86SAPS  O13A 8153   2.596   5.133  11.522 -0.3588 -0.1207 -0.0106
   86SAPS  O13B 8154   2.510   5.315  11.428  0.0253 -0.2463 -0.2837
   86SAPS   C11 8155   2.746   5.316  11.248  0.1567  0.8763 -0.0789
   86SAPS  H11A 8156   2.817   5.345  11.328  2.1102 -0.9201 -1.0502
   86SAPS  H11B 8157   2.667   5.393  11.237  0.0209  0.5077 -2.0584
   86SAPS     P 8158   2.942   5.394  11.089  0.2800  0.0893  0.0606
   86SAPS   O13 8159   2.927   5.517  11.169 -0.2471  0.1846  0.0367
   86SAPS   O14 8160   3.065   5.310  11.101  0.1898 -0.2128 -0.1343
   86SAPS   O12 8161   2.816   5.298  11.118 -0.4976 -0.4857  0.6092
   86SAPS   O11 8162   2.931   5.418  10.943  0.1387 -0.2865 -0.6433
   86SAPS    C1 8163   2.861   5.524  10.882 -0.7130 -0.0930 -0.7740
   86SAPS    HA 8164   2.762   5.556  10.922 -1.1743 -0.8821 -1.2576
   86SAPS    HB 8165   2.928   5.613  10.882 -1.6846  0.7512  1.8914
   86SAPS    C2 8166   2.831   5.495  10.736  0.4227 -0.5117  0.1180
   86SAPS    HS 8167   2.759   5.414  10.715 -0.1206  0.2149 -0.9278
   86SAPS   O21 8168   2.956   5.480  10.667  0.2779 -0.2153  0.5368
   86SAPS   C21 8169   2.977   5.348  10.619  0.2331  0.2491  0.3110
   86SAPS   O22 8170   2.898   5.260  10.636  0.0934  0.9742 -0.6642
   86SAPS   C22 8171   3.096   5.336  10.533 -0.0792 -1.0933  0.3613
   86SAPS   H2R 8172   3.160   5.425  10.549 -2.1635  0.1335  2.4467
   86SAPS   H2S 8173   3.152   5.246  10.567 -1.2019 -1.6583  0.7778
   86SAPS    C3 8174   2.757   5.614  10.666 -0.2368  0.4403  0.2076
   86SAPS    HX 8175   2.832   5.694  10.685 -0.4119  0.4227  1.0319
   86SAPS    HY 8176   2.661   5.627  10.720 -0.6447 -0.6079 -0.2409
   86SAPS   O31 8177   2.752   5.599  10.522 -0.8373  0.4550  0.2261
   86SAPS   C31 8178   2.659   5.513  10.488 -0.1539 -0.3503  0.0865
   86SAPS   O32 8179   2.572   5.472  10.561 -0.1494  0.1301  0.5436
   86SAPS   C32 8180   2.675   5.482  10.337  0.4195  0.5037  0.4928
   86SAPS   H2X 8181   2.777   5.448  10.310  0.3422  1.5413 -1.2381
   86SAPS   H2Y 8182   2.659   5.576  10.281  1.5498  0.3010 -0.1808
   86SAPS   C23 8183   3.048   5.313  10.382  0.1150 -0.1767 -0.0495
   86SAPS   H3R 8184   3.007   5.408  10.341  2.6147  0.3679 -1.4707
   86SAPS   H3S 8185   2.966   5.238  10.380 -0.2216  0.1962 -1.3849
   86SAPS   C24 8186   3.163   5.274  10.291 -0.1716 -0.6557 -0.2972
   86SAPS   H4R 8187   3.112   5.267  10.192  1.1566 -1.4716 -0.9566
   86SAPS   H4S 8188   3.212   5.176  10.305  0.9508  0.0461  0.8842
   86SAPS   C25 8189   3.267   5.382  10.272  0.2960 -0.2780  0.7399
   86SAPS   H5R 8190   3.346   5.382  10.348  1.3572  1.7362 -0.2771
   86SAPS   C26 8191   3.280   5.473  10.172 -0.9076  0.0131  0.0989
   86SAPS   H6R 8192   3.369   5.538  10.171 -0.7944 -0.1274  0.8601
   86SAPS   C27 8193   3.184   5.492  10.057  0.0377 -0.3650 -0.5847
   86SAPS   H7R 8194   3.095   5.529  10.112  1.4583  0.0917  1.5151
   86SAPS   H7S 8195   3.164   5.391  10.014 -1.2414 -0.1273 -0.6109
   86SAPS   C28 8196   3.232   5.589   9.948 -0.8342 -0.4101  0.7685
   86SAPS   H8R 8197   3.286   5.677   9.985  0.8945 -1.0982  0.0329
   86SAPS   C29 8198   3.222   5.580   9.814  0.3699  0.8523  0.3600
   86SAPS   H9R 8199   3.272   5.652   9.748  0.2235  0.8930  0.2940
   86SAPS  C210 8200   3.143   5.465   9.746  0.1797  0.8652  0.7748
   86SAPS  H10R 8201   3.043   5.508   9.722 -0.1871 -0.6645 -0.5530
   86SAPS  H10S 8202   3.121   5.379   9.813  0.4540  0.8561  0.8552
   86SAPS  C211 8203   3.202   5.412   9.610  0.7524 -0.3739  0.1154
   86SAPS  H11R 8204   3.268   5.324   9.609  0.7045 -0.4013 -0.6800
   86SAPS  C212 8205   3.171   5.470   9.490 -0.2171 -0.0002  0.7161
   86SAPS  H12R 8206   3.218   5.430   9.399 -1.3184 -1.1244  0.6153
   86SAPS  C213 8207   3.097   5.598   9.462 -0.1658  0.2132 -0.2460
   86SAPS  H13R 8208   3.084   5.644   9.562 -1.5515 -2.1774  0.7710
   86SAPS  H13S 8209   2.993   5.573   9.432  0.1477  0.1247 -1.2947
   86SAPS  C214 8210   3.148   5.685   9.348  0.7271  0.3635 -0.3629
   86SAPS  H14R 8211   3.223   5.757   9.383  2.1399 -1.9462  1.7287
   86SAPS  C215 8212   3.130   5.676   9.217  0.0254  0.3194  0.6531
   86SAPS  H15R 8213   3.179   5.742   9.144 -1.5069 -0.7954 -1.4997
   86SAPS  C216 8214   3.060   5.566   9.146 -0.3265 -0.0073 -0.5759
   86SAPS  H16R 8215   2.967   5.535   9.197 -0.9236  1.5758 -0.6347
   86SAPS  H16S 8216   3.126   5.479   9.165 -1.7762 -0.8495  0.8365
   86SAPS  C217 8217   3.033   5.590   8.991 -0.2644 -0.4634  0.4434
   86SAPS  H17R 8218   3.132   5.600   8.941 -0.2727 -0.8503  0.3434
   86SAPS  H17S 8219   2.968   5.679   8.980  1.1206  0.7613  1.7306
   86SAPS  C218 8220   2.964   5.468   8.929 -0.2295 -1.1151 -0.3361
   86SAPS  H18R 8221   2.876   5.436   8.989 -0.3383  1.2275  0.8761
   86SAPS  H18S 8222   3.033   5.382   8.928  0.3896 -0.6518 -2.5602
   86SAPS  C219 8223   2.911   5.499   8.791  0.0219 -0.5835  0.2513
   86SAPS  H19R 8224   2.822   5.565   8.784 -0.3134 -1.1618 -1.3841
   86SAPS  H19S 8225   2.854   5.412   8.753 -0.3869 -1.5296  2.8458
   86SAPS  C220 8226   3.006   5.531   8.678 -0.7225  0.6942  0.0139
   86SAPS  H20R 8227   3.056   5.630   8.676  2.8599 -0.9192 -2.2384
   86SAPS  H20S 8228   2.954   5.522   8.580 -2.8267 -0.1807  1.1597
   86SAPS  H20T 8229   3.095   5.464   8.680 -1.5184 -0.4634  3.3432
   86SAPS   C33 8230   2.572   5.378  10.291 -0.0757 -0.6455  0.5969
   86SAPS   H3X 8231   2.468   5.405  10.321 -0.1915 -0.1894 -0.1825
   86SAPS   H3Y 8232   2.604   5.287  10.345  4.1211 -0.2303 -0.8559
   86SAPS   C34 8233   2.575   5.350  10.141 -0.4084  0.4730  0.3595
   86SAPS   H4X 8234   2.546   5.442  10.086  0.9702  1.4205  1.1725
   86SAPS   H4Y 8235   2.486   5.291  10.109 -0.3276  0.9131 -0.7384
   86SAPS   C35 8236   2.705   5.294  10.089 -0.2054 -0.3564  0.2355
   86SAPS   H5X 8237   2.745   5.217  10.158  0.4828 -0.4044 -0.2046
   86SAPS   H5Y 8238   2.787   5.368  10.099  0.5187 -1.2350  1.0892
   86SAPS   C36 8239   2.706   5.247   9.944  0.4170  0.3791 -1.0712
   86SAPS   H6X 8240   2.610   5.191   9.932  1.1196 -1.0287 -0.3988
   86SAPS   H6Y 8241   2.790   5.176   9.926 -0.2423 -0.6423 -0.2839
   86SAPS   C37 8242   2.713   5.358   9.839 -0.8600  0.2600 -1.3108
   86SAPS   H7X 8243   2.816   5.395   9.821 -0.8047  0.7334 -0.1481
   86SAPS   H7Y 8244   2.651   5.442   9.880 -1.4212 -1.2310  1.1209
   86SAPS   C38 8245   2.662   5.309   9.700 -0.2472  0.3807  0.0053
   86SAPS   H8X 8246   2.552   5.295   9.699 -0.1733 -1.0626  2.7856
   86SAPS   H8Y 8247   2.712   5.217   9.664 -4.4169 -0.8428 -3.4131
   86SAPS   C39 8248   2.698   5.417   9.591 -0.1506 -0.1294  0.2157
   86SAPS   H9X 8249   2.788   5.479   9.614 -0.6843  0.3579  1.0598
   86SAPS   H9Y 8250   2.610   5.477   9.560 -0.7935 -1.9029 -1.5885
   86SAPS  C310 8251   2.714   5.349   9.453  0.1862  0.1551  0.4909
   86SAPS  H10X 8252   2.795   5.272   9.458 -1.1400 -1.3256 -0.1386
   86SAPS  H10Y 8253   2.745   5.422   9.375  1.7906 -0.6901  0.2792
   86SAPS  C311 8254   2.578   5.286   9.412  0.1577 -0.3628  0.0959
   86SAPS  H11X 8255   2.486   5.346   9.428 -0.5279 -1.6429  1.2046
   86SAPS  H11Y 8256   2.577   5.197   9.479  0.2816 -1.5862 -1.4693
   86SAPS  C312 8257   2.582   5.229   9.270 -0.0195 -0.6714  0.2336
   86SAPS  H12X 8258   2.495   5.161   9.259 -2.6693  2.5357 -0.2067
   86SAPS  H12Y 8259   2.675   5.175   9.244  1.2846  1.0517  1.1879
   86SAPS  C313 8260   2.547   5.339   9.170 -0.1956  0.6847 -0.7479
   86SAPS  H13X 8261   2.621   5.421   9.182  1.2206 -0.3283 -2.1132
   86SAPS  H13Y 8262   2.459   5.388   9.216  0.0486 -0.8959  1.5930
   86SAPS  C314 8263   2.559   5.286   9.022 -0.1117 -0.0483  0.4900
   86SAPS  H14X 8264   2.476   5.213   9.008 -0.9917  1.0389 -0.1599
   86SAPS  H14Y 8265   2.654   5.229   9.016  0.0621  0.0259  2.1734
   86SAPS  C315 8266   2.536   5.400   8.921  0.1896 -0.3018  0.2281
   86SAPS  H15X 8267   2.601   5.485   8.950 -0.8645  0.6096 -0.0001
   86SAPS  H15Y 8268   2.433   5.437   8.940  1.2445  2.8321  0.4279
   86SAPS  C316 8269   2.544   5.374   8.773  0.3520 -0.0658 -0.0491
   86SAPS  H16X 8270   2.652   5.354   8.759  0.3496  1.1984 -2.2153
   86SAPS  H16Y 8271   2.515   5.460   8.710  2.6907  0.9234  0.1236
   86SAPS  C317 8272   2.471   5.249   8.744  0.2125  0.3747  0.2285
   86SAPS  H17X 8273   2.372   5.240   8.794  0.9918 -0.4302  1.6795
   86SAPS  H17Y 8274   2.522   5.159   8.783 -1.0199 -0.9161 -1.0252
   86SAPS  C318 8275   2.435   5.238   8.598 -0.4229  0.3174 -0.3985
   86SAPS  H18X 8276   2.517   5.264   8.527  0.9722  1.2203  1.4488
   86SAPS  H18Y 8277   2.351   5.306   8.575 -0.5974  0.5501  0.8831
   86SAPS  H18Z 8278   2.403   5.133   8.581  1.7485 -0.6735  1.1083
   87SAPS     N 8279   3.034   5.664  11.368  0.4973 -0.3960 -0.0172
   87SAPS   HN1 8280   2.950   5.637  11.422  0.5378 -1.1256 -0.2999
   87SAPS   HN2 8281   3.021   5.634  11.269 -1.3800  0.9701 -0.2322
   87SAPS   HN3 8282   3.110   5.606  11.410 -0.2830 -2.3276 -1.1173
   87SAPS   C12 8283   3.076   5.806  11.355  0.4609 -0.4816 -0.0424
   87SAPS  H12A 8284   2.985   5.865  11.355 -0.1673 -1.4282 -0.9142
   87SAPS   C13 8285   3.168   5.863  11.464  0.2990 -0.2224  0.2881
   87SAPS  O13A 8286   3.209   5.796  11.564 -0.3982  0.2433  0.2937
   87SAPS  O13B 8287   3.185   5.989  11.465 -0.1597  0.3343  0.3115
   87SAPS   C11 8288   3.142   5.822  11.221  0.5808  0.5429  0.9435
   87SAPS  H11A 8289   3.197   5.918  11.222  0.1306  0.8103  0.4558
   87SAPS  H11B 8290   3.067   5.823  11.139  0.6648  0.5488  0.8675
   87SAPS     P 8291   3.378   5.725  11.142  0.2176 -0.3342  0.3810
   87SAPS   O13 8292   3.425   5.865  11.159  0.2078  0.3488  0.3176
   87SAPS   O14 8293   3.458   5.616  11.198  0.3644 -0.2718 -0.0069
   87SAPS   O12 8294   3.233   5.707  11.188 -0.2103 -0.4114  0.2164
   87SAPS   O11 8295   3.361   5.692  10.996 -0.3515 -0.2367  0.4405
   87SAPS    C1 8296   3.283   5.583  10.945 -0.0167 -0.1374  0.7527
   87SAPS    HA 8297   3.337   5.487  10.957  0.4082  0.0089  0.0688
   87SAPS    HB 8298   3.185   5.568  10.995 -0.7284  0.9749 -0.2706
   87SAPS    C2 8299   3.258   5.599  10.791 -0.4989  0.4690 -0.9115
   87SAPS    HS 8300   3.175   5.529  10.769  0.5307 -1.3867  0.7502
   87SAPS   O21 8301   3.384   5.565  10.723  0.2419 -0.2633  0.4628
   87SAPS   C21 8302   3.401   5.437  10.713  0.0535 -0.7920 -0.3772
   87SAPS   O22 8303   3.326   5.347  10.747 -0.2474 -0.4878 -0.6587
   87SAPS   C22 8304   3.539   5.420  10.655 -0.0767  0.1941 -0.3884
   87SAPS   H2R 8305   3.612   5.498  10.686 -0.2870 -0.0250  0.7268
   87SAPS   H2S 8306   3.573   5.316  10.674 -1.9668 -0.4647 -0.3641
   87SAPS    C3 8307   3.208   5.740  10.750 -0.4155 -0.1537  0.6628
   87SAPS    HX 8308   3.284   5.817  10.726 -2.3284  1.4313 -0.6830
   87SAPS    HY 8309   3.132   5.766  10.827  0.4797 -2.2120  2.3556
   87SAPS   O31 8310   3.139   5.726  10.628  0.0235 -0.1595 -0.3230
   87SAPS   C31 8311   3.092   5.833  10.573 -0.8062 -0.6851  0.4900
   87SAPS   O32 8312   3.078   5.943  10.622  0.1024 -0.1990  0.2929
   87SAPS   C32 8313   3.025   5.791  10.447  0.2219  0.6034 -0.2581
   87SAPS   H2X 8314   2.923   5.765  10.480  0.3474  1.8378  1.1869
   87SAPS   H2Y 8315   3.070   5.697  10.408 -1.2062 -0.5417  0.7743
   87SAPS   C23 8316   3.521   5.426  10.497 -0.3578  0.3448  0.2376
   87SAPS   H3R 8317   3.458   5.507  10.456 -2.3291 -1.3473 -0.2406
   87SAPS   H3S 8318   3.473   5.331  10.467 -1.2400  1.3110 -1.5810
   87SAPS   C24 8319   3.651   5.433  10.414  0.2219 -0.3200  0.3439
   87SAPS   H4R 8320   3.691   5.536  10.418  0.8607 -0.5554  0.2246
   87SAPS   H4S 8321   3.624   5.408  10.309 -0.2850  0.5056  0.2712
   87SAPS   C25 8322   3.756   5.341  10.475  0.3652 -0.6041 -0.5760
   87SAPS   H5R 8323   3.773   5.373  10.579 -0.7250  0.2852 -0.6442
   87SAPS   C26 8324   3.834   5.249  10.413  0.2025 -0.4617  0.1510
   87SAPS   H6R 8325   3.904   5.191  10.475  0.8399  0.2680  0.1252
   87SAPS   C27 8326   3.818   5.203  10.274  0.2193  0.4498 -0.4674
   87SAPS   H7R 8327   3.710   5.178  10.266  0.3279 -0.7208  1.2602
   87SAPS   H7S 8328   3.875   5.108  10.263  0.2567  0.1338  1.9334
   87SAPS   C28 8329   3.863   5.297  10.171  0.0177 -0.3074  0.8202
   87SAPS   H8R 8330   3.963   5.336  10.194 -0.3999 -0.4657  3.1473
   87SAPS   C29 8331   3.805   5.334  10.057 -0.5408  0.9131 -0.0529
   87SAPS   H9R 8332   3.860   5.408   9.997 -0.4052  1.1444  0.3577
   87SAPS  C210 8333   3.681   5.284   9.995 -0.0289  0.1905 -1.0940
   87SAPS  H10R 8334   3.606   5.259  10.073 -0.4002  2.4795 -0.6445
   87SAPS  H10S 8335   3.699   5.184   9.950  1.8882  1.3213 -3.0166
   87SAPS  C211 8336   3.628   5.379   9.887  0.9550  0.5935 -0.5705
   87SAPS  H11R 8337   3.599   5.477   9.926 -1.7961 -0.8606  1.4079
   87SAPS  C212 8338   3.623   5.341   9.754 -0.5779  0.5328 -0.3955
   87SAPS  H12R 8339   3.600   5.425   9.688  2.2411  2.7528  1.1955
   87SAPS  C213 8340   3.674   5.217   9.682 -0.3987  0.5661 -0.4288
   87SAPS  H13R 8341   3.696   5.128   9.746  1.5538  0.8677 -0.6168
   87SAPS  H13S 8342   3.772   5.250   9.642  1.9081  0.3241  4.3275
   87SAPS  C214 8343   3.576   5.183   9.573 -0.2996  0.4265 -0.3688
   87SAPS  H14R 8344   3.498   5.110   9.598  1.5788 -1.9241 -0.9901
   87SAPS  C215 8345   3.577   5.220   9.441  0.1862 -0.5933 -0.6920
   87SAPS  H15R 8346   3.494   5.177   9.383  0.5822 -1.8396 -0.3782
   87SAPS  C216 8347   3.671   5.314   9.374  0.1231  0.1604 -0.8343
   87SAPS  H16R 8348   3.773   5.271   9.387  0.1461 -0.2756 -2.3318
   87SAPS  H16S 8349   3.675   5.412   9.427  1.0044  0.5731 -1.6342
   87SAPS  C217 8350   3.644   5.323   9.223 -0.2561  0.0407  0.0009
   87SAPS  H17R 8351   3.692   5.418   9.192  0.2176 -0.3734 -0.5424
   87SAPS  H17S 8352   3.537   5.339   9.198 -0.0060  2.3994  0.2738
   87SAPS  C218 8353   3.712   5.204   9.147 -0.4707 -1.0457  0.2806
   87SAPS  H18R 8354   3.664   5.109   9.182  0.4737 -1.8855 -0.6450
   87SAPS  H18S 8355   3.820   5.199   9.172  0.0322  1.4703 -1.1222
   87SAPS  C219 8356   3.699   5.224   8.994  0.3116 -0.0953  0.3103
   87SAPS  H19R 8357   3.749   5.318   8.964  0.0210  0.0584  0.2991
   87SAPS  H19S 8358   3.590   5.233   8.971 -0.1548  2.3326  2.8213
   87SAPS  C220 8359   3.773   5.119   8.922  0.4033  0.5391 -0.1304
   87SAPS  H20R 8360   3.871   5.098   8.971  1.0745  1.7138 -0.9109
   87SAPS  H20S 8361   3.780   5.146   8.814 -1.0015 -0.9519 -0.6354
   87SAPS  H20T 8362   3.716   5.024   8.923 -0.2446  0.9193  1.6598
   87SAPS   C33 8363   3.021   5.897  10.336 -0.3049  0.6738  0.1345
   87SAPS   H3X 8364   3.120   5.944  10.316 -0.2538 -0.4460 -2.7510
   87SAPS   H3Y 8365   2.938   5.966  10.364 -0.6930 -0.2358  1.3090
   87SAPS   C34 8366   3.008   5.830  10.194  0.2624  0.1056 -0.4071
   87SAPS   H4X 8367   3.104   5.791  10.154  1.2598  1.1952  0.8454
   87SAPS   H4Y 8368   2.987   5.897  10.107  2.4720 -0.0053 -1.0872
   87SAPS   C35 8369   2.899   5.723  10.193  0.0099  0.2885 -0.2220
   87SAPS   H5X 8370   2.810   5.766  10.243 -0.0233 -1.5904  1.4160
   87SAPS   H5Y 8371   2.931   5.634  10.251  2.1589  1.2194  0.1107
   87SAPS   C36 8372   2.849   5.694  10.049 -0.0013  0.5330 -0.0946
   87SAPS   H6X 8373   2.816   5.588  10.047  0.1641  0.4807 -0.0280
   87SAPS   H6Y 8374   2.943   5.704   9.991  1.1110  1.8197  1.8260
   87SAPS   C37 8375   2.740   5.791  10.007 -0.1492  0.8627  0.8010
   87SAPS   H7X 8376   2.780   5.894   9.998  0.5563  0.5237 -0.0774
   87SAPS   H7Y 8377   2.658   5.790  10.082 -1.4672  3.5153 -0.4896
   87SAPS   C38 8378   2.681   5.756   9.865  0.0183  0.8394  0.2211
   87SAPS   H8X 8379   2.583   5.809   9.864  0.9658  2.8111  2.4527
   87SAPS   H8Y 8380   2.656   5.650   9.843  2.5710 -0.1174  1.5826
   87SAPS   C39 8381   2.774   5.804   9.754 -0.1093  0.1406 -0.1467
   87SAPS   H9X 8382   2.864   5.739   9.754 -0.4953 -0.4042  0.9002
   87SAPS   H9Y 8383   2.798   5.911   9.771 -0.0071  0.1798 -0.5219
   87SAPS  C310 8384   2.711   5.800   9.608 -0.0006 -0.1218 -1.1875
   87SAPS  H10X 8385   2.619   5.862   9.602  0.4010  0.9440  1.7149
   87SAPS  H10Y 8386   2.689   5.693   9.592 -1.8835  0.3443 -2.0520
   87SAPS  C311 8387   2.808   5.849   9.498 -0.1311  0.2307  0.0309
   87SAPS  H11X 8388   2.892   5.777   9.490 -1.4348 -1.6494  2.0168
   87SAPS  H11Y 8389   2.855   5.943   9.532  4.3433 -2.0437  0.8819
   87SAPS  C312 8390   2.730   5.876   9.374  0.5699  0.0862 -0.1588
   87SAPS  H12X 8391   2.786   5.952   9.316  0.9440 -1.0766 -1.3716
   87SAPS  H12Y 8392   2.634   5.924   9.403  0.2853 -0.3942 -0.2940
   87SAPS  C313 8393   2.709   5.750   9.294  0.1711  0.3950 -0.3266
   87SAPS  H13X 8394   2.652   5.678   9.357  1.9779  0.5699  1.5805
   87SAPS  H13Y 8395   2.809   5.708   9.271  0.7272  0.7673  1.3590
   87SAPS  C314 8396   2.635   5.776   9.157  0.3397 -0.0688  0.2422
   87SAPS  H14X 8397   2.634   5.680   9.100  0.7258 -0.3660  0.7261
   87SAPS  H14Y 8398   2.697   5.846   9.097 -0.2240 -0.3973 -0.7536
   87SAPS  C315 8399   2.491   5.823   9.193  0.4013 -0.6621  0.4553
   87SAPS  H15X 8400   2.498   5.922   9.243  1.5093 -0.6526  0.3049
   87SAPS  H15Y 8401   2.463   5.754   9.276  0.3981  0.8061  1.7131
   87SAPS  C316 8402   2.380   5.819   9.087  0.1938  0.1247  0.2367
   87SAPS  H16X 8403   2.284   5.867   9.116 -0.8214  0.1238 -2.7489
   87SAPS  H16Y 8404   2.358   5.713   9.062 -1.0053  0.4017  0.0171
   87SAPS  C317 8405   2.441   5.880   8.954 -0.2657  0.5289  0.1431
   87SAPS  H17X 8406   2.516   5.811   8.909 -0.0499  1.1376 -0.4483
   87SAPS  H17Y 8407   2.485   5.979   8.978 -0.4809  0.1159  2.4934
   87SAPS  C318 8408   2.347   5.896   8.833  0.7268 -0.4326  0.4666
   87SAPS  H18X 8409   2.405   5.922   8.742 -0.2294 -0.9273 -0.3045
   87SAPS  H18Y 8410   2.281   5.985   8.838  0.3998 -0.6240 -0.3494
   87SAPS  H18Z 8411   2.283   5.809   8.807  0.0940  1.1016 -3.9123
   88SAPS     N 8412   4.681   5.028  11.095 -0.4961  0.0572  0.1263
   88SAPS   HN1 8413   4.715   5.053  11.000  2.9049 -3.0597  0.3090
   88SAPS   HN2 8414   4.635   4.937  11.075 -0.3972 -0.1063  0.6366
   88SAPS   HN3 8415   4.610   5.103  11.112  0.7666  1.0402  1.3204
   88SAPS   C12 8416   4.786   5.033  11.198  0.0746 -0.1678  0.3709
   88SAPS  H12A 8417   4.809   5.138  11.203 -2.8585  0.6036 -0.4788
   88SAPS   C13 8418   4.758   4.989  11.352  1.2351 -0.2277  0.0986
   88SAPS  O13A 8419   4.637   4.955  11.376 -0.0140  0.4285  0.5800
   88SAPS  O13B 8420   4.827   5.041  11.445 -0.0747 -0.4200 -0.1074
   88SAPS   C11 8421   4.903   4.953  11.131  0.6419  0.3287  0.0931
   88SAPS  H11A 8422   4.871   4.849  11.110  0.4902  0.6077 -1.1021
   88SAPS  H11B 8423   4.984   4.942  11.206 -0.6434 -0.0381  1.4770
   88SAPS     P 8424   5.070   4.950  10.925  0.1320 -0.0985 -0.6201
   88SAPS   O13 8425   5.187   5.038  10.914  0.0887 -0.4716 -0.2079
   88SAPS   O14 8426   5.105   4.823  10.999 -0.0160 -0.4994 -0.2788
   88SAPS   O12 8427   4.951   5.014  11.006  0.5967 -0.0699  0.8354
   88SAPS   O11 8428   5.025   4.910  10.781 -0.7065 -0.2176 -0.0638
   88SAPS    C1 8429   4.936   4.983  10.706  0.4869  0.2505  0.0826
   88SAPS    HA 8430   4.829   4.954  10.720  0.5955 -0.0145  0.3573
   88SAPS    HB 8431   4.945   5.089  10.737  1.4567  0.2200 -0.0887
   88SAPS    C2 8432   4.951   4.959  10.550  0.1360 -0.9579 -1.0548
   88SAPS    HS 8433   4.895   5.036  10.494  1.9571  1.3778  0.1269
   88SAPS   O21 8434   4.910   4.823  10.531 -0.0028  0.4252  0.9280
   88SAPS   C21 8435   4.848   4.802  10.413  0.3596  0.6298  0.2439
   88SAPS   O22 8436   4.815   4.885  10.335  1.1780  0.5424  0.5526
   88SAPS   C22 8437   4.827   4.650  10.402  0.0086 -0.0089  0.0464
   88SAPS   H2R 8438   4.825   4.594  10.498 -2.8451 -0.9452 -0.4686
   88SAPS   H2S 8439   4.730   4.628  10.352 -0.1508  0.3752  0.1875
   88SAPS    C3 8440   5.102   4.971  10.515 -0.0520  0.4432 -0.4568
   88SAPS    HX 8441   5.159   4.890  10.566  0.0893  0.8642  0.0654
   88SAPS    HY 8442   5.155   5.064  10.544  0.1840  0.5793 -1.2983
   88SAPS   O31 8443   5.126   4.949  10.374  0.0613 -0.1303  0.0368
   88SAPS   C31 8444   5.087   5.052  10.300 -0.4479 -0.0705  0.9236
   88SAPS   O32 8445   5.070   5.168  10.342 -0.4183  0.1612 -0.0062
   88SAPS   C32 8446   5.100   5.019  10.149  0.2037 -0.0378  0.0378
   88SAPS   H2X 8447   5.001   4.974  10.128  0.2831 -0.2941  0.2055
   88SAPS   H2Y 8448   5.179   4.941  10.137  0.2104 -0.5396  2.7026
   88SAPS   C23 8449   4.930   4.578  10.308  0.3131  0.2816 -0.3796
   88SAPS   H3R 8450   4.929   4.469  10.330 -0.4723  0.5102  0.8620
   88SAPS   H3S 8451   5.034   4.601  10.340  0.1706  1.3044 -0.6023
   88SAPS   C24 8452   4.898   4.601  10.163  0.3353  0.0580 -0.1901
   88SAPS   H4R 8453   4.907   4.708  10.133 -1.2858  0.0257 -0.8796
   88SAPS   H4S 8454   4.791   4.574  10.154  0.6112 -1.1196 -0.0055
   88SAPS   C25 8455   4.984   4.519  10.077 -0.2274  0.7631 -0.1650
   88SAPS   H5R 8456   5.036   4.433  10.121 -1.9911 -0.9823 -1.3272
   88SAPS   C26 8457   4.993   4.544   9.941  0.2334  0.3206 -0.0485
   88SAPS   H6R 8458   5.066   4.479   9.890  0.8979 -0.5966  1.9803
   88SAPS   C27 8459   4.916   4.640   9.857  0.8530 -0.1669  0.2333
   88SAPS   H7R 8460   4.811   4.661   9.890  0.7093 -1.7909  0.8744
   88SAPS   H7S 8461   4.925   4.576   9.767  4.9543  0.3859  0.0606
   88SAPS   C28 8462   5.000   4.765   9.832  0.1399  0.2501  0.0995
   88SAPS   H8R 8463   5.033   4.813   9.925  1.2740  1.4110 -0.8674
   88SAPS   C29 8464   5.046   4.810   9.717 -0.0812 -0.2812  0.0223
   88SAPS   H9R 8465   5.120   4.891   9.725 -0.7778  0.6036 -2.0595
   88SAPS  C210 8466   5.014   4.753   9.579 -0.3527 -0.0416  0.6044
   88SAPS  H10R 8467   4.988   4.844   9.522  3.1817  0.8736  0.2271
   88SAPS  H10S 8468   4.915   4.702   9.587 -0.2349 -0.5495 -0.8349
   88SAPS  C211 8469   5.108   4.649   9.525 -0.7289  0.1068  0.8499
   88SAPS  H11R 8470   5.108   4.556   9.584  0.2661  0.8171  2.0295
   88SAPS  C212 8471   5.161   4.639   9.400  0.4634  0.3020 -0.4268
   88SAPS  H12R 8472   5.229   4.553   9.385 -0.0979 -0.0530 -1.0147
   88SAPS  C213 8473   5.150   4.746   9.291 -0.0372 -0.0565 -0.5025
   88SAPS  H13R 8474   5.247   4.784   9.253  0.4686 -0.7699  0.0414
   88SAPS  H13S 8475   5.103   4.830   9.346  1.4453 -0.4474  1.4942
   88SAPS  C214 8476   5.065   4.696   9.179 -0.6076 -0.0743 -0.8648
   88SAPS  H14R 8477   4.970   4.654   9.217  0.3048 -0.1023  1.5850
   88SAPS  C215 8478   5.097   4.689   9.050  1.0539  0.4118 -0.0653
   88SAPS  H15R 8479   5.024   4.657   8.975  0.8922 -0.5712  0.4859
   88SAPS  C216 8480   5.231   4.725   8.995 -0.3243  1.2119  0.3585
   88SAPS  H16R 8481   5.307   4.656   9.037 -2.0068 -0.8964  0.1465
   88SAPS  H16S 8482   5.253   4.824   9.040 -2.0196  2.0159 -0.4895
   88SAPS  C217 8483   5.238   4.715   8.838  0.1179  0.1077 -0.1866
   88SAPS  H17R 8484   5.205   4.621   8.789 -0.0576 -0.7125  1.4216
   88SAPS  H17S 8485   5.344   4.728   8.808 -0.9160  1.9646 -3.5239
   88SAPS  C218 8486   5.158   4.827   8.762  1.0306  0.0361 -0.5971
   88SAPS  H18R 8487   5.181   4.916   8.824 -1.2311 -0.1732  0.6284
   88SAPS  H18S 8488   5.048   4.814   8.769  1.0102  0.5818  0.2450
   88SAPS  C219 8489   5.202   4.846   8.624  0.3731 -0.6100  0.0330
   88SAPS  H19R 8490   5.178   4.754   8.566 -0.6342 -3.1825  4.1553
   88SAPS  H19S 8491   5.312   4.846   8.637  0.3398 -1.4826  0.3869
   88SAPS  C220 8492   5.143   4.975   8.555  0.3099 -0.1050 -0.1160
   88SAPS  H20R 8493   5.157   4.989   8.446  2.4032 -0.4083  0.0846
   88SAPS  H20S 8494   5.175   5.071   8.601 -1.3348  0.1851  0.5063
   88SAPS  H20T 8495   5.034   4.962   8.575  0.6850 -1.2107  1.4184
   88SAPS   C33 8496   5.123   5.136  10.048  0.1755 -0.1552  0.2962
   88SAPS   H3X 8497   5.208   5.201  10.081 -0.1436  1.0135 -1.0705
   88SAPS   H3Y 8498   5.038   5.207  10.036  0.5934  0.2748 -0.2192
   88SAPS   C34 8499   5.154   5.088   9.903 -0.0900 -0.0490  0.1068
   88SAPS   H4X 8500   5.065   5.032   9.869  0.1845  0.8165 -2.2040
   88SAPS   H4Y 8501   5.243   5.023   9.919  1.0892  1.7666  1.3325
   88SAPS   C35 8502   5.185   5.203   9.798  0.1551  0.0043 -0.1816
   88SAPS   H5X 8503   5.262   5.271   9.839 -0.0533  0.2080 -0.1244
   88SAPS   H5Y 8504   5.094   5.264   9.778  1.2155  1.9102  0.5303
   88SAPS   C36 8505   5.224   5.148   9.659 -0.0773 -0.3057 -0.1869
   88SAPS   H6X 8506   5.153   5.072   9.622  0.4840 -0.4881 -0.9288
   88SAPS   H6Y 8507   5.321   5.092   9.662 -0.2758 -0.6283  1.5183
   88SAPS   C37 8508   5.233   5.248   9.544  0.4114  0.2320 -0.3578
   88SAPS   H7X 8509   5.307   5.318   9.587  1.1840 -0.1419 -1.0408
   88SAPS   H7Y 8510   5.132   5.295   9.543  0.3402  0.3066  2.7597
   88SAPS   C38 8511   5.283   5.181   9.415  0.1702 -0.2555 -0.1414
   88SAPS   H8X 8512   5.195   5.122   9.382 -3.8903  3.9604  2.0289
   88SAPS   H8Y 8513   5.373   5.119   9.433  0.5456  0.0249 -0.9562
   88SAPS   C39 8514   5.315   5.297   9.319  0.3147 -0.1170  1.2820
   88SAPS   H9X 8515   5.391   5.367   9.360  2.7904 -1.1826 -1.0991
   88SAPS   H9Y 8516   5.227   5.360   9.295  0.5750  0.6730  2.3682
   88SAPS  C310 8517   5.369   5.236   9.185  0.1017 -0.0778 -0.7348
   88SAPS  H10X 8518   5.278   5.192   9.141  1.1992 -0.0173 -3.2107
   88SAPS  H10Y 8519   5.444   5.155   9.199 -0.1653 -0.2109 -0.0549
   88SAPS  C311 8520   5.427   5.341   9.087 -0.2376  0.0461 -0.1838
   88SAPS  H11X 8521   5.523   5.381   9.127 -0.4058  0.1837  0.0866
   88SAPS  H11Y 8522   5.347   5.418   9.080  0.1542  0.4249 -0.5915
   88SAPS  C312 8523   5.447   5.280   8.946  0.8558  0.1143 -0.4051
   88SAPS  H12X 8524   5.354   5.221   8.933  1.0701 -0.2683 -0.2356
   88SAPS  H12Y 8525   5.533   5.209   8.937  0.7416 -0.1439  0.5082
   88SAPS  C313 8526   5.455   5.388   8.840 -0.1230 -0.8417 -0.0527
   88SAPS  H13X 8527   5.525   5.467   8.874 -0.7808 -0.9255  1.6299
   88SAPS  H13Y 8528   5.355   5.436   8.830 -0.7684 -2.3406 -1.2171
   88SAPS  C314 8529   5.514   5.335   8.709 -0.0907 -0.0792  1.0037
   88SAPS  H14X 8530   5.533   5.226   8.704  0.5842  0.0391  0.9116
   88SAPS  H14Y 8531   5.611   5.390   8.710  0.3626 -0.7062 -1.4495
   88SAPS  C315 8532   5.436   5.392   8.585 -0.3587  0.1162 -0.3803
   88SAPS  H15X 8533   5.512   5.389   8.504  2.7296 -2.4197  2.3595
   88SAPS  H15Y 8534   5.411   5.498   8.606  0.9781  0.7672 -1.8377
   88SAPS  C316 8535   5.308   5.329   8.536 -0.8285  0.3408 -0.4601
   88SAPS  H16X 8536   5.236   5.315   8.620  0.8174 -0.0832  0.9311
   88SAPS  H16Y 8537   5.337   5.227   8.503 -3.0468 -0.7344  0.7102
   88SAPS  C317 8538   5.237   5.409   8.427 -0.7858 -0.0348 -0.2516
   88SAPS  H17X 8539   5.299   5.422   8.335  0.2164 -0.3201  0.3656
   88SAPS  H17Y 8540   5.201   5.507   8.463 -1.0730 -0.1662 -0.1794
   88SAPS  C318 8541   5.114   5.329   8.390 -0.0378 -0.5915 -0.4717
   88SAPS  H18X 8542   5.067   5.362   8.295  1.2730  0.9387 -0.6348
   88SAPS  H18Y 8543   5.038   5.334   8.470 -0.4607 -2.1891 -0.7317
   88SAPS  H18Z 8544   5.146   5.222   8.386 -0.4409 -0.6877 -1.7208
   89SAPS     N 8545   6.711   0.196  11.364 -0.1561  0.4818  0.8962
   89SAPS   HN1 8546   6.734   0.201  11.465  1.0037  1.7093  0.6064
   89SAPS   HN2 8547   6.649   0.271  11.326  0.5059 -0.5066 -2.4314
   89SAPS   HN3 8548   6.658   0.109  11.343  0.5119  0.7552 -2.4466
   89SAPS   C12 8549   6.838   0.187  11.285 -0.7750 -0.5969 -0.8332
   89SAPS  H12A 8550   6.858   0.285  11.244 -1.0770 -0.0774  0.2328
   89SAPS   C13 8551   6.966   0.166  11.373  0.0999  0.0610  0.5187
   89SAPS  O13A 8552   6.959   0.143  11.493  0.0614 -0.1784 -0.3638
   89SAPS  O13B 8553   7.077   0.157  11.307 -0.1386  0.1659  0.3212
   89SAPS   C11 8554   6.836   0.077  11.180 -0.3316 -0.5267 -0.0346
   89SAPS  H11A 8555   6.862  -0.018  11.231 -1.1090  0.3655  2.1243
   89SAPS  H11B 8556   6.917   0.108  11.110  1.2498 -2.0802  1.0167
   89SAPS     P 8557   6.673   0.134  10.972  0.2640 -0.2892 -0.2891
   89SAPS   O13 8558   6.561   0.064  10.906 -0.3768  0.3454 -0.2500
   89SAPS   O14 8559   6.663   0.281  10.987 -0.0637 -0.1710  0.2665
   89SAPS   O12 8560   6.709   0.074  11.115 -0.3074 -0.3226  0.2719
   89SAPS   O11 8561   6.806   0.109  10.888  0.5443  0.0471 -0.3811
   89SAPS    C1 8562   6.814  -0.002  10.801  0.0478 -0.1166  0.1896
   89SAPS    HA 8563   6.812  -0.099  10.856  1.5441  0.3023  1.0263
   89SAPS    HB 8564   6.728  -0.003  10.731  0.0917  1.7176  0.0759
   89SAPS    C2 8565   6.940   0.012  10.709 -0.5195  0.1104  0.4037
   89SAPS    HS 8566   7.031   0.028  10.771 -1.8594  1.7396  2.0756
   89SAPS   O21 8567   6.915   0.121  10.620  0.5673  0.3337  0.4202
   89SAPS   C21 8568   7.021   0.172  10.553  0.5121 -0.5233  0.5280
   89SAPS   O22 8569   7.135   0.146  10.570  0.4980  0.5769  0.0310
   89SAPS   C22 8570   6.961   0.249  10.434 -0.4662  0.8812 -0.0628
   89SAPS   H2R 8571   6.865   0.205  10.400 -1.0376 -0.1573  2.6954
   89SAPS   H2S 8572   6.954   0.357  10.460  0.2715  1.0969 -0.6867
   89SAPS    C3 8573   6.983  -0.123  10.636  0.7459 -0.1114  0.0393
   89SAPS    HX 8574   6.943  -0.209  10.693  0.8527 -0.0989  0.1337
   89SAPS    HY 8575   7.094  -0.124  10.645  0.8840  1.6826 -0.9675
   89SAPS   O31 8576   6.949  -0.134  10.494 -0.2638  0.1894 -0.1856
   89SAPS   C31 8577   6.829  -0.163  10.470  0.4921  0.4408  0.1659
   89SAPS   O32 8578   6.742  -0.187  10.551  0.0049 -0.0488  0.0850
   89SAPS   C32 8579   6.811  -0.172  10.319  0.9479  0.5340  0.5698
   89SAPS   H2X 8580   6.892  -0.229  10.270 -1.6402 -1.2638 -1.9889
   89SAPS   H2Y 8581   6.802  -0.071  10.273 -1.2394 -0.8866 -2.4367
   89SAPS   C23 8582   7.067   0.239  10.323 -0.0188  0.1901  0.2641
   89SAPS   H3R 8583   7.159   0.278  10.372  0.8804 -0.5893 -0.7222
   89SAPS   H3S 8584   7.026   0.306  10.245 -0.0430  0.4822  0.5262
   89SAPS   C24 8585   7.076   0.095  10.262  0.9682 -0.4071  0.4160
   89SAPS   H4R 8586   6.973   0.087  10.219  0.8004  1.0098  0.4920
   89SAPS   H4S 8587   7.109   0.019  10.335  0.5364 -1.1458 -0.1383
   89SAPS   C25 8588   7.177   0.093  10.145  0.2265 -0.0911  0.0647
   89SAPS   H5R 8589   7.276   0.122  10.182 -0.1676  0.4914  0.6979
   89SAPS   C26 8590   7.147   0.062  10.017  0.5718  0.9137  0.1895
   89SAPS   H6R 8591   7.229   0.046   9.945 -0.6869 -1.5158 -0.8226
   89SAPS   C27 8592   7.007   0.015   9.965 -0.0538 -0.3141 -0.1641
   89SAPS   H7R 8593   6.946   0.104   9.940  0.8110 -0.2286 -2.1628
   89SAPS   H7S 8594   6.950  -0.039  10.043 -0.3776  0.2704  0.0060
   89SAPS   C28 8595   7.000  -0.077   9.843  0.3405  0.2721  0.4627
   89SAPS   H8R 8596   6.932  -0.163   9.851 -1.2026  1.5457  1.4990
   89SAPS   C29 8597   7.066  -0.077   9.725 -0.1971 -0.0609 -0.6378
   89SAPS   H9R 8598   7.048  -0.160   9.655  1.6693 -0.7486 -0.3632
   89SAPS  C210 8599   7.168   0.019   9.675  0.2555  1.0073  0.6062
   89SAPS  H10R 8600   7.193  -0.023   9.575 -5.8462 -0.2341 -0.8160
   89SAPS  H10S 8601   7.269   0.026   9.720  0.5521  0.8269 -0.0135
   89SAPS  C211 8602   7.113   0.152   9.636  0.0615 -0.9937 -0.2302
   89SAPS  H11R 8603   7.007   0.168   9.661 -0.2145  0.5357 -2.1108
   89SAPS  C212 8604   7.180   0.254   9.576 -0.1089  0.2922  0.2859
   89SAPS  H12R 8605   7.133   0.351   9.554 -0.3862  0.3263  1.0213
   89SAPS  C213 8606   7.329   0.248   9.535  0.5420 -0.2523 -0.2297
   89SAPS  H13R 8607   7.341   0.200   9.436  1.5851  0.8950 -0.6794
   89SAPS  H13S 8608   7.384   0.174   9.597  0.2712 -2.0553 -2.0364
   89SAPS  C214 8609   7.416   0.372   9.540  0.2330  0.6056  0.7232
   89SAPS  H14R 8610   7.420   0.411   9.643 -0.2904  1.5587  0.3911
   89SAPS  C215 8611   7.478   0.424   9.436  0.4373 -0.1987 -0.4875
   89SAPS  H15R 8612   7.529   0.520   9.454 -1.3733  0.4343  1.6695
   89SAPS  C216 8613   7.476   0.379   9.297  0.9836  0.4956 -0.5888
   89SAPS  H16R 8614   7.417   0.286   9.280  0.0821  0.9297  0.0979
   89SAPS  H16S 8615   7.579   0.345   9.273  1.6757 -1.1036  3.7177
   89SAPS  C217 8616   7.421   0.488   9.201  0.8077  0.0264  0.4533
   89SAPS  H17R 8617   7.477   0.581   9.224 -1.1309  1.2748  0.3408
   89SAPS  H17S 8618   7.315   0.503   9.231  0.1412 -1.9227 -0.7052
   89SAPS  C218 8619   7.429   0.447   9.057 -0.1694 -0.3418  0.0446
   89SAPS  H18R 8620   7.355   0.368   9.031 -1.2784 -0.1703  2.3409
   89SAPS  H18S 8621   7.528   0.397   9.049 -0.4832 -0.6237 -3.7068
   89SAPS  C219 8622   7.440   0.568   8.952  0.0478 -0.6783  0.5891
   89SAPS  H19R 8623   7.445   0.523   8.850 -0.5895  1.8653 -0.6567
   89SAPS  H19S 8624   7.535   0.621   8.975 -0.7978  1.4345 -0.4653
   89SAPS  C220 8625   7.325   0.668   8.950  0.4677 -0.7420 -0.1770
   89SAPS  H20R 8626   7.225   0.623   8.971  0.7482 -0.3764  2.2625
   89SAPS  H20S 8627   7.323   0.721   8.852 -1.1646 -1.1382 -0.3930
   89SAPS  H20T 8628   7.346   0.739   9.033  0.6762 -0.6441 -0.3131
   89SAPS   C33 8629   6.682  -0.249  10.279  0.3543  0.5548 -0.9139
   89SAPS   H3X 8630   6.601  -0.181  10.312  1.6100  1.2274  0.9339
   89SAPS   H3Y 8631   6.664  -0.346  10.331 -1.4683  1.1177 -0.4260
   89SAPS   C34 8632   6.677  -0.276  10.126  0.2539  0.0841 -0.3223
   89SAPS   H4X 8633   6.769  -0.334  10.101  1.2958  1.8799 -0.8552
   89SAPS   H4Y 8634   6.703  -0.175  10.086  1.4622  0.4091  1.1601
   89SAPS   C35 8635   6.548  -0.344  10.083 -0.3427 -0.4014 -0.9929
   89SAPS   H5X 8636   6.466  -0.275  10.111 -0.7672 -0.5958 -1.7277
   89SAPS   H5Y 8637   6.524  -0.432  10.147 -0.5455  0.9511  0.8822
   89SAPS   C36 8638   6.545  -0.383   9.936  0.3386  0.5602 -0.0637
   89SAPS   H6X 8639   6.457  -0.450   9.924  0.2059  0.7325 -0.0460
   89SAPS   H6Y 8640   6.628  -0.456   9.918 -0.3318 -0.4198  0.6968
   89SAPS   C37 8641   6.548  -0.274   9.829 -0.3089 -0.3320 -0.0131
   89SAPS   H7X 8642   6.633  -0.210   9.862  1.4883 -1.9432 -1.2509
   89SAPS   H7Y 8643   6.455  -0.215   9.836  0.6643  1.1382  1.3265
   89SAPS   C38 8644   6.564  -0.319   9.683  0.0754  0.0376 -0.1001
   89SAPS   H8X 8645   6.469  -0.366   9.653 -0.3599  1.5642 -1.1981
   89SAPS   H8Y 8646   6.649  -0.390   9.672  0.1961 -0.0908  1.4280
   89SAPS   C39 8647   6.596  -0.197   9.592 -0.0119 -0.0937 -0.1090
   89SAPS   H9X 8648   6.683  -0.145   9.637 -0.1833 -0.0598  0.1829
   89SAPS   H9Y 8649   6.516  -0.120   9.590 -1.3771 -1.4646 -0.8160
   89SAPS  C310 8650   6.622  -0.237   9.440 -0.1465  0.4167  0.5887
   89SAPS  H10X 8651   6.613  -0.142   9.383  0.0517 -0.1864 -0.4836
   89SAPS  H10Y 8652   6.549  -0.311   9.402  1.6361 -0.8789 -0.4457
   89SAPS  C311 8653   6.760  -0.291   9.414 -0.5392 -0.4513  0.2023
   89SAPS  H11X 8654   6.774  -0.365   9.495 -2.2882 -0.1041  0.8704
   89SAPS  H11Y 8655   6.836  -0.210   9.422 -2.4922  1.5013  0.1569
   89SAPS  C312 8656   6.770  -0.370   9.287  0.2762  0.8420  1.4309
   89SAPS  H12X 8657   6.693  -0.449   9.287  0.1293  0.9032 -1.2566
   89SAPS  H12Y 8658   6.865  -0.429   9.289 -1.7314 -2.7714 -0.8222
   89SAPS  C313 8659   6.757  -0.277   9.162  0.0913  0.1530 -0.0102
   89SAPS  H13X 8660   6.832  -0.197   9.174  0.0247  0.3317 -0.7487
   89SAPS  H13Y 8661   6.657  -0.229   9.163 -1.1761 -2.3287  0.4644
   89SAPS  C314 8662   6.777  -0.346   9.025  0.3343 -0.4857 -0.2805
   89SAPS  H14X 8663   6.881  -0.385   9.023  0.1653 -0.9802  0.2098
   89SAPS  H14Y 8664   6.766  -0.273   8.942  2.5784 -1.0714 -1.1727
   89SAPS  C315 8665   6.677  -0.460   9.003 -0.1639 -0.0717  0.6522
   89SAPS  H15X 8666   6.578  -0.415   8.983  0.5831  0.9007 -1.0417
   89SAPS  H15Y 8667   6.661  -0.522   9.094  0.8819 -2.7094 -0.8272
   89SAPS  C316 8668   6.720  -0.547   8.890 -0.0983  0.1643  0.2454
   89SAPS  H16X 8669   6.663  -0.643   8.896 -1.3364  0.9076  0.8573
   89SAPS  H16Y 8670   6.830  -0.563   8.893 -0.2558 -0.9217  1.6181
   89SAPS  C317 8671   6.670  -0.489   8.755 -0.0586  0.6500 -0.6943
   89SAPS  H17X 8672   6.707  -0.387   8.735 -0.6812  0.8798 -0.6703
   89SAPS  H17Y 8673   6.562  -0.475   8.773  0.2617  0.2471  2.0641
   89SAPS  C318 8674   6.693  -0.573   8.630 -0.1199  0.4617 -0.0368
   89SAPS  H18X 8675   6.801  -0.595   8.614 -0.2262  0.2908 -0.5460
   89SAPS  H18Y 8676   6.656  -0.511   8.546  0.8004  2.0782  0.7084
   89SAPS  H18Z 8677   6.624  -0.660   8.638 -1.1572  1.0596 -1.9011
   90SAPS     N 8678   1.036   0.075  10.693 -0.7019  0.1143  0.0110
   90SAPS   HN1 8679   0.969   0.120  10.628  0.8580  0.5178 -1.3742
   90SAPS   HN2 8680   1.131   0.115  10.683  0.0004 -1.4792  0.0108
   90SAPS   HN3 8681   1.043  -0.025  10.665  0.1318  0.3599 -0.6970
   90SAPS   C12 8682   0.978   0.064  10.836  0.1093  0.0735 -0.1885
   90SAPS  H12A 8683   1.050   0.006  10.892  0.3831  2.4051  2.0585
   90SAPS   C13 8684   0.970   0.197  10.908  0.0287 -0.5590 -0.0944
   90SAPS  O13A 8685   1.022   0.302  10.864  0.9966  0.1547 -0.1389
   90SAPS  O13B 8686   0.922   0.202  11.025 -0.1428  0.3539 -0.0904
   90SAPS   C11 8687   0.838  -0.004  10.825 -0.1477 -0.0133 -0.4246
   90SAPS  H11A 8688   0.759   0.061  10.781 -2.9730 -4.2815 -2.2564
   90SAPS  H11B 8689   0.810  -0.023  10.931 -0.7864  1.9916 -0.1965
   90SAPS     P 8690   0.719  -0.212  10.748 -0.0521  0.1921  0.0053
   90SAPS   O13 8691   0.710  -0.277  10.884  0.3250  0.1089  0.3449
   90SAPS   O14 8692   0.616  -0.119  10.706 -0.1636  0.2511  0.0534
   90SAPS   O12 8693   0.846  -0.122  10.741 -0.2449 -0.4234 -0.0104
   90SAPS   O11 8694   0.740  -0.320  10.638 -0.1257 -0.0503  0.0062
   90SAPS    C1 8695   0.845  -0.413  10.645  0.2794 -0.7929 -0.4290
   90SAPS    HA 8696   0.861  -0.442  10.751  0.5161 -0.6376 -0.4234
   90SAPS    HB 8697   0.819  -0.512  10.600 -2.0317 -1.3721  1.8607
   90SAPS    C2 8698   0.982  -0.358  10.596 -0.5801  0.8906  0.3266
   90SAPS    HS 8699   1.010  -0.279  10.669 -0.2966  1.6721 -0.6165
   90SAPS   O21 8700   0.961  -0.317  10.463  0.2114 -0.0154  0.1312
   90SAPS   C21 8701   0.998  -0.196  10.430  0.1244  0.6610 -0.9790
   90SAPS   O22 8702   1.053  -0.117  10.508  0.0071  0.0719  0.9784
   90SAPS   C22 8703   0.993  -0.184  10.279 -0.1817  0.5077 -0.6744
   90SAPS   H2R 8704   1.072  -0.255  10.247 -0.7158 -1.3157  1.7902
   90SAPS   H2S 8705   0.896  -0.225  10.244 -0.9036 -0.2410  1.9669
   90SAPS    C3 8706   1.100  -0.466  10.606  0.3345  0.1102  0.7833
   90SAPS    HX 8707   1.114  -0.504  10.710  1.7169 -0.1900  0.5023
   90SAPS    HY 8708   1.188  -0.409  10.571 -0.0405  1.3492  1.7747
   90SAPS   O31 8709   1.070  -0.579  10.521 -0.8791 -0.0229 -0.7828
   90SAPS   C31 8710   1.175  -0.668  10.508 -0.4760  0.2851 -0.2027
   90SAPS   O32 8711   1.286  -0.642  10.550 -0.6335 -0.1379 -0.2881
   90SAPS   C32 8712   1.127  -0.789  10.435 -0.2167  0.7057  0.8956
   90SAPS   H2X 8713   1.053  -0.763  10.356  1.7403  0.1080 -1.2163
   90SAPS   H2Y 8714   1.085  -0.864  10.507  0.0909  0.1476  0.5014
   90SAPS   C23 8715   1.014  -0.038  10.217  0.3551 -0.4203 -0.2143
   90SAPS   H3R 8716   1.100   0.012  10.266 -2.3204  2.3751  2.0582
   90SAPS   H3S 8717   0.934   0.024  10.263  0.8598 -0.2405  0.4191
   90SAPS   C24 8718   1.012  -0.024  10.061 -0.7937  0.2501  0.0401
   90SAPS   H4R 8719   1.097  -0.085  10.022 -0.4790  0.1902  0.8194
   90SAPS   H4S 8720   1.041   0.080  10.036  0.5610 -0.1566 -0.1446
   90SAPS   C25 8721   0.883  -0.073   9.992  0.2292 -0.2283 -0.1424
   90SAPS   H5R 8722   0.794  -0.073  10.056  0.2220 -1.8246 -0.1052
   90SAPS   C26 8723   0.866  -0.108   9.865 -0.3921  0.3183 -0.9210
   90SAPS   H6R 8724   0.762  -0.135   9.839 -0.3125 -1.9322  0.7895
   90SAPS   C27 8725   0.961  -0.112   9.746 -0.0175  0.3963  0.4472
   90SAPS   H7R 8726   0.979  -0.212   9.702  1.3841  1.2549 -1.0156
   90SAPS   H7S 8727   1.065  -0.080   9.769  0.5617 -0.3607 -0.9810
   90SAPS   C28 8728   0.909  -0.016   9.641 -0.0301  0.1402  0.1548
   90SAPS   H8R 8729   0.883   0.088   9.667  1.1236  0.6697 -0.7369
   90SAPS   C29 8730   0.884  -0.045   9.510  0.1869 -0.0548 -0.4593
   90SAPS   H9R 8731   0.848   0.033   9.441 -0.9221  0.5791  0.7909
   90SAPS  C210 8732   0.910  -0.179   9.435 -0.2737 -0.3866  0.2072
   90SAPS  H10R 8733   0.960  -0.253   9.501 -1.1827 -0.2391  1.0745
   90SAPS  H10S 8734   0.990  -0.167   9.359 -0.2712 -1.1271  0.0856
   90SAPS  C211 8735   0.781  -0.245   9.377 -0.7411 -0.3010 -0.1823
   90SAPS  H11R 8736   0.721  -0.286   9.459 -2.5468 -0.6353 -1.5884
   90SAPS  C212 8737   0.733  -0.231   9.250  0.1594  0.4125 -0.1686
   90SAPS  H12R 8738   0.634  -0.274   9.226 -0.0875 -0.6283  2.3922
   90SAPS  C213 8739   0.798  -0.142   9.141 -0.2173 -0.1653  0.1596
   90SAPS  H13R 8740   0.797  -0.199   9.046  0.2322  1.2912 -0.7326
   90SAPS  H13S 8741   0.905  -0.135   9.171 -0.0149 -1.1580 -0.2756
   90SAPS  C214 8742   0.725  -0.012   9.122 -0.0844 -0.4627  0.1681
   90SAPS  H14R 8743   0.661   0.027   9.204  2.0859 -1.0289  2.2446
   90SAPS  C215 8744   0.715   0.050   9.002  0.2089  0.1685  0.0463
   90SAPS  H15R 8745   0.678   0.153   9.002 -0.0915  0.0637  0.2883
   90SAPS  C216 8746   0.772   0.014   8.867  0.6576 -0.3608  0.3296
   90SAPS  H16R 8747   0.682  -0.025   8.816  2.1352 -2.7243 -0.6251
   90SAPS  H16S 8748   0.835  -0.076   8.879 -0.2656 -0.6897  4.0705
   90SAPS  C217 8749   0.846   0.123   8.784  0.2046  0.2528  0.3956
   90SAPS  H17R 8750   0.788   0.205   8.736  1.9453  0.8385 -0.7884
   90SAPS  H17S 8751   0.897   0.073   8.699  2.3033  0.1474  1.6564
   90SAPS  C218 8752   0.958   0.188   8.869  0.9033 -0.4487 -0.1272
   90SAPS  H18R 8753   1.042   0.120   8.895  0.2049 -0.5003  2.2420
   90SAPS  H18S 8754   0.910   0.213   8.967  0.9812 -0.7768 -0.0040
   90SAPS  C219 8755   1.004   0.318   8.811  0.3831  0.7307  0.4118
   90SAPS  H19R 8756   1.087   0.331   8.883  1.5231 -2.2224 -0.2466
   90SAPS  H19S 8757   0.929   0.400   8.820  0.9795  1.2841  0.3863
   90SAPS  C220 8758   1.064   0.319   8.670  0.3901  0.2693  0.0599
   90SAPS  H20R 8759   1.154   0.255   8.665  1.3654  1.6316 -0.3868
   90SAPS  H20S 8760   1.090   0.426   8.660 -1.2911  0.6227 -0.9590
   90SAPS  H20T 8761   0.985   0.278   8.603  1.6812 -1.9051 -0.2277
   90SAPS   C33 8762   1.239  -0.861  10.359 -0.3690 -0.3971 -0.4018
   90SAPS   H3X 8763   1.317  -0.877  10.436 -0.2790  0.1297 -0.3820
   90SAPS   H3Y 8764   1.285  -0.784  10.293  1.2353 -2.7941 -2.2706
   90SAPS   C34 8765   1.200  -0.979  10.280  0.2402 -0.5718 -0.1205
   90SAPS   H4X 8766   1.163  -0.945  10.181  3.8199  1.2769 -1.0279
   90SAPS   H4Y 8767   1.117  -1.027  10.335 -3.0952  0.1277 -4.0415
   90SAPS   C35 8768   1.315  -1.082  10.259 -0.1081 -1.0197 -0.1283
   90SAPS   H5X 8769   1.264  -1.171  10.217  2.5741 -3.5921  1.6247
   90SAPS   H5Y 8770   1.354  -1.122  10.355  1.4250 -0.6921 -0.5798
   90SAPS   C36 8771   1.441  -1.034  10.174 -0.2225  0.1179  0.4243
   90SAPS   H6X 8772   1.509  -1.119  10.155  2.0008  1.2721  2.6081
   90SAPS   H6Y 8773   1.503  -0.971  10.242 -0.8189  0.2297  0.8747
   90SAPS   C37 8774   1.404  -0.967  10.030  0.4954 -0.3279 -0.3206
   90SAPS   H7X 8775   1.491  -0.918   9.982 -0.5752  0.9757 -1.0179
   90SAPS   H7Y 8776   1.321  -0.894  10.046 -0.6863 -1.5517 -0.7151
   90SAPS   C38 8777   1.354  -1.061   9.918  0.1588 -0.8322 -0.5557
   90SAPS   H8X 8778   1.303  -1.145   9.970  0.5284 -0.0397  1.1519
   90SAPS   H8Y 8779   1.446  -1.102   9.869  0.4839 -0.6272 -0.1169
   90SAPS   C39 8780   1.256  -1.000   9.816 -0.0368 -0.6533  0.4773
   90SAPS   H9X 8781   1.313  -0.914   9.776 -2.7800  1.2256  0.3714
   90SAPS   H9Y 8782   1.169  -0.962   9.874 -0.6947 -1.1770 -0.1403
   90SAPS  C310 8783   1.223  -1.097   9.702 -0.1239 -0.4593  0.0984
   90SAPS  H10X 8784   1.130  -1.157   9.714  0.3314 -1.0133  0.9338
   90SAPS  H10Y 8785   1.305  -1.172   9.701 -1.1037 -1.5725 -0.6514
   90SAPS  C311 8786   1.217  -1.045   9.559  0.3117 -0.0083  0.4719
   90SAPS  H11X 8787   1.280  -0.954   9.555 -0.7938  0.8556  1.6762
   90SAPS  H11Y 8788   1.109  -1.017   9.549 -0.5432 -2.5883  1.5438
   90SAPS  C312 8789   1.261  -1.142   9.452 -0.3580  0.2719  0.8870
   90SAPS  H12X 8790   1.176  -1.208   9.423  0.1420  0.1130 -0.2673
   90SAPS  H12Y 8791   1.332  -1.209   9.506  0.3641  0.6193  0.3830
   90SAPS  C313 8792   1.329  -1.092   9.329  0.2250 -0.6071  0.1354
   90SAPS  H13X 8793   1.338  -1.177   9.258  0.5533 -1.3881  1.0954
   90SAPS  H13Y 8794   1.437  -1.076   9.346  0.1958  0.7212 -0.7600
   90SAPS  C314 8795   1.257  -0.982   9.257 -0.2104  0.1622 -0.0427
   90SAPS  H14X 8796   1.259  -0.890   9.319 -0.4995 -0.5037  0.9841
   90SAPS  H14Y 8797   1.158  -1.026   9.232 -0.3878  0.3531  0.3230
   90SAPS  C315 8798   1.324  -0.944   9.126 -0.2931 -0.3953  0.0197
   90SAPS  H15X 8799   1.344  -1.038   9.070  0.4013 -0.1545 -0.1518
   90SAPS  H15Y 8800   1.424  -0.900   9.147 -0.6592  0.3991  0.1426
   90SAPS  C316 8801   1.240  -0.836   9.045 -0.5528  0.1423 -0.5011
   90SAPS  H16X 8802   1.218  -0.758   9.121  1.1452  0.5088 -0.3412
   90SAPS  H16Y 8803   1.143  -0.887   9.027 -1.8091  2.3223 -0.2426
   90SAPS  C317 8804   1.312  -0.781   8.929 -0.2088  0.1606 -0.1480
   90SAPS  H17X 8805   1.403  -0.727   8.963  0.0618  0.2995 -1.0641
   90SAPS  H17Y 8806   1.247  -0.705   8.880 -1.2771 -0.2546  0.5743
   90SAPS  C318 8807   1.364  -0.890   8.836 -0.0082 -0.0968  0.3870
   90SAPS  H18X 8808   1.403  -0.841   8.744  0.7254 -1.4731 -0.0703
   90SAPS  H18Y 8809   1.283  -0.953   8.791  0.4951  0.4594 -1.3774
   90SAPS  H18Z 8810   1.441  -0.955   8.883 -0.7266  0.4558  2.4241
   91SAPS     N 8811   5.379   4.186   6.200  0.9517 -0.6624  0.3080
   91SAPS   HN1 8812   5.358   4.250   6.120  0.2059  1.3892  2.0596
   91SAPS   HN2 8813   5.301   4.118   6.205 -0.8450  1.1656 -1.1096
   91SAPS   HN3 8814   5.388   4.241   6.288 -1.9305 -1.0925  0.9473
   91SAPS   C12 8815   5.507   4.111   6.180  0.1839 -0.1655 -0.4458
   91SAPS  H12A 8816   5.501   4.037   6.101  0.6021  1.0441 -1.6324
   91SAPS   C13 8817   5.629   4.196   6.137  0.2158  0.4231  0.1622
   91SAPS  O13A 8818   5.621   4.319   6.099 -0.1550  0.1088  0.2425
   91SAPS  O13B 8819   5.734   4.126   6.110 -0.4393  0.4022  0.5294
   91SAPS   C11 8820   5.534   4.030   6.310  0.0528 -0.4318  0.0191
   91SAPS  H11A 8821   5.534   4.104   6.393 -0.9123 -0.0023 -0.3530
   91SAPS  H11B 8822   5.635   3.985   6.303 -0.5680 -1.6453 -1.8802
   91SAPS     P 8823   5.460   3.780   6.314 -0.3704  0.1351  0.1944
   91SAPS   O13 8824   5.330   3.714   6.326 -0.5311  0.6106 -0.0167
   91SAPS   O14 8825   5.534   3.769   6.185  0.4296  0.5037 -0.4529
   91SAPS   O12 8826   5.436   3.933   6.346 -0.4837 -0.3654  0.8953
   91SAPS   O11 8827   5.560   3.730   6.430 -0.0063 -1.0913  0.5607
   91SAPS    C1 8828   5.511   3.688   6.558  0.2724  0.0137  0.2165
   91SAPS    HA 8829   5.411   3.639   6.564  1.5902 -2.7632  1.7242
   91SAPS    HB 8830   5.575   3.602   6.590  3.4950  2.6151  1.3271
   91SAPS    C2 8831   5.541   3.805   6.664  0.2026 -1.0735  0.3683
   91SAPS    HS 8832   5.522   3.775   6.769 -1.4845  1.8326  1.0044
   91SAPS   O21 8833   5.461   3.919   6.642 -0.6744  0.2625  0.0727
   91SAPS   C21 8834   5.331   3.923   6.678 -0.1362 -0.4886 -0.0270
   91SAPS   O22 8835   5.264   3.837   6.732  0.7836  0.7695  0.2132
   91SAPS   C22 8836   5.293   4.065   6.656  0.3474  0.2080  0.6903
   91SAPS   H2R 8837   5.322   4.085   6.551  0.2277  0.0331  0.6232
   91SAPS   H2S 8838   5.183   4.080   6.651  0.2286 -0.9906 -1.5415
   91SAPS    C3 8839   5.688   3.852   6.639  0.4216 -0.2625  0.3744
   91SAPS    HX 8840   5.691   3.908   6.543  0.4742 -0.0486  0.5002
   91SAPS    HY 8841   5.747   3.760   6.619 -0.6539 -0.5633 -1.6818
   91SAPS   O31 8842   5.736   3.926   6.754 -0.2384  0.5617  0.0361
   91SAPS   C31 8843   5.752   4.057   6.742  0.5133  1.6079  0.2566
   91SAPS   O32 8844   5.749   4.128   6.647  0.2741  0.0113 -0.1844
   91SAPS   C32 8845   5.785   4.105   6.879  0.4257 -0.3275  0.9734
   91SAPS   H2X 8846   5.857   4.039   6.932  0.6933  0.0710  1.1166
   91SAPS   H2Y 8847   5.689   4.109   6.934 -0.5706 -1.0591 -0.6341
   91SAPS   C23 8848   5.358   4.168   6.756 -0.6748  0.4651 -0.5020
   91SAPS   H3R 8849   5.321   4.267   6.723 -2.0021  0.4043  0.6916
   91SAPS   H3S 8850   5.466   4.157   6.735 -0.8637 -2.0847 -0.4809
   91SAPS   C24 8851   5.324   4.151   6.906 -0.0364 -0.1013  0.5152
   91SAPS   H4R 8852   5.354   4.053   6.950 -0.9121 -0.7123 -0.2115
   91SAPS   H4S 8853   5.213   4.146   6.913 -0.3414  2.2717 -1.4468
   91SAPS   C25 8854   5.399   4.260   6.980  0.1559 -0.1571  0.3690
   91SAPS   H5R 8855   5.454   4.337   6.925  1.0604 -1.8130 -1.1219
   91SAPS   C26 8856   5.401   4.272   7.109 -0.5276  0.0654 -0.5719
   91SAPS   H6R 8857   5.462   4.338   7.171 -1.5842 -1.2833  2.0844
   91SAPS   C27 8858   5.328   4.186   7.211 -0.2845  0.2843  0.2654
   91SAPS   H7R 8859   5.412   4.142   7.268 -0.7064 -1.2232 -0.2297
   91SAPS   H7S 8860   5.285   4.101   7.154 -1.3579  0.9182  0.0986
   91SAPS   C28 8861   5.212   4.260   7.275  0.1605  0.0825  0.4240
   91SAPS   H8R 8862   5.126   4.275   7.210  1.0039 -1.8958 -1.2418
   91SAPS   C29 8863   5.216   4.313   7.402 -0.9807 -0.5321  0.0589
   91SAPS   H9R 8864   5.128   4.364   7.445  0.2155 -0.9894  3.3300
   91SAPS  C210 8865   5.328   4.307   7.493  0.0741  0.1865 -0.0774
   91SAPS  H10R 8866   5.393   4.394   7.471  0.7156 -0.3602 -0.3904
   91SAPS  H10S 8867   5.390   4.218   7.473  1.2044  0.7367  0.8578
   91SAPS  C211 8868   5.302   4.302   7.641 -0.0023  0.2828  0.2186
   91SAPS  H11R 8869   5.209   4.268   7.690  0.2674 -0.3484  0.3003
   91SAPS  C212 8870   5.387   4.350   7.728 -0.1867 -0.1929  0.1598
   91SAPS  H12R 8871   5.370   4.311   7.829 -0.3346 -0.7508 -0.0739
   91SAPS  C213 8872   5.523   4.415   7.696 -0.8423 -0.2353  0.3128
   91SAPS  H13R 8873   5.514   4.479   7.606 -0.7750 -0.8571 -0.1480
   91SAPS  H13S 8874   5.576   4.332   7.645 -0.7830  0.8235 -1.4236
   91SAPS  C214 8875   5.604   4.463   7.816  0.6662  0.3064 -0.5859
   91SAPS  H14R 8876   5.706   4.423   7.822  0.1188 -1.0869 -0.1056
   91SAPS  C215 8877   5.558   4.542   7.915  0.0345  0.7546 -0.4709
   91SAPS  H15R 8878   5.636   4.555   7.992 -2.5307  1.2155  2.2329
   91SAPS  C216 8879   5.421   4.611   7.934 -0.6204 -0.0377  0.4982
   91SAPS  H16R 8880   5.346   4.585   7.856  0.8724  0.6692 -1.2306
   91SAPS  H16S 8881   5.443   4.720   7.929 -3.2021  0.5022 -1.3739
   91SAPS  C217 8882   5.369   4.597   8.081  0.6283  0.2255  0.0804
   91SAPS  H17R 8883   5.338   4.490   8.084  0.5263  0.2133 -1.0367
   91SAPS  H17S 8884   5.275   4.655   8.092 -0.9338 -2.2382  0.4160
   91SAPS  C218 8885   5.462   4.636   8.197  0.2715  0.3280 -0.2088
   91SAPS  H18R 8886   5.480   4.745   8.189  1.7982  0.3073  2.0062
   91SAPS  H18S 8887   5.560   4.584   8.190 -0.4812 -2.0906  3.7156
   91SAPS  C219 8888   5.397   4.597   8.334 -0.3297 -0.2775  0.2832
   91SAPS  H19R 8889   5.369   4.490   8.334 -0.7259 -0.1772  0.3069
   91SAPS  H19S 8890   5.301   4.649   8.356 -0.2664 -0.5236  1.1639
   91SAPS  C220 8891   5.482   4.632   8.465 -0.0661  0.8165  0.3501
   91SAPS  H20R 8892   5.435   4.593   8.558  0.1642  0.0053  0.1266
   91SAPS  H20S 8893   5.491   4.742   8.483 -1.8317  0.7203  2.2519
   91SAPS  H20T 8894   5.577   4.575   8.465 -1.1943 -1.2516 -1.9093
   91SAPS   C33 8895   5.864   4.241   6.886  1.1831 -0.3228 -0.2262
   91SAPS   H3X 8896   5.960   4.224   6.833  0.9621 -0.8874 -0.4545
   91SAPS   H3Y 8897   5.885   4.254   6.994  1.6678  1.5028 -0.5152
   91SAPS   C34 8898   5.779   4.367   6.852 -0.1693  0.4602  0.3447
   91SAPS   H4X 8899   5.684   4.375   6.910 -2.3115 -2.4469 -2.4201
   91SAPS   H4Y 8900   5.749   4.355   6.746  1.3980 -0.7263 -0.0057
   91SAPS   C35 8901   5.844   4.501   6.876  0.2899  0.2878  0.2227
   91SAPS   H5X 8902   5.765   4.577   6.856  0.2500  0.3272  0.5287
   91SAPS   H5Y 8903   5.929   4.514   6.805 -0.4199 -1.2390 -0.9567
   91SAPS   C36 8904   5.898   4.532   7.015 -0.3020 -0.6062 -0.5868
   91SAPS   H6X 8905   5.920   4.641   7.016 -1.4674 -0.3163 -2.0505
   91SAPS   H6Y 8906   5.989   4.475   7.042  1.2319  2.0528  0.2524
   91SAPS   C37 8907   5.793   4.506   7.130 -0.5883  0.0067 -0.1951
   91SAPS   H7X 8908   5.770   4.398   7.120 -0.7240 -0.0270  0.4066
   91SAPS   H7Y 8909   5.696   4.555   7.107 -0.7610 -0.7425 -1.1098
   91SAPS   C38 8910   5.847   4.535   7.265  0.9267  0.0967 -0.5095
   91SAPS   H8X 8911   5.887   4.638   7.270  0.0285  0.4069  1.9334
   91SAPS   H8Y 8912   5.936   4.470   7.276  0.0206 -1.0131  0.4733
   91SAPS   C39 8913   5.755   4.497   7.393 -0.3289  0.1251 -0.2906
   91SAPS   H9X 8914   5.732   4.388   7.401 -0.4322  0.0300 -1.6556
   91SAPS   H9Y 8915   5.659   4.551   7.376 -1.3228 -1.1453  1.0061
   91SAPS  C310 8916   5.820   4.529   7.526  0.1501 -0.1140 -0.4663
   91SAPS  H10X 8917   5.901   4.455   7.541 -1.1426 -1.6301 -0.7864
   91SAPS  H10Y 8918   5.746   4.512   7.607  0.2858  0.0343 -0.3082
   91SAPS  C311 8919   5.856   4.680   7.536 -0.1873  0.5186 -0.1864
   91SAPS  H11X 8920   5.776   4.746   7.496 -0.9619 -1.4977 -2.2192
   91SAPS  H11Y 8921   5.952   4.700   7.485 -2.2257 -0.2365 -4.8890
   91SAPS  C312 8922   5.858   4.727   7.682 -0.2449  0.2331 -0.2385
   91SAPS  H12X 8923   5.756   4.713   7.724 -0.2055  2.2923  0.6336
   91SAPS  H12Y 8924   5.876   4.836   7.685 -1.2803  0.4854 -1.7530
   91SAPS  C313 8925   5.969   4.658   7.764 -0.4092 -0.1978  0.3623
   91SAPS  H13X 8926   6.066   4.660   7.708 -1.2794 -1.4073 -1.2684
   91SAPS  H13Y 8927   5.942   4.552   7.781  1.8685 -0.9971 -0.5283
   91SAPS  C314 8928   5.997   4.718   7.898 -0.3700 -0.0012 -0.4369
   91SAPS  H14X 8929   6.014   4.827   7.888 -2.2591  0.2769 -0.9317
   91SAPS  H14Y 8930   6.094   4.684   7.940 -0.1773 -1.9666 -2.2520
   91SAPS  C315 8931   5.889   4.696   7.997 -0.6513  0.5378 -0.2055
   91SAPS  H15X 8932   5.885   4.586   8.011  1.2611  0.4650  0.0279
   91SAPS  H15Y 8933   5.788   4.729   7.965 -1.1061  1.2313  1.7653
   91SAPS  C316 8934   5.939   4.756   8.127 -0.0650  0.4164  0.0280
   91SAPS  H16X 8935   5.944   4.866   8.113  1.2487  0.0468 -3.2342
   91SAPS  H16Y 8936   6.041   4.727   8.158  0.2298  1.1687 -0.2170
   91SAPS  C317 8937   5.851   4.736   8.249  0.7701 -0.4474 -0.0338
   91SAPS  H17X 8938   5.835   4.628   8.267  1.5232 -0.4803  0.5445
   91SAPS  H17Y 8939   5.758   4.791   8.225  0.4918 -0.9591 -0.1283
   91SAPS  C318 8940   5.901   4.797   8.384 -0.0073  0.2562 -0.2395
   91SAPS  H18X 8941   5.995   4.749   8.418 -0.7347 -1.2615 -0.3262
   91SAPS  H18Y 8942   5.821   4.779   8.458  0.0374 -1.7654 -0.6245
   91SAPS  H18Z 8943   5.925   4.904   8.363  1.6133 -0.0488 -0.0529
   92SAPS     N 8944   3.704   2.699   6.351 -0.6264  0.7199  0.5647
   92SAPS   HN1 8945   3.758   2.627   6.402 -3.5846 -2.7292 -0.7246
   92SAPS   HN2 8946   3.759   2.770   6.298 -0.7654  0.4565  0.0581
   92SAPS   HN3 8947   3.650   2.760   6.416 -0.3224  0.8013  0.7413
   92SAPS   C12 8948   3.608   2.617   6.265 -0.2162  0.1666  0.2289
   92SAPS  H12A 8949   3.575   2.695   6.197  1.0020  0.1853 -0.3621
   92SAPS   C13 8950   3.676   2.503   6.182 -0.6932  0.2984  0.3235
   92SAPS  O13A 8951   3.798   2.469   6.195 -0.0348 -0.1542 -0.3543
   92SAPS  O13B 8952   3.615   2.470   6.076  0.7167  0.4141 -0.5865
   92SAPS   C11 8953   3.489   2.565   6.358  0.1932 -0.7283 -0.1886
   92SAPS  H11A 8954   3.528   2.486   6.425 -1.0484 -0.4905  0.8487
   92SAPS  H11B 8955   3.412   2.524   6.290 -1.3395  0.3911  0.8137
   92SAPS     P 8956   3.287   2.652   6.487  0.2336 -0.1550  0.0416
   92SAPS   O13 8957   3.208   2.763   6.429 -0.5132  0.1972  0.2694
   92SAPS   O14 8958   3.240   2.516   6.455  0.5748 -0.2105 -0.2109
   92SAPS   O12 8959   3.440   2.672   6.437  0.5387 -0.0443 -0.4338
   92SAPS   O11 8960   3.289   2.666   6.643 -0.6049 -0.1219 -0.1643
   92SAPS    C1 8961   3.379   2.588   6.732  0.1842  0.2225  0.0244
   92SAPS    HA 8962   3.317   2.527   6.801 -3.5864  1.7559 -1.7101
   92SAPS    HB 8963   3.442   2.513   6.679 -0.5069  0.3427 -0.9954
   92SAPS    C2 8964   3.457   2.694   6.816  1.1284 -0.3252 -0.9272
   92SAPS    HS 8965   3.510   2.759   6.745 -1.3188  0.6104 -2.0272
   92SAPS   O21 8966   3.548   2.633   6.906  0.4409 -0.0370  0.1931
   92SAPS   C21 8967   3.633   2.558   6.859  0.6435  0.4586  0.8299
   92SAPS   O22 8968   3.669   2.539   6.743 -0.6683  1.0134 -0.0587
   92SAPS   C22 8969   3.711   2.495   6.981  0.6811 -0.7629 -0.4230
   92SAPS   H2R 8970   3.669   2.539   7.074  1.1749 -0.0166 -0.5473
   92SAPS   H2S 8971   3.686   2.387   6.986 -0.1350 -0.5853 -0.5383
   92SAPS    C3 8972   3.355   2.788   6.894 -0.2900 -0.2193  0.0253
   92SAPS    HX 8973   3.321   2.721   6.976  0.5431  1.9940  2.3148
   92SAPS    HY 8974   3.277   2.822   6.823  1.1567  0.2229 -1.3996
   92SAPS   O31 8975   3.432   2.899   6.946  0.0641 -0.2682 -0.3399
   92SAPS   C31 8976   3.462   2.996   6.865 -0.2482 -0.4672  0.1898
   92SAPS   O32 8977   3.427   3.006   6.747  0.6358 -0.2928  0.0375
   92SAPS   C32 8978   3.533   3.104   6.947 -0.8938 -0.0164  0.4659
   92SAPS   H2X 8979   3.526   3.198   6.888  0.4586 -0.2929 -0.1886
   92SAPS   H2Y 8980   3.639   3.070   6.952  0.0165  2.0602 -1.9599
   92SAPS   C23 8981   3.858   2.520   6.983  0.1972  0.1882  0.1678
   92SAPS   H3R 8982   3.879   2.629   6.985 -0.5504  0.3544 -0.5853
   92SAPS   H3S 8983   3.903   2.480   6.890  0.8302  0.4212  0.3690
   92SAPS   C24 8984   3.928   2.475   7.114  0.5865  0.4460 -0.2636
   92SAPS   H4R 8985   3.866   2.517   7.196  0.2118 -0.3934 -0.1059
   92SAPS   H4S 8986   4.033   2.509   7.128  0.2773  0.6886  1.7182
   92SAPS   C25 8987   3.941   2.328   7.118  0.2703  0.0057  0.3393
   92SAPS   H5R 8988   3.943   2.276   7.021 -0.4026  0.1677  0.2326
   92SAPS   C26 8989   3.921   2.247   7.227  0.3374 -0.6082 -0.0611
   92SAPS   H6R 8990   3.922   2.139   7.208 -0.0521 -1.1168  2.3880
   92SAPS   C27 8991   3.883   2.285   7.363  0.1386  0.2719  0.1847
   92SAPS   H7R 8992   3.936   2.380   7.384  0.7617 -0.0985  0.3198
   92SAPS   H7S 8993   3.933   2.210   7.428 -1.5387 -0.5973  0.5312
   92SAPS   C28 8994   3.735   2.307   7.401 -0.3333 -0.1241  0.1540
   92SAPS   H8R 8995   3.663   2.291   7.320 -0.8155  0.0157  0.5475
   92SAPS   C29 8996   3.690   2.341   7.525  0.1015  0.5284  0.6865
   92SAPS   H9R 8997   3.584   2.368   7.530 -0.1268  0.0071 -1.0100
   92SAPS  C210 8998   3.769   2.363   7.651  0.0851  0.8157  0.1721
   92SAPS  H10R 8999   3.798   2.470   7.659  0.0482  0.7115  2.1007
   92SAPS  H10S 9000   3.860   2.300   7.647 -1.7058 -1.8707 -0.7431
   92SAPS  C211 9001   3.697   2.303   7.773  0.9658 -0.4655  0.0708
   92SAPS  H11R 9002   3.637   2.215   7.745  0.0659  0.3834 -0.7448
   92SAPS  C212 9003   3.675   2.354   7.903 -0.3775 -0.0427  0.3921
   92SAPS  H12R 9004   3.620   2.293   7.976  1.1864 -0.2519  1.4559
   92SAPS  C213 9005   3.736   2.482   7.957 -0.6456  0.2234 -0.3867
   92SAPS  H13R 9006   3.661   2.561   7.975 -0.4014  0.4363 -0.2943
   92SAPS  H13S 9007   3.787   2.528   7.869  0.3061 -1.2980 -0.6843
   92SAPS  C214 9008   3.818   2.464   8.080 -0.5274  0.5369  0.0529
   92SAPS  H14R 9009   3.926   2.466   8.060 -0.3140  1.3993  1.1714
   92SAPS  C215 9010   3.777   2.468   8.206  0.3780  0.3571 -0.8694
   92SAPS  H15R 9011   3.847   2.446   8.288  0.7906 -0.9462 -1.5373
   92SAPS  C216 9012   3.635   2.487   8.246 -0.0921  0.1197  0.4127
   92SAPS  H16R 9013   3.585   2.389   8.231  1.8226 -0.9719  0.9268
   92SAPS  H16S 9014   3.583   2.544   8.165  1.6278  0.6572 -0.3618
   92SAPS  C217 9015   3.606   2.535   8.387  0.2012 -0.1162 -0.0096
   92SAPS  H17R 9016   3.501   2.567   8.405  0.6042  1.1604  0.1732
   92SAPS  H17S 9017   3.668   2.625   8.408  3.8858 -2.2353 -0.8748
   92SAPS  C218 9018   3.624   2.432   8.499  0.1697 -0.3119  0.3263
   92SAPS  H18R 9019   3.716   2.375   8.478  1.1991  0.7476  1.7691
   92SAPS  H18S 9020   3.541   2.357   8.501 -0.8453  0.7818  1.4254
   92SAPS  C219 9021   3.636   2.488   8.640  0.5401 -0.0745 -0.7609
   92SAPS  H19R 9022   3.669   2.400   8.700  1.2998  0.1215 -0.8819
   92SAPS  H19S 9023   3.535   2.520   8.675  0.4105 -1.8998  0.6597
   92SAPS  C220 9024   3.732   2.615   8.645 -0.0481 -0.5456  0.2624
   92SAPS  H20R 9025   3.686   2.707   8.603  2.0292  0.4792  0.1542
   92SAPS  H20S 9026   3.827   2.587   8.595 -0.6062  0.4918 -1.4689
   92SAPS  H20T 9027   3.752   2.634   8.752  0.8683 -0.2150  0.0350
   92SAPS   C33 9028   3.481   3.123   7.089  0.1237  0.1700  0.0558
   92SAPS   H3X 9029   3.494   3.034   7.155  0.0027 -0.1332 -0.3245
   92SAPS   H3Y 9030   3.374   3.151   7.086 -0.1570 -0.9451 -1.7825
   92SAPS   C34 9031   3.561   3.240   7.150 -0.2360  0.1679 -0.5205
   92SAPS   H4X 9032   3.535   3.340   7.110  3.9643  1.1544 -1.3268
   92SAPS   H4Y 9033   3.671   3.225   7.141 -0.4824 -2.3328 -0.1256
   92SAPS   C35 9034   3.528   3.242   7.300 -0.0704  0.6755 -0.4424
   92SAPS   H5X 9035   3.554   3.145   7.347 -1.2214  0.6030  0.0974
   92SAPS   H5Y 9036   3.417   3.250   7.301 -0.1610 -0.4121 -0.5541
   92SAPS   C36 9037   3.584   3.356   7.384  0.1891  0.7565 -0.6939
   92SAPS   H6X 9038   3.571   3.453   7.331  1.8498  2.3832  1.6511
   92SAPS   H6Y 9039   3.692   3.344   7.405  0.2267  0.1279 -1.2349
   92SAPS   C37 9040   3.528   3.370   7.529  0.2824 -0.3107  0.7281
   92SAPS   H7X 9041   3.418   3.383   7.536  0.3781 -0.5089  5.2925
   92SAPS   H7Y 9042   3.578   3.442   7.596  0.5456  0.3394 -0.1486
   92SAPS   C38 9043   3.538   3.235   7.610  0.1425  0.2463 -1.0603
   92SAPS   H8X 9044   3.641   3.194   7.613 -0.6777 -2.1508 -2.7836
   92SAPS   H8Y 9045   3.477   3.161   7.555  1.0180 -0.5387 -1.0015
   92SAPS   C39 9046   3.487   3.236   7.756 -0.0250 -0.0874 -0.2127
   92SAPS   H9X 9047   3.488   3.133   7.799  0.7478 -0.4560 -1.0762
   92SAPS   H9Y 9048   3.377   3.245   7.741 -0.0991 -0.5210  0.0258
   92SAPS  C310 9049   3.531   3.350   7.843 -0.2596  0.1385  0.1602
   92SAPS  H10X 9050   3.472   3.442   7.823 -1.1913 -0.2606  0.9565
   92SAPS  H10Y 9051   3.637   3.372   7.819 -0.5398 -1.3328 -2.8543
   92SAPS  C311 9052   3.536   3.313   7.994 -0.4357 -0.0195  0.3576
   92SAPS  H11X 9053   3.586   3.214   7.997  0.2989  0.1732 -2.6654
   92SAPS  H11Y 9054   3.438   3.304   8.044  0.4091 -0.8831  1.9423
   92SAPS  C312 9055   3.626   3.404   8.086  0.3423 -0.4641 -0.0996
   92SAPS  H12X 9056   3.611   3.510   8.058 -0.0226 -0.0533  1.5571
   92SAPS  H12Y 9057   3.733   3.388   8.061 -0.0284  0.1140 -2.2612
   92SAPS  C313 9058   3.602   3.384   8.237 -0.2546 -0.0478 -0.7211
   92SAPS  H13X 9059   3.674   3.458   8.275  1.0378  0.0458 -3.1346
   92SAPS  H13Y 9060   3.623   3.284   8.280  0.1539  0.4014  0.1429
   92SAPS  C314 9061   3.461   3.426   8.286 -0.0093 -0.1869  0.1889
   92SAPS  H14X 9062   3.470   3.421   8.397 -0.4957  1.4740  0.3183
   92SAPS  H14Y 9063   3.388   3.346   8.265 -0.0391 -0.2572  0.5505
   92SAPS  C315 9064   3.415   3.568   8.247 -0.8721  0.1354  0.0831
   92SAPS  H15X 9065   3.359   3.574   8.151 -2.7658  2.9765  1.2540
   92SAPS  H15Y 9066   3.507   3.628   8.235  0.1597 -1.5486 -0.9394
   92SAPS  C316 9067   3.333   3.620   8.352  0.9676 -0.0732  0.3476
   92SAPS  H16X 9068   3.264   3.540   8.387 -0.3082  0.9620  0.2574
   92SAPS  H16Y 9069   3.276   3.706   8.312 -2.1130 -2.5736 -1.1144
   92SAPS  C317 9070   3.416   3.676   8.468 -0.2283 -0.5080 -0.1533
   92SAPS  H17X 9071   3.480   3.761   8.434  0.8430 -0.5844  1.5810
   92SAPS  H17Y 9072   3.476   3.593   8.509  1.6886  0.1190 -1.5767
   92SAPS  C318 9073   3.319   3.726   8.576  0.3774  0.0466 -0.3651
   92SAPS  H18X 9074   3.362   3.729   8.679  0.1811  0.0189 -0.2824
   92SAPS  H18Y 9075   3.228   3.662   8.579 -1.4852  2.5886  1.0810
   92SAPS  H18Z 9076   3.281   3.825   8.544  2.6121  1.1971  0.3083
   93SAPS     N 9077   4.314   2.501   6.206 -0.1262 -0.4808  1.2194
   93SAPS   HN1 9078   4.383   2.555   6.263 -0.6921  0.8409  0.7004
   93SAPS   HN2 9079   4.281   2.564   6.130  0.4976  2.3141  3.0850
   93SAPS   HN3 9080   4.232   2.468   6.261 -1.1722  0.9401  0.5799
   93SAPS   C12 9081   4.387   2.379   6.153  0.3915  0.7016 -0.2922
   93SAPS  H12A 9082   4.316   2.309   6.110  2.0978 -0.5329 -1.2362
   93SAPS   C13 9083   4.500   2.413   6.050 -0.1185  0.1056 -0.3684
   93SAPS  O13A 9084   4.520   2.526   6.006 -0.3367 -0.4592 -0.6527
   93SAPS  O13B 9085   4.562   2.310   6.007  0.3653  0.4868 -0.0910
   93SAPS   C11 9086   4.464   2.312   6.274 -0.1222 -0.0941 -0.4110
   93SAPS  H11A 9087   4.539   2.384   6.311 -0.5164 -0.3276  0.9111
   93SAPS  H11B 9088   4.520   2.217   6.260  0.3178 -0.0145  0.6958
   93SAPS     P 9089   4.370   2.189   6.497 -0.2955 -0.1841  0.1862
   93SAPS   O13 9090   4.291   2.251   6.606  0.3271 -0.3571 -0.2059
   93SAPS   O14 9091   4.307   2.062   6.454  0.3713 -0.3586  0.1788
   93SAPS   O12 9092   4.372   2.298   6.380  0.5518 -0.8057 -0.4151
   93SAPS   O11 9093   4.523   2.170   6.540 -0.0454  0.5365 -0.0369
   93SAPS    C1 9094   4.578   2.039   6.565 -0.5526  0.1983 -0.1663
   93SAPS    HA 9095   4.546   1.978   6.478  0.8983  1.3246 -1.5420
   93SAPS    HB 9096   4.689   2.046   6.559 -0.5238 -0.6211 -0.6717
   93SAPS    C2 9097   4.534   1.964   6.703  0.1909  0.0458  1.2077
   93SAPS    HS 9098   4.427   1.948   6.679  0.8950  0.0399 -2.6531
   93SAPS   O21 9099   4.568   2.040   6.817 -0.0153  0.2548 -0.4568
   93SAPS   C21 9100   4.474   2.044   6.905  0.5184  0.3162 -0.0748
   93SAPS   O22 9101   4.371   1.980   6.911 -0.0199 -0.4363  0.4936
   93SAPS   C22 9102   4.520   2.140   7.011  0.9028 -0.3676 -0.4527
   93SAPS   H2R 9103   4.625   2.167   6.987  0.4705 -0.0935 -2.2027
   93SAPS   H2S 9104   4.462   2.233   6.994  0.3397 -0.6073  0.1039
   93SAPS    C3 9105   4.605   1.827   6.698 -0.0208 -0.3009  0.2447
   93SAPS    HX 9106   4.715   1.830   6.685 -0.0030 -1.8577 -0.1645
   93SAPS    HY 9107   4.558   1.779   6.609 -1.3714  0.7901  0.3331
   93SAPS   O31 9108   4.581   1.749   6.820 -0.3072  0.0399  0.3178
   93SAPS   C31 9109   4.474   1.670   6.830 -0.1370 -0.4463 -0.0722
   93SAPS   O32 9110   4.384   1.662   6.747  0.1056  0.0728 -0.3199
   93SAPS   C32 9111   4.466   1.610   6.973 -0.4150 -1.7902 -0.1889
   93SAPS   H2X 9112   4.568   1.587   7.010 -0.3150 -3.1180 -1.1794
   93SAPS   H2Y 9113   4.416   1.511   6.973  1.5624 -3.0718  4.8487
   93SAPS   C23 9114   4.513   2.082   7.156  0.5199 -0.0314 -0.0813
   93SAPS   H3R 9115   4.549   2.172   7.210  0.1937 -0.3014  0.6010
   93SAPS   H3S 9116   4.587   1.999   7.160 -0.6803 -1.2113 -1.0344
   93SAPS   C24 9117   4.373   2.047   7.215  0.2097  0.3701 -0.4051
   93SAPS   H4R 9118   4.391   2.022   7.322 -0.5825  1.0666 -0.0987
   93SAPS   H4S 9119   4.326   1.955   7.175  0.0298 -0.4543  1.6118
   93SAPS   C25 9120   4.285   2.167   7.196  0.5836 -0.4627  0.2159
   93SAPS   H5R 9121   4.226   2.166   7.104 -0.7683 -0.8896  1.0545
   93SAPS   C26 9122   4.282   2.269   7.287  0.2913 -0.0499 -0.3593
   93SAPS   H6R 9123   4.211   2.352   7.278 -0.0439 -0.3240 -0.2644
   93SAPS   C27 9124   4.368   2.281   7.410  0.2632 -0.4977  0.2949
   93SAPS   H7R 9125   4.385   2.390   7.424  0.4703 -0.6105  0.9899
   93SAPS   H7S 9126   4.470   2.242   7.388  0.1018  0.5371 -2.6166
   93SAPS   C28 9127   4.324   2.224   7.543  0.4458  0.0638 -0.2983
   93SAPS   H8R 9128   4.333   2.115   7.554  0.8528  0.1802  0.5823
   93SAPS   C29 9129   4.274   2.303   7.643 -0.5193 -0.5405 -0.4515
   93SAPS   H9R 9130   4.248   2.259   7.740  0.0464  0.9711  0.4292
   93SAPS  C210 9131   4.252   2.451   7.641 -0.0216 -0.1028 -0.1577
   93SAPS  H10R 9132   4.231   2.487   7.538 -0.4433  0.7265  0.2109
   93SAPS  H10S 9133   4.353   2.496   7.645  1.3258 -2.7863 -1.3605
   93SAPS  C211 9134   4.149   2.508   7.739  0.2633  0.7598  0.6549
   93SAPS  H11R 9135   4.057   2.546   7.693  0.8565  0.6912 -0.6445
   93SAPS  C212 9136   4.163   2.513   7.876  0.6539 -0.3314  0.1116
   93SAPS  H12R 9137   4.079   2.555   7.932  1.2207 -1.4476  1.8611
   93SAPS  C213 9138   4.282   2.467   7.952 -0.6107 -0.0382  0.0108
   93SAPS  H13R 9139   4.349   2.553   7.929 -0.0463  0.4414  3.0050
   93SAPS  H13S 9140   4.318   2.372   7.908  1.0198  0.1871  0.7751
   93SAPS  C214 9141   4.263   2.450   8.100  0.8799  0.7186 -0.3840
   93SAPS  H14R 9142   4.285   2.346   8.129  0.3114  0.8153  0.4403
   93SAPS  C215 9143   4.247   2.549   8.192  0.3116 -0.0665 -0.1660
   93SAPS  H15R 9144   4.233   2.510   8.294  2.2367 -0.8104 -0.1463
   93SAPS  C216 9145   4.233   2.700   8.169 -0.1503 -0.7565  0.7012
   93SAPS  H16R 9146   4.239   2.722   8.061 -0.2063 -1.3528  0.5729
   93SAPS  H16S 9147   4.327   2.741   8.213 -0.0321 -1.4134  1.0733
   93SAPS  C217 9148   4.118   2.783   8.227 -0.5600  0.1083  0.4572
   93SAPS  H17R 9149   4.021   2.740   8.195 -0.5208  1.3425 -1.4509
   93SAPS  H17S 9150   4.123   2.884   8.182  0.5327 -0.2285 -0.2064
   93SAPS  C218 9151   4.146   2.805   8.379  0.3322 -0.4374 -0.1329
   93SAPS  H18R 9152   4.232   2.875   8.382 -1.3275  1.7622 -0.6005
   93SAPS  H18S 9153   4.163   2.712   8.437 -1.8491 -1.2173 -0.6439
   93SAPS  C219 9154   4.010   2.862   8.445 -0.4295  0.4652  0.3374
   93SAPS  H19R 9155   3.926   2.793   8.423  0.1306 -1.9697  4.5992
   93SAPS  H19S 9156   3.981   2.964   8.413  2.0505  1.7689  1.8868
   93SAPS  C220 9157   4.032   2.875   8.593 -0.5570  0.0664  0.0377
   93SAPS  H20R 9158   4.093   2.965   8.616 -0.5786 -0.1217  0.8725
   93SAPS  H20S 9159   4.088   2.782   8.617  0.5831  0.5629 -0.6332
   93SAPS  H20T 9160   3.933   2.880   8.644 -0.7016  1.7946 -0.3431
   93SAPS   C33 9161   4.385   1.691   7.080  0.1474  0.0673 -0.5996
   93SAPS   H3X 9162   4.384   1.798   7.053 -1.4214 -0.0337 -0.9998
   93SAPS   H3Y 9163   4.434   1.674   7.178  2.5095 -0.0201 -1.7160
   93SAPS   C34 9164   4.238   1.636   7.082 -0.5959  0.6968  0.0576
   93SAPS   H4X 9165   4.230   1.528   7.104 -1.0031  0.8866  0.8884
   93SAPS   H4Y 9166   4.198   1.647   6.979  0.3951  0.1177 -0.3980
   93SAPS   C35 9167   4.139   1.712   7.175 -0.3247 -0.1646  0.2749
   93SAPS   H5X 9168   4.036   1.673   7.156 -1.1241  2.3545 -1.1887
   93SAPS   H5Y 9169   4.146   1.812   7.126  3.8284 -0.9293 -1.0244
   93SAPS   C36 9170   4.187   1.719   7.319 -0.7511  1.1578 -0.3866
   93SAPS   H6X 9171   4.290   1.760   7.318 -1.0460  2.0240  1.4843
   93SAPS   H6Y 9172   4.187   1.613   7.352 -2.2842  1.5249  0.9199
   93SAPS   C37 9173   4.092   1.805   7.404  0.7249 -0.0802  0.4912
   93SAPS   H7X 9174   3.996   1.750   7.412  0.5255  0.5592  3.0767
   93SAPS   H7Y 9175   4.079   1.902   7.351 -1.9544 -0.0027  1.1920
   93SAPS   C38 9176   4.128   1.834   7.545  0.4463  0.1308 -0.1916
   93SAPS   H8X 9177   4.226   1.886   7.542  0.2333  0.5146 -0.6098
   93SAPS   H8Y 9178   4.139   1.742   7.606 -2.0901  0.2496  0.5413
   93SAPS   C39 9179   4.030   1.933   7.608 -0.4596  0.3566 -0.6540
   93SAPS   H9X 9180   3.932   1.882   7.604 -1.2499  1.6358  1.0961
   93SAPS   H9Y 9181   4.033   2.019   7.537  1.6459  0.5663 -0.3950
   93SAPS  C310 9182   4.086   1.972   7.747  0.0132  0.1076 -0.1195
   93SAPS  H10X 9183   4.192   2.002   7.740 -0.1725  1.1402  1.1252
   93SAPS  H10Y 9184   4.083   1.881   7.811  0.2842  0.7524  0.8171
   93SAPS  C311 9185   4.009   2.090   7.814 -0.2594 -0.2006  0.3254
   93SAPS  H11X 9186   3.900   2.072   7.829 -0.5123  2.7262  3.0050
   93SAPS  H11Y 9187   4.025   2.174   7.744  0.4043  0.0177  0.7291
   93SAPS  C312 9188   4.068   2.135   7.948  0.1300  0.2566  0.8254
   93SAPS  H12X 9189   4.001   2.206   8.001  0.3838  1.3272 -0.2384
   93SAPS  H12Y 9190   4.159   2.191   7.917  1.6168 -2.1548  0.5578
   93SAPS  C313 9191   4.101   2.015   8.034 -0.0159 -0.1294 -0.0747
   93SAPS  H13X 9192   4.186   1.957   7.993  2.0868  0.6967  2.8179
   93SAPS  H13Y 9193   4.022   1.949   8.077  1.7006 -1.5435  1.0050
   93SAPS  C314 9194   4.143   2.073   8.175  0.2486  0.4376  0.1859
   93SAPS  H14X 9195   4.235   2.130   8.154  1.4559  0.0078  3.7360
   93SAPS  H14Y 9196   4.168   1.988   8.243  0.6233 -1.3526 -2.0460
   93SAPS  C315 9197   4.039   2.161   8.245 -0.0125 -0.3665 -0.6673
   93SAPS  H15X 9198   3.939   2.114   8.248  0.1636 -0.7131  0.5222
   93SAPS  H15Y 9199   4.031   2.260   8.196  3.0242 -0.6956 -2.0735
   93SAPS  C316 9200   4.060   2.169   8.398 -0.3211  0.0759 -0.2715
   93SAPS  H16X 9201   4.162   2.205   8.423  0.3369 -0.1760 -2.3921
   93SAPS  H16Y 9202   4.073   2.066   8.437 -0.8791  0.4602  0.9787
   93SAPS  C317 9203   3.944   2.242   8.466  0.0033  0.6757  0.5542
   93SAPS  H17X 9204   3.847   2.228   8.414 -0.1794  0.1967  1.0152
   93SAPS  H17Y 9205   3.953   2.353   8.464 -0.4183  0.7288  1.1875
   93SAPS  C318 9206   3.927   2.188   8.609  0.0894 -0.1470 -0.3145
   93SAPS  H18X 9207   3.848   2.249   8.658  0.0432 -0.4373 -0.0224
   93SAPS  H18Y 9208   4.019   2.206   8.668 -0.4534  1.7613  0.0184
   93SAPS  H18Z 9209   3.892   2.083   8.595 -2.1597  0.5828 -0.6517
   94SAPS     N 9210   5.503   5.478   5.709  0.0732  0.0090  0.2541
   94SAPS   HN1 9211   5.499   5.374   5.700 -1.0113  0.2273 -3.2512
   94SAPS   HN2 9212   5.405   5.513   5.707 -0.3119 -1.0697 -0.2320
   94SAPS   HN3 9213   5.558   5.507   5.626  2.3958 -1.6574  1.0873
   94SAPS   C12 9214   5.563   5.501   5.847  0.4679  0.0498 -0.7050
   94SAPS  H12A 9215   5.669   5.479   5.839  0.8818  1.9768 -1.1057
   94SAPS   C13 9216   5.570   5.645   5.881 -0.0772  0.0384 -0.2129
   94SAPS  O13A 9217   5.552   5.737   5.790 -0.0599  0.5469 -0.0463
   94SAPS  O13B 9218   5.650   5.672   5.978 -0.1553  0.0160  0.4235
   94SAPS   C11 9219   5.473   5.419   5.939  0.0365  0.2671  0.4744
   94SAPS  H11A 9220   5.509   5.405   6.043 -2.4927 -1.6347  1.2246
   94SAPS  H11B 9221   5.482   5.312   5.909 -0.4550  0.7248 -1.4210
   94SAPS     P 9222   5.224   5.367   5.996 -0.4549  0.3593  0.4203
   94SAPS   O13 9223   5.087   5.424   5.972  0.0783  0.2025 -0.3727
   94SAPS   O14 9224   5.237   5.227   5.951 -0.2643 -0.0978  0.0103
   94SAPS   O12 9225   5.335   5.459   5.927  0.1094 -0.4942  0.5341
   94SAPS   O11 9226   5.272   5.384   6.151  0.7513 -0.2566 -0.0246
   94SAPS    C1 9227   5.285   5.271   6.234 -0.1413  0.1414  0.5424
   94SAPS    HA 9228   5.309   5.178   6.178  1.2006  0.6923  0.1572
   94SAPS    HB 9229   5.381   5.284   6.289  1.6017 -2.2475 -1.6933
   94SAPS    C2 9230   5.164   5.259   6.331 -0.0688 -0.5076 -0.0569
   94SAPS    HS 9231   5.072   5.287   6.276 -0.6024  2.9202  2.2368
   94SAPS   O21 9232   5.189   5.342   6.447  0.5186  0.1974  0.3990
   94SAPS   C21 9233   5.081   5.391   6.511 -0.0185 -0.1503 -0.4301
   94SAPS   O22 9234   4.965   5.368   6.484  0.4159 -0.1856  0.4870
   94SAPS   C22 9235   5.135   5.446   6.640  0.0570 -0.3167  0.4848
   94SAPS   H2R 9236   5.101   5.377   6.720  2.0619 -1.3691  0.4903
   94SAPS   H2S 9237   5.246   5.442   6.642  0.0207 -1.3093  1.3432
   94SAPS    C3 9238   5.143   5.109   6.373  0.1880 -0.0402 -0.0434
   94SAPS    HX 9239   5.241   5.076   6.415 -0.7704 -2.2817  0.5936
   94SAPS    HY 9240   5.139   5.051   6.278 -0.1409  3.0809 -2.0466
   94SAPS   O31 9241   5.042   5.089   6.473  0.5876  0.0235  0.0762
   94SAPS   C31 9242   5.023   4.958   6.494  0.7231 -0.0963  0.7577
   94SAPS   O32 9243   5.069   4.869   6.429 -0.1591 -0.2060 -0.3138
   94SAPS   C32 9244   4.922   4.941   6.609  0.5583 -0.2316 -0.1769
   94SAPS   H2X 9245   4.822   4.911   6.571 -0.0467  1.0918  0.3176
   94SAPS   H2Y 9246   4.909   5.037   6.664  0.3487 -0.1865 -0.3009
   94SAPS   C23 9247   5.081   5.585   6.665 -0.3702  0.3772 -0.2105
   94SAPS   H3R 9248   5.071   5.645   6.573  0.6444  2.9820  1.2625
   94SAPS   H3S 9249   5.153   5.644   6.725 -1.6083  1.2059  0.4977
   94SAPS   C24 9250   4.943   5.582   6.738 -0.2506 -0.0842 -0.5312
   94SAPS   H4R 9251   4.977   5.530   6.830 -0.6282  2.1137  0.9159
   94SAPS   H4S 9252   4.870   5.520   6.682  0.6065 -1.7230  0.0985
   94SAPS   C25 9253   4.897   5.721   6.768 -0.3803 -0.1304 -0.3363
   94SAPS   H5R 9254   4.873   5.787   6.683 -0.2786  0.1369 -0.1593
   94SAPS   C26 9255   4.853   5.765   6.886  0.2881 -0.6883  0.5094
   94SAPS   H6R 9256   4.814   5.867   6.880  0.4013 -0.6732 -4.4745
   94SAPS   C27 9257   4.840   5.687   7.015  0.1053  0.6845  1.1402
   94SAPS   H7R 9258   4.839   5.579   6.991  0.1814  1.1091 -0.9310
   94SAPS   H7S 9259   4.742   5.715   7.060  1.3062  1.7080  3.3087
   94SAPS   C28 9260   4.950   5.717   7.105  0.3834 -0.1728 -0.8096
   94SAPS   H8R 9261   5.048   5.740   7.061  0.7247 -1.1826 -0.6251
   94SAPS   C29 9262   4.941   5.716   7.238 -0.7274 -0.0419  0.6783
   94SAPS   H9R 9263   5.037   5.713   7.292  0.7150 -0.1013 -1.7732
   94SAPS  C210 9264   4.820   5.688   7.326  0.1317  0.5635 -0.5417
   94SAPS  H10R 9265   4.754   5.625   7.263  1.3191 -2.4468  1.0236
   94SAPS  H10S 9266   4.771   5.786   7.348 -0.3932 -0.3493  3.1230
   94SAPS  C211 9267   4.847   5.627   7.464  0.1327 -0.5950  0.7728
   94SAPS  H11R 9268   4.947   5.641   7.506  1.1328  2.4260 -2.1505
   94SAPS  C212 9269   4.746   5.576   7.538  0.0831 -0.2096 -0.3533
   94SAPS  H12R 9270   4.771   5.551   7.642 -0.8760 -2.2702 -0.5780
   94SAPS  C213 9271   4.600   5.556   7.510  0.2540  0.0876  0.4020
   94SAPS  H13R 9272   4.573   5.623   7.426  0.8739 -1.6486 -1.2629
   94SAPS  H13S 9273   4.537   5.589   7.595 -0.1323 -0.5488  0.3729
   94SAPS  C214 9274   4.566   5.410   7.464  1.3211 -0.2703  0.4439
   94SAPS  H14R 9275   4.567   5.390   7.356 -0.0113 -0.2427  0.4145
   94SAPS  C215 9276   4.541   5.306   7.540 -0.2025 -0.2253  0.0383
   94SAPS  H15R 9277   4.511   5.208   7.499  2.3546 -1.4331  0.8662
   94SAPS  C216 9278   4.541   5.294   7.690 -0.3665 -0.5740  0.1756
   94SAPS  H16R 9279   4.607   5.368   7.741 -2.0691  0.3868  1.0718
   94SAPS  H16S 9280   4.584   5.195   7.714 -1.9835 -1.4750 -0.5166
   94SAPS  C217 9281   4.401   5.289   7.761  0.2904  0.5502 -0.2265
   94SAPS  H17R 9282   4.433   5.286   7.868  2.6649  0.1010 -0.8902
   94SAPS  H17S 9283   4.353   5.195   7.724  1.2905 -0.3541  0.6975
   94SAPS  C218 9284   4.311   5.411   7.732 -0.0615 -0.2353  0.6193
   94SAPS  H18R 9285   4.213   5.370   7.764  0.0878  0.5116  2.1228
   94SAPS  H18S 9286   4.311   5.431   7.622  0.2598 -1.0284  0.4652
   94SAPS  C219 9287   4.338   5.539   7.818  0.2475  0.3809  0.6279
   94SAPS  H19R 9288   4.437   5.581   7.790  0.1414  0.2128 -0.0223
   94SAPS  H19S 9289   4.340   5.511   7.925 -2.1651 -0.9157  0.3997
   94SAPS  C220 9290   4.237   5.647   7.795  0.6234 -0.1852 -0.2191
   94SAPS  H20R 9291   4.247   5.687   7.692 -1.0432  2.0313  0.3969
   94SAPS  H20S 9292   4.241   5.744   7.849 -0.9977  0.2814 -0.9017
   94SAPS  H20T 9293   4.137   5.603   7.815 -0.6418  2.7545  0.5022
   94SAPS   C33 9294   4.975   4.836   6.713  0.2538 -0.1894  0.4967
   94SAPS   H3X 9295   5.081   4.846   6.742  0.5706 -0.2010 -0.6131
   94SAPS   H3Y 9296   4.979   4.732   6.673  0.2819  0.0328 -0.0889
   94SAPS   C34 9297   4.887   4.834   6.841 -0.3746  0.3225  0.1353
   94SAPS   H4X 9298   4.790   4.786   6.818 -0.5434 -0.4255  2.1814
   94SAPS   H4Y 9299   4.885   4.937   6.884  0.0970  0.6246 -0.5420
   94SAPS   C35 9300   4.945   4.751   6.962 -0.3228 -0.0416  0.5689
   94SAPS   H5X 9301   5.055   4.755   6.951 -0.4890 -0.0925 -1.3639
   94SAPS   H5Y 9302   4.908   4.647   6.958  1.2964 -0.6142 -0.2849
   94SAPS   C36 9303   4.903   4.801   7.102 -0.2773  0.4637  0.2288
   94SAPS   H6X 9304   4.795   4.788   7.125 -0.1834 -2.5338 -0.6186
   94SAPS   H6Y 9305   4.934   4.907   7.114  0.3475  0.3324 -0.1895
   94SAPS   C37 9306   4.978   4.722   7.205 -0.8543  0.4825 -0.2401
   94SAPS   H7X 9307   5.087   4.726   7.188 -0.7229  0.0795  0.4690
   94SAPS   H7Y 9308   4.937   4.619   7.202  1.3857 -0.5288  1.3269
   94SAPS   C38 9309   4.955   4.760   7.356  0.3391 -0.4512  0.4893
   94SAPS   H8X 9310   4.850   4.794   7.374  0.3261  0.2035 -0.7274
   94SAPS   H8Y 9311   5.018   4.848   7.381  2.3651 -1.3649 -1.2036
   94SAPS   C39 9312   5.001   4.648   7.451  0.0459  0.5032 -0.8394
   94SAPS   H9X 9313   5.104   4.615   7.427  0.3247 -1.5990  2.5343
   94SAPS   H9Y 9314   4.929   4.564   7.440 -0.7536  0.9435  0.7265
   94SAPS  C310 9315   5.003   4.691   7.601  0.0130 -0.0543 -0.3938
   94SAPS  H10X 9316   4.899   4.716   7.631 -1.0068 -1.5541 -2.3768
   94SAPS  H10Y 9317   5.073   4.776   7.611 -1.3520  1.1057 -0.3137
   94SAPS  C311 9318   5.051   4.579   7.692 -0.4029 -0.4564  0.2286
   94SAPS  H11X 9319   5.160   4.590   7.712 -0.6697  2.5344  0.4041
   94SAPS  H11Y 9320   5.043   4.479   7.644 -0.4058 -0.0715 -0.5923
   94SAPS  C312 9321   4.993   4.569   7.830 -0.1392  0.5430 -0.0784
   94SAPS  H12X 9322   5.043   4.483   7.878  0.4583  1.4992  1.0517
   94SAPS  H12Y 9323   4.884   4.549   7.818  0.3826 -2.7910  0.0272
   94SAPS  C313 9324   5.009   4.703   7.907  1.4807  0.5374  0.9601
   94SAPS  H13X 9325   4.937   4.779   7.871  0.4399 -0.7392  0.2383
   94SAPS  H13Y 9326   5.112   4.741   7.894  1.4897  0.0865 -0.4581
   94SAPS  C314 9327   4.966   4.698   8.057 -0.0314 -0.2019 -0.1115
   94SAPS  H14X 9328   5.028   4.630   8.120  0.3912 -0.2233 -0.5530
   94SAPS  H14Y 9329   4.863   4.655   8.064  0.3529 -1.0584  0.5571
   94SAPS  C315 9330   4.955   4.842   8.101  0.2089 -0.3272  0.8362
   94SAPS  H15X 9331   4.869   4.886   8.047 -0.6843 -0.2394  2.2774
   94SAPS  H15Y 9332   5.047   4.903   8.088  1.1942 -1.4244  2.3106
   94SAPS  C316 9333   4.921   4.854   8.251 -0.2813 -0.0280 -0.8536
   94SAPS  H16X 9334   5.005   4.809   8.307 -0.7446  0.2760  0.0957
   94SAPS  H16Y 9335   4.828   4.794   8.269 -0.3977  0.5389  0.5355
   94SAPS  C317 9336   4.889   4.996   8.294  0.9385 -0.3320 -0.0357
   94SAPS  H17X 9337   4.987   5.046   8.284  0.6377  0.1997 -0.3717
   94SAPS  H17Y 9338   4.859   5.006   8.401 -1.7450  4.4209 -0.9576
   94SAPS  C318 9339   4.790   5.074   8.212  0.1590  0.4213 -0.5326
   94SAPS  H18X 9340   4.714   5.128   8.273 -0.4566 -0.7254 -0.2591
   94SAPS  H18Y 9341   4.734   5.004   8.148 -0.2336 -2.0626  2.3001
   94SAPS  H18Z 9342   4.834   5.149   8.143 -1.6465  1.1350 -0.9521
   95SAPS     N 9343   1.047   2.774   6.182  0.4362 -0.3811 -0.8019
   95SAPS   HN1 9344   1.029   2.705   6.258  0.4955  1.5716  1.0744
   95SAPS   HN2 9345   1.049   2.867   6.228 -0.6225 -1.8703  2.6242
   95SAPS   HN3 9346   0.971   2.764   6.113 -0.0138  0.2564 -0.4130
   95SAPS   C12 9347   1.178   2.746   6.115  0.8907  0.0655  0.8041
   95SAPS  H12A 9348   1.161   2.663   6.048 -0.0523  1.8192 -1.2706
   95SAPS   C13 9349   1.232   2.861   6.023 -0.3446  0.4624 -0.1255
   95SAPS  O13A 9350   1.159   2.956   5.989  0.4153  0.5467 -0.2378
   95SAPS  O13B 9351   1.320   2.816   5.943 -0.1752  0.0253  0.3913
   95SAPS   C11 9352   1.281   2.697   6.220 -0.5203  0.3159 -0.6075
   95SAPS  H11A 9353   1.315   2.771   6.296  2.1907 -1.6855  0.2935
   95SAPS  H11B 9354   1.372   2.679   6.159 -0.2654  0.1182 -0.1761
   95SAPS     P 9355   1.338   2.497   6.389 -0.2348 -0.0972  0.5244
   95SAPS   O13 9356   1.300   2.360   6.406  0.7324 -0.1801  0.4886
   95SAPS   O14 9357   1.478   2.519   6.351 -0.3264 -0.1686 -1.2686
   95SAPS   O12 9358   1.239   2.580   6.295 -0.3317  0.8308  0.5806
   95SAPS   O11 9359   1.320   2.554   6.532  1.0828 -0.0692 -0.6668
   95SAPS    C1 9360   1.216   2.645   6.568  0.1053 -0.0991  0.8162
   95SAPS    HA 9361   1.253   2.748   6.550 -3.0556  1.0540  0.2405
   95SAPS    HB 9362   1.120   2.638   6.511  0.6554  0.5178 -0.2272
   95SAPS    C2 9363   1.171   2.636   6.712 -0.2249 -0.1633 -0.8933
   95SAPS    HS 9364   1.108   2.720   6.748  1.2334  0.0306  1.4765
   95SAPS   O21 9365   1.288   2.603   6.797  0.4381  0.1630 -0.1498
   95SAPS   C21 9366   1.288   2.675   6.894 -0.0032 -0.0095 -0.3584
   95SAPS   O22 9367   1.214   2.767   6.928 -0.3179 -0.0797  0.1206
   95SAPS   C22 9368   1.391   2.610   6.988 -0.2443  0.3518 -0.4784
   95SAPS   H2R 9369   1.360   2.505   7.008  0.2218  0.3722  0.4190
   95SAPS   H2S 9370   1.481   2.583   6.930 -0.1705  0.1954 -0.2937
   95SAPS    C3 9371   1.083   2.505   6.735 -0.4752 -0.0177  0.6883
   95SAPS    HX 9372   1.137   2.424   6.682 -0.2010 -0.7472  2.0375
   95SAPS    HY 9373   0.988   2.511   6.678 -1.1834  2.2765  1.9605
   95SAPS   O31 9374   1.061   2.479   6.872 -0.4508 -0.4135 -0.4406
   95SAPS   C31 9375   0.929   2.459   6.911 -0.0090  0.2952 -0.2163
   95SAPS   O32 9376   0.829   2.445   6.846  0.7803  0.7059 -0.1399
   95SAPS   C32 9377   0.929   2.432   7.060  0.6102 -0.2467  0.1251
   95SAPS   H2X 9378   1.004   2.503   7.100  1.4187 -1.1059  0.1646
   95SAPS   H2Y 9379   0.973   2.333   7.085  1.4245  0.3728  1.2173
   95SAPS   C23 9380   1.409   2.684   7.115  0.5349 -0.6369  0.5469
   95SAPS   H3R 9381   1.315   2.676   7.174  1.3815 -2.7799  1.7172
   95SAPS   H3S 9382   1.426   2.792   7.093 -1.7483 -0.2988  0.1938
   95SAPS   C24 9383   1.524   2.632   7.192  0.1262 -0.3338 -0.5835
   95SAPS   H4R 9384   1.567   2.703   7.266 -0.7526  0.3642 -0.7344
   95SAPS   H4S 9385   1.606   2.625   7.118 -0.3410 -0.7475 -1.0685
   95SAPS   C25 9386   1.514   2.491   7.255 -0.1635 -0.9176 -0.1369
   95SAPS   H5R 9387   1.512   2.406   7.185  2.5619  0.9770 -2.8085
   95SAPS   C26 9388   1.515   2.469   7.385  0.6263 -0.5867 -0.8797
   95SAPS   H6R 9389   1.486   2.368   7.416 -1.2794 -0.3154 -1.6204
   95SAPS   C27 9390   1.510   2.569   7.500 -0.8192 -0.0226  0.2857
   95SAPS   H7R 9391   1.521   2.675   7.468 -1.5979 -0.4835 -1.6518
   95SAPS   H7S 9392   1.594   2.536   7.564 -0.3058 -0.9465 -0.8431
   95SAPS   C28 9393   1.388   2.557   7.581 -0.2134  0.0607  0.4215
   95SAPS   H8R 9394   1.292   2.568   7.528 -1.0687 -1.3901  1.5878
   95SAPS   C29 9395   1.375   2.533   7.712 -0.1554 -0.2592  0.3751
   95SAPS   H9R 9396   1.277   2.506   7.755 -0.2178 -1.9279 -0.6861
   95SAPS  C210 9397   1.486   2.519   7.819 -0.0530  0.4176 -0.8407
   95SAPS  H10R 9398   1.581   2.536   7.763  0.8819  0.5676  0.7382
   95SAPS  H10S 9399   1.495   2.410   7.839  2.9731  0.5204 -1.0829
   95SAPS  C211 9400   1.480   2.601   7.952 -0.4621 -0.7414 -0.0309
   95SAPS  H11R 9401   1.542   2.691   7.943  1.5648 -2.0348  0.4695
   95SAPS  C212 9402   1.441   2.562   8.075 -0.0631 -0.8921 -0.0678
   95SAPS  H12R 9403   1.450   2.641   8.151 -0.3336  0.3176 -1.2366
   95SAPS  C213 9404   1.380   2.427   8.112 -0.1755  0.2212  0.3183
   95SAPS  H13R 9405   1.394   2.410   8.222  1.2833 -0.1571  0.1052
   95SAPS  H13S 9406   1.443   2.346   8.069  0.5887  1.3532 -0.7631
   95SAPS  C214 9407   1.245   2.407   8.060 -0.0817 -0.2658 -0.5594
   95SAPS  H14R 9408   1.235   2.380   7.954 -3.0515  2.8982 -1.2525
   95SAPS  C215 9409   1.125   2.406   8.122 -0.4622  0.2151 -0.7645
   95SAPS  H15R 9410   1.035   2.373   8.068 -1.1720 -2.3634  1.7366
   95SAPS  C216 9411   1.095   2.439   8.264 -0.4559  0.0605 -0.5189
   95SAPS  H16R 9412   0.998   2.493   8.274  0.2650  1.6418 -1.5938
   95SAPS  H16S 9413   1.177   2.502   8.306 -0.1910  0.0779 -1.0520
   95SAPS  C217 9414   1.104   2.314   8.361 -0.0741  0.0692  0.9780
   95SAPS  H17R 9415   1.189   2.251   8.327 -1.1750 -1.0868  0.2837
   95SAPS  H17S 9416   1.012   2.259   8.332  0.3907 -0.9243  1.3429
   95SAPS  C218 9417   1.093   2.337   8.505 -0.1632  0.4460 -0.1477
   95SAPS  H18R 9418   1.019   2.260   8.536 -2.5467  2.3375 -0.7302
   95SAPS  H18S 9419   1.059   2.442   8.518 -0.0550  0.1594  3.0874
   95SAPS  C219 9420   1.225   2.326   8.586  0.2637  0.5172 -0.0203
   95SAPS  H19R 9421   1.295   2.407   8.557 -0.0589  0.7405 -0.1949
   95SAPS  H19S 9422   1.270   2.227   8.565  2.9231  1.6747 -0.1986
   95SAPS  C220 9423   1.214   2.335   8.733  0.2776 -0.3091 -0.0102
   95SAPS  H20R 9424   1.305   2.300   8.786 -0.2327  0.0596  1.1492
   95SAPS  H20S 9425   1.132   2.271   8.771 -2.2681  2.2755 -0.7224
   95SAPS  H20T 9426   1.187   2.437   8.768  2.0712  0.2263 -0.0966
   95SAPS   C33 9427   0.792   2.460   7.137 -0.3134 -0.0105 -0.0166
   95SAPS   H3X 9428   0.702   2.433   7.077 -0.1663 -0.2522 -0.1314
   95SAPS   H3Y 9429   0.779   2.570   7.145  0.5197  0.0222  1.3151
   95SAPS   C34 9430   0.796   2.403   7.277 -1.2228  0.4725 -0.3800
   95SAPS   H4X 9431   0.877   2.448   7.338 -1.7600  2.8970 -1.3446
   95SAPS   H4Y 9432   0.824   2.296   7.262  0.5615  1.0743 -1.6516
   95SAPS   C35 9433   0.668   2.399   7.359  0.2783  0.9640  0.3482
   95SAPS   H5X 9434   0.592   2.373   7.283  0.7132  1.6794 -0.3452
   95SAPS   H5Y 9435   0.654   2.505   7.390 -0.5221  0.7042  0.9386
   95SAPS   C36 9436   0.662   2.293   7.474 -0.0885  0.4895  0.6645
   95SAPS   H6X 9437   0.726   2.333   7.555  0.2020  2.5492 -0.4968
   95SAPS   H6Y 9438   0.702   2.193   7.448 -1.2981 -0.0695  0.8801
   95SAPS   C37 9439   0.523   2.287   7.528 -0.2756 -0.4646 -0.1681
   95SAPS   H7X 9440   0.456   2.306   7.441  1.5181  2.1788 -1.0892
   95SAPS   H7Y 9441   0.495   2.366   7.601 -1.1864 -0.1775 -0.8074
   95SAPS   C38 9442   0.499   2.159   7.608  0.1191  0.3204  0.1395
   95SAPS   H8X 9443   0.572   2.149   7.691 -2.1996 -1.9398  2.1314
   95SAPS   H8Y 9444   0.518   2.073   7.541  0.4758  1.4464 -1.2396
   95SAPS   C39 9445   0.356   2.159   7.661  0.0760  0.4581  0.0065
   95SAPS   H9X 9446   0.294   2.155   7.569  0.1924 -1.2384 -0.0325
   95SAPS   H9Y 9447   0.322   2.245   7.723 -0.2297  0.5923 -0.3438
   95SAPS  C310 9448   0.317   2.030   7.749 -0.0732 -0.2130 -0.0333
   95SAPS  H10X 9449   0.360   1.935   7.710  0.3967 -0.2696  0.6009
   95SAPS  H10Y 9450   0.207   2.019   7.752 -0.0285 -3.4613 -3.4786
   95SAPS  C311 9451   0.365   2.057   7.892 -0.0236  0.1256  0.0787
   95SAPS  H11X 9452   0.286   2.126   7.929 -0.7007 -0.3891 -0.3810
   95SAPS  H11Y 9453   0.468   2.096   7.879  0.1752 -0.4423 -0.0744
   95SAPS  C312 9454   0.379   1.935   7.987 -0.1579 -0.2157 -0.3520
   95SAPS  H12X 9455   0.454   1.861   7.952  2.0629  1.0241  1.5604
   95SAPS  H12Y 9456   0.281   1.882   7.997  0.0949 -0.6351 -0.0720
   95SAPS  C313 9457   0.422   1.959   8.136  0.7869  0.3376  0.4353
   95SAPS  H13X 9458   0.529   1.990   8.133  1.4952 -1.8412  0.9694
   95SAPS  H13Y 9459   0.409   1.859   8.183 -2.9007  1.3865  1.9629
   95SAPS  C314 9460   0.335   2.052   8.227  0.8174  0.0364  0.0882
   95SAPS  H14X 9461   0.310   2.143   8.169 -0.3944 -0.4160 -0.1502
   95SAPS  H14Y 9462   0.388   2.070   8.323  1.0831 -2.8565  0.5861
   95SAPS  C315 9463   0.199   1.981   8.265  0.9938 -0.2644  0.8798
   95SAPS  H15X 9464   0.217   1.898   8.337 -1.3538 -1.6249  0.0093
   95SAPS  H15Y 9465   0.141   1.943   8.178  1.2509  1.7369 -0.2337
   95SAPS  C316 9466   0.102   2.091   8.324  0.0739  0.5962 -0.0015
   95SAPS  H16X 9467   0.013   2.025   8.336  0.1888  0.1683 -1.3295
   95SAPS  H16Y 9468   0.067   2.169   8.253 -0.2372  1.6809  1.2953
   95SAPS  C317 9469   0.154   2.158   8.458 -0.6220 -0.0778  0.1125
   95SAPS  H17X 9470   0.249   2.207   8.427  0.7050 -2.6702 -0.1636
   95SAPS  H17Y 9471   0.177   2.087   8.540  1.2803 -0.3413 -0.5791
   95SAPS  C318 9472   0.057   2.260   8.512 -0.4062  0.2435 -0.8149
   95SAPS  H18X 9473   0.087   2.312   8.606 -2.5627  2.0612 -1.0479
   95SAPS  H18Y 9474  -0.035   2.206   8.546 -0.1458 -0.4898 -1.2462
   95SAPS  H18Z 9475   0.034   2.340   8.440  0.9765 -0.7643 -2.4472
   96SAPS     N 9476   2.076   3.448   6.413 -0.3036  0.3655  0.8822
   96SAPS   HN1 9477   2.053   3.350   6.442 -0.8140  0.5491  1.1161
   96SAPS   HN2 9478   2.170   3.475   6.447  0.8089  0.9335 -2.2717
   96SAPS   HN3 9479   2.010   3.517   6.454 -2.3562 -2.1611  2.1122
   96SAPS   C12 9480   2.072   3.452   6.262 -0.1583 -0.0038  0.1634
   96SAPS  H12A 9481   2.099   3.551   6.228  0.5466 -0.0886  0.4749
   96SAPS   C13 9482   2.170   3.364   6.184  0.5683  0.2914  0.5013
   96SAPS  O13A 9483   2.276   3.333   6.244  0.1144  0.2101 -0.1445
   96SAPS  O13B 9484   2.151   3.350   6.056 -0.0114  0.0843 -0.4922
   96SAPS   C11 9485   1.924   3.410   6.209  0.1065  0.3207  0.1186
   96SAPS  H11A 9486   1.901   3.306   6.239 -1.7844  0.3535 -1.0374
   96SAPS  H11B 9487   1.920   3.418   6.098  1.6716  3.0748  0.1692
   96SAPS     P 9488   1.680   3.481   6.257  0.4238  0.2048  0.2998
   96SAPS   O13 9489   1.632   3.590   6.169 -0.6918 -0.5089 -0.2850
   96SAPS   O14 9490   1.647   3.343   6.213  0.4126 -0.3998 -0.3642
   96SAPS   O12 9491   1.836   3.503   6.279 -0.3793  0.1529  0.4856
   96SAPS   O11 9492   1.642   3.492   6.405 -0.9668  1.2216 -0.1755
   96SAPS    C1 9493   1.713   3.404   6.499 -0.0164 -0.1310  0.0488
   96SAPS    HA 9494   1.776   3.331   6.445 -1.0182  0.2990 -1.7872
   96SAPS    HB 9495   1.778   3.462   6.568 -0.2999  0.0380  0.1795
   96SAPS    C2 9496   1.612   3.338   6.601 -0.4600 -0.0749 -0.2490
   96SAPS    HS 9497   1.569   3.248   6.552  0.7581  0.1455 -1.7525
   96SAPS   O21 9498   1.518   3.433   6.650 -0.1244 -0.4044  0.3546
   96SAPS   C21 9499   1.402   3.437   6.578 -0.2120  0.1646 -0.7249
   96SAPS   O22 9500   1.380   3.377   6.476  0.3928  0.5737 -0.3600
   96SAPS   C22 9501   1.313   3.548   6.632 -0.2678 -0.6908 -0.4389
   96SAPS   H2R 9502   1.380   3.620   6.685 -1.4977  0.5256 -0.4857
   96SAPS   H2S 9503   1.269   3.596   6.542 -1.1008 -1.2953 -0.3686
   96SAPS    C3 9504   1.699   3.285   6.726  0.5245 -0.6006  0.5926
   96SAPS    HX 9505   1.773   3.363   6.752  1.3705 -0.6700 -1.3829
   96SAPS    HY 9506   1.753   3.197   6.683  0.2883 -0.2649 -0.4244
   96SAPS   O31 9507   1.616   3.235   6.833 -0.5988 -0.3230 -0.0371
   96SAPS   C31 9508   1.559   3.112   6.829  0.3133  0.0430  0.5494
   96SAPS   O32 9509   1.575   3.025   6.748  0.2459 -0.0836  0.7342
   96SAPS   C32 9510   1.460   3.107   6.946  0.4902 -0.4740  0.1949
   96SAPS   H2X 9511   1.402   3.014   6.927 -0.6284  0.3758 -0.6874
   96SAPS   H2Y 9512   1.395   3.197   6.942  1.1378 -0.0588 -2.1810
   96SAPS   C23 9513   1.204   3.480   6.718  1.3304  0.2038  0.3031
   96SAPS   H3R 9514   1.133   3.428   6.650 -1.7716  4.2722 -0.0159
   96SAPS   H3S 9515   1.148   3.564   6.765  2.0472  2.0256 -1.8604
   96SAPS   C24 9516   1.240   3.394   6.842 -0.1457 -0.4783  0.7987
   96SAPS   H4R 9517   1.273   3.294   6.805  0.9158 -0.5809  1.9710
   96SAPS   H4S 9518   1.148   3.372   6.900  0.4498 -1.9281  1.2471
   96SAPS   C25 9519   1.349   3.460   6.934  0.1358  0.1300  0.9922
   96SAPS   H5R 9520   1.452   3.448   6.898  0.2628 -1.6469  1.8340
   96SAPS   C26 9521   1.327   3.529   7.045  0.2198 -0.2034 -0.6876
   96SAPS   H6R 9522   1.403   3.588   7.099 -0.4617 -1.5897  1.9204
   96SAPS   C27 9523   1.187   3.547   7.090 -0.1456 -1.0093  0.3265
   96SAPS   H7R 9524   1.145   3.447   7.111  1.0108 -1.5784  0.0394
   96SAPS   H7S 9525   1.125   3.584   7.005  1.4494  2.0001  0.3148
   96SAPS   C28 9526   1.149   3.642   7.211  0.2750  0.3590  0.7362
   96SAPS   H8R 9527   1.084   3.728   7.190  1.4837  1.2269  0.3805
   96SAPS   C29 9528   1.183   3.617   7.340  0.2627  0.5145 -0.3164
   96SAPS   H9R 9529   1.143   3.685   7.416 -0.3770  0.2360 -0.3964
   96SAPS  C210 9530   1.265   3.505   7.393  0.1875  0.2345  0.5062
   96SAPS  H10R 9531   1.348   3.553   7.450  0.9625 -0.1518 -0.2774
   96SAPS  H10S 9532   1.307   3.438   7.315 -1.6034 -0.2035 -0.1340
   96SAPS  C211 9533   1.182   3.410   7.478 -0.5222  0.0931  0.4415
   96SAPS  H11R 9534   1.123   3.344   7.413  0.3085  0.6867 -0.9700
   96SAPS  C212 9535   1.181   3.403   7.614  0.7679  0.9152 -0.6323
   96SAPS  H12R 9536   1.111   3.335   7.664  2.3946  0.8173  1.6710
   96SAPS  C213 9537   1.258   3.478   7.718  0.5524  0.7293 -0.7717
   96SAPS  H13R 9538   1.187   3.556   7.751 -1.6681 -1.0551 -1.0990
   96SAPS  H13S 9539   1.348   3.531   7.679  0.2757  0.6338 -1.5643
   96SAPS  C214 9540   1.289   3.392   7.836  0.3729 -0.8380  0.2572
   96SAPS  H14R 9541   1.365   3.317   7.808  0.4534  0.0098 -1.9655
   96SAPS  C215 9542   1.229   3.389   7.952  0.1014  0.4491  0.2199
   96SAPS  H15R 9543   1.249   3.313   8.029 -2.2984 -0.8992 -0.3725
   96SAPS  C216 9544   1.113   3.479   8.000  0.9654 -0.5204  0.4632
   96SAPS  H16R 9545   1.117   3.566   7.931  0.5761  0.0429  1.1350
   96SAPS  H16S 9546   1.117   3.515   8.105 -0.5585  0.6184  0.1627
   96SAPS  C217 9547   0.982   3.393   7.994 -0.2333  0.2671 -0.3429
   96SAPS  H17R 9548   0.972   3.335   8.089 -1.7677 -0.7032 -1.0613
   96SAPS  H17S 9549   0.979   3.310   7.920 -2.8412 -0.2865  0.2703
   96SAPS  C218 9550   0.862   3.491   7.999 -0.5490  0.5081  0.2432
   96SAPS  H18R 9551   0.854   3.540   7.900  1.2546 -0.8215 -0.6327
   96SAPS  H18S 9552   0.885   3.572   8.072  3.7746  0.3511 -0.6592
   96SAPS  C219 9553   0.724   3.429   8.032 -0.0282  0.4246 -0.6787
   96SAPS  H19R 9554   0.707   3.348   7.958  0.0219  0.7771 -1.0761
   96SAPS  H19S 9555   0.644   3.505   8.025 -1.6096 -1.3076 -2.7578
   96SAPS  C220 9556   0.713   3.375   8.170  0.0830 -0.0301  0.3410
   96SAPS  H20R 9557   0.607   3.361   8.199 -0.0442 -0.9098 -0.5366
   96SAPS  H20S 9558   0.760   3.442   8.246  1.0347 -1.6212  1.2120
   96SAPS  H20T 9559   0.758   3.276   8.190  2.8964  1.1511  0.3311
   96SAPS   C33 9560   1.523   3.114   7.087  0.0221 -0.6803 -0.2299
   96SAPS   H3X 9561   1.570   3.213   7.108 -0.8050 -0.2511 -0.3586
   96SAPS   H3Y 9562   1.605   3.039   7.090 -0.5150 -1.2510  0.6005
   96SAPS   C34 9563   1.413   3.083   7.198 -0.7171  0.3685  0.6593
   96SAPS   H4X 9564   1.352   2.996   7.166  0.4258  0.0308 -0.7051
   96SAPS   H4Y 9565   1.353   3.176   7.195 -1.3813 -0.0544  0.8682
   96SAPS   C35 9566   1.466   3.051   7.332 -0.3757 -0.3189 -0.5112
   96SAPS   H5X 9567   1.518   3.145   7.360 -1.5980  0.1911  0.1287
   96SAPS   H5Y 9568   1.546   2.974   7.338 -0.7535 -0.6049  1.6242
   96SAPS   C36 9569   1.366   3.008   7.443 -0.0857  0.0239 -0.0927
   96SAPS   H6X 9570   1.314   2.917   7.406 -1.1174 -0.4722  2.4014
   96SAPS   H6Y 9571   1.285   3.082   7.450 -0.9062 -0.9703  1.6712
   96SAPS   C37 9572   1.426   2.983   7.581  0.4615 -0.1919  0.2685
   96SAPS   H7X 9573   1.489   3.072   7.603 -0.5369  0.0780  2.3210
   96SAPS   H7Y 9574   1.503   2.904   7.567 -0.7341 -1.4507  0.5754
   96SAPS   C38 9575   1.334   2.940   7.694  0.2694  0.6007 -0.7023
   96SAPS   H8X 9576   1.303   2.835   7.675 -0.8014  0.8865 -0.5395
   96SAPS   H8Y 9577   1.241   3.000   7.695 -1.7628 -2.3014  1.0238
   96SAPS   C39 9578   1.408   2.953   7.821 -0.2799  0.5742 -0.7899
   96SAPS   H9X 9579   1.452   3.054   7.833 -0.0629  0.2437  2.0410
   96SAPS   H9Y 9580   1.498   2.888   7.831 -1.1388 -0.4954  0.4265
   96SAPS  C310 9581   1.318   2.921   7.941  0.1848 -0.3578 -0.9323
   96SAPS  H10X 9582   1.262   2.826   7.927 -0.3841  0.0018 -1.1688
   96SAPS  H10Y 9583   1.241   3.001   7.937  0.1742 -0.2870  0.3009
   96SAPS  C311 9584   1.401   2.922   8.075  0.2255 -0.4486 -0.1490
   96SAPS  H11X 9585   1.436   3.026   8.096  0.6078 -0.7462  0.7008
   96SAPS  H11Y 9586   1.489   2.854   8.068  1.6050  0.8043  3.0469
   96SAPS  C312 9587   1.324   2.878   8.195  0.2151 -0.0481  0.5052
   96SAPS  H12X 9588   1.275   2.779   8.197 -1.0954  0.4325 -2.4039
   96SAPS  H12Y 9589   1.245   2.955   8.209 -0.5821 -0.9817  1.2421
   96SAPS  C313 9590   1.410   2.888   8.319  0.1503 -0.5009  0.5214
   96SAPS  H13X 9591   1.447   2.992   8.318  0.0978 -0.4608 -1.5811
   96SAPS  H13Y 9592   1.498   2.820   8.321 -0.4133 -1.2955 -0.4243
   96SAPS  C314 9593   1.330   2.847   8.439  0.9116  0.2860 -0.4119
   96SAPS  H14X 9594   1.267   2.761   8.408 -1.2853  1.2032  1.2204
   96SAPS  H14Y 9595   1.266   2.931   8.473 -1.2533 -0.9707 -1.1854
   96SAPS  C315 9596   1.411   2.811   8.563 -0.7136 -0.9300  0.3983
   96SAPS  H15X 9597   1.514   2.783   8.531 -0.6460  0.4713 -0.7206
   96SAPS  H15Y 9598   1.366   2.718   8.605  1.5779 -2.5806 -0.5583
   96SAPS  C316 9599   1.410   2.920   8.677 -0.5977  0.4825 -0.0301
   96SAPS  H16X 9600   1.463   2.879   8.766 -0.3551  1.3842  0.2513
   96SAPS  H16Y 9601   1.306   2.930   8.716  0.1150  2.4243  1.5787
   96SAPS  C317 9602   1.491   3.056   8.651  0.6047  0.7781 -0.3801
   96SAPS  H17X 9603   1.433   3.110   8.573 -2.3326 -1.0110  0.4044
   96SAPS  H17Y 9604   1.592   3.035   8.610  0.3527  0.1978 -0.7068
   96SAPS  C318 9605   1.501   3.138   8.775  0.4082  0.3921 -0.2684
   96SAPS  H18X 9606   1.558   3.232   8.761  0.0875  0.7237  0.5809
   96SAPS  H18Y 9607   1.556   3.090   8.858 -1.6434  0.2072  1.0638
   96SAPS  H18Z 9608   1.407   3.187   8.810  0.3423  1.8826 -2.3480
   97SAPS     N 9609   3.779   2.209   6.163  0.0721 -0.0233  0.1446
   97SAPS   HN1 9610   3.868   2.184   6.115 -0.3931 -0.1293 -0.6805
   97SAPS   HN2 9611   3.777   2.312   6.176 -1.4680  0.2371 -1.7239
   97SAPS   HN3 9612   3.778   2.160   6.254  2.0577 -0.3688  0.0385
   97SAPS   C12 9613   3.657   2.154   6.095  0.1031  0.3956 -0.5763
   97SAPS  H12A 9614   3.644   2.213   6.005  2.1213 -0.4910 -1.5250
   97SAPS   C13 9615   3.691   2.013   6.040  0.0180 -0.3300 -0.2395
   97SAPS  O13A 9616   3.791   1.951   6.072  0.0915  0.3659 -0.0311
   97SAPS  O13B 9617   3.599   1.973   5.962 -0.3348  0.1558 -0.3515
   97SAPS   C11 9618   3.543   2.153   6.199 -0.2066 -0.2504 -0.6677
   97SAPS  H11A 9619   3.464   2.119   6.129  0.2936 -0.8968 -0.9181
   97SAPS  H11B 9620   3.504   2.250   6.239 -2.7820 -0.7921 -1.6382
   97SAPS     P 9621   3.454   2.037   6.420 -0.1068 -0.1502  0.0249
   97SAPS   O13 9622   3.321   2.012   6.364 -0.5069 -0.3837 -0.4198
   97SAPS   O14 9623   3.505   1.932   6.509 -0.5041  0.2206 -0.1565
   97SAPS   O12 9624   3.561   2.057   6.302  0.2648 -0.2555  0.5921
   97SAPS   O11 9625   3.449   2.177   6.494  0.4998 -0.6388 -0.5431
   97SAPS    C1 9626   3.549   2.227   6.572 -0.0595  0.4899  0.3215
   97SAPS    HA 9627   3.649   2.219   6.524  0.2059 -0.3808  0.9971
   97SAPS    HB 9628   3.538   2.335   6.594  1.8817  1.3828 -2.5221
   97SAPS    C2 9629   3.565   2.155   6.715  0.1558 -0.1455  0.0646
   97SAPS    HS 9630   3.552   2.045   6.711 -2.0160  0.0357  0.4918
   97SAPS   O21 9631   3.466   2.216   6.799  0.1709  0.1986 -0.4774
   97SAPS   C21 9632   3.386   2.138   6.874  0.2934 -0.7422 -0.1801
   97SAPS   O22 9633   3.389   2.022   6.881 -0.1692  0.1397 -0.1043
   97SAPS   C22 9634   3.292   2.229   6.960  0.5643 -0.4357 -0.9243
   97SAPS   H2R 9635   3.258   2.314   6.896  1.8783  1.5045  0.8094
   97SAPS   H2S 9636   3.211   2.157   6.985  0.4863 -1.1109 -2.9679
   97SAPS    C3 9637   3.709   2.183   6.781 -0.1966 -0.3951  0.5780
   97SAPS    HX 9638   3.722   2.293   6.793 -3.4256  0.0354  1.0179
   97SAPS    HY 9639   3.795   2.157   6.715  0.5622  1.0894  0.9521
   97SAPS   O31 9640   3.721   2.126   6.911 -0.6116  0.2970  0.1225
   97SAPS   C31 9641   3.748   1.991   6.912 -0.3134  0.5624  0.2525
   97SAPS   O32 9642   3.759   1.923   6.808 -0.1241 -0.2160  0.1947
   97SAPS   C32 9643   3.751   1.923   7.049  0.0857  0.5610  0.1838
   97SAPS   H2X 9644   3.702   1.994   7.119  2.1224  0.9745  1.2677
   97SAPS   H2Y 9645   3.857   1.906   7.076  0.9990  2.2814 -1.9909
   97SAPS   C23 9646   3.357   2.263   7.097 -0.2194  0.2975 -0.2035
   97SAPS   H3R 9647   3.438   2.339   7.093 -0.1160  0.2052  0.1188
   97SAPS   H3S 9648   3.411   2.174   7.135  0.2702  1.3771  1.7605
   97SAPS   C24 9649   3.258   2.320   7.210 -0.4581  0.1847 -0.2832
   97SAPS   H4R 9650   3.321   2.327   7.301  0.7042 -0.8763 -0.9786
   97SAPS   H4S 9651   3.170   2.259   7.238 -0.6731  0.3300 -0.6461
   97SAPS   C25 9652   3.205   2.450   7.172 -0.2297 -0.7492  0.5476
   97SAPS   H5R 9653   3.107   2.456   7.122  0.6314 -0.6810 -1.2138
   97SAPS   C26 9654   3.277   2.565   7.195  0.2582  0.3270 -0.9088
   97SAPS   H6R 9655   3.233   2.665   7.180 -1.2946 -0.0195  0.9102
   97SAPS   C27 9656   3.409   2.576   7.265  0.7194 -0.3003 -0.1371
   97SAPS   H7R 9657   3.472   2.491   7.235 -0.8371 -0.8014 -2.1854
   97SAPS   H7S 9658   3.394   2.547   7.371 -0.0351  3.0077  0.7998
   97SAPS   C28 9659   3.480   2.714   7.267 -1.0046 -0.4280 -0.4117
   97SAPS   H8R 9660   3.560   2.713   7.190  0.7715 -3.3069  1.2903
   97SAPS   C29 9661   3.455   2.822   7.347 -0.1120  0.2471 -0.2091
   97SAPS   H9R 9662   3.517   2.913   7.337  1.4754 -0.6237  1.1176
   97SAPS  C210 9663   3.345   2.829   7.450  0.4823 -0.0145  0.2751
   97SAPS  H10R 9664   3.284   2.736   7.448 -0.7996  0.7594  1.6957
   97SAPS  H10S 9665   3.272   2.911   7.438  0.3278  0.3311  2.9327
   97SAPS  C211 9666   3.418   2.848   7.581 -0.4287  0.4450 -0.1231
   97SAPS  H11R 9667   3.472   2.944   7.593 -0.1784  0.0847  2.0250
   97SAPS  C212 9668   3.443   2.756   7.678  0.3168  0.1920 -0.3029
   97SAPS  H12R 9669   3.501   2.789   7.765  0.2032  0.9701 -0.5091
   97SAPS  C213 9670   3.397   2.613   7.682  0.7563 -0.0717 -0.3545
   97SAPS  H13R 9671   3.474   2.533   7.678  0.8968  0.0586 -0.2905
   97SAPS  H13S 9672   3.341   2.597   7.587  0.4352 -1.5055  0.0475
   97SAPS  C214 9673   3.306   2.603   7.798  0.4377 -0.7351 -0.3187
   97SAPS  H14R 9674   3.336   2.666   7.883 -0.8946 -1.4376  0.7192
   97SAPS  C215 9675   3.214   2.508   7.827 -0.1927  0.7105  0.4201
   97SAPS  H15R 9676   3.175   2.520   7.929  1.1254  0.9868  0.9038
   97SAPS  C216 9677   3.179   2.383   7.750 -0.1804  0.7465 -0.5236
   97SAPS  H16R 9678   3.179   2.394   7.639  0.0983 -1.5074 -0.7770
   97SAPS  H16S 9679   3.078   2.342   7.770  0.7982 -1.1046  0.8421
   97SAPS  C217 9680   3.280   2.280   7.801  0.5074  0.5613  0.3466
   97SAPS  H17R 9681   3.385   2.309   7.779  1.0212  0.1523  2.1185
   97SAPS  H17S 9682   3.264   2.185   7.744 -0.9487 -0.1861  1.9018
   97SAPS  C218 9683   3.265   2.232   7.943 -0.3519 -0.0777 -0.2267
   97SAPS  H18R 9684   3.160   2.205   7.967  0.0253 -0.9355  0.4990
   97SAPS  H18S 9685   3.296   2.314   8.011  0.8010  0.6346 -1.5679
   97SAPS  C219 9686   3.360   2.103   7.973 -0.0607 -0.2262  0.9085
   97SAPS  H19R 9687   3.459   2.150   7.958  0.2387 -0.5394  1.8192
   97SAPS  H19S 9688   3.338   2.020   7.902 -1.2152  1.3572 -0.6620
   97SAPS  C220 9689   3.341   2.047   8.114  0.4848  0.1139  0.4754
   97SAPS  H20R 9690   3.244   1.995   8.130  0.8913 -0.2627  1.8791
   97SAPS  H20S 9691   3.351   2.128   8.190  1.5855 -1.0719  1.6465
   97SAPS  H20T 9692   3.419   1.971   8.135 -0.3782 -0.9914 -0.1862
   97SAPS   C33 9693   3.679   1.787   7.037 -0.6231  0.0899 -0.0776
   97SAPS   H3X 9694   3.737   1.723   6.967 -3.6313 -1.4846 -1.3578
   97SAPS   H3Y 9695   3.573   1.789   7.001 -0.6458  1.1058  0.0320
   97SAPS   C34 9696   3.666   1.706   7.170  0.0424 -1.0020  0.5705
   97SAPS   H4X 9697   3.765   1.669   7.203  0.7492 -1.3674 -1.7793
   97SAPS   H4Y 9698   3.607   1.611   7.162  0.4903 -1.1893 -0.7451
   97SAPS   C35 9699   3.587   1.782   7.277  0.1476 -0.5078 -0.1366
   97SAPS   H5X 9700   3.477   1.792   7.263  0.1504  1.0750  0.6954
   97SAPS   H5Y 9701   3.615   1.889   7.293 -0.5469 -0.2208 -0.7742
   97SAPS   C36 9702   3.605   1.707   7.415  0.9164  0.6060  0.0048
   97SAPS   H6X 9703   3.709   1.668   7.421 -0.0505 -2.9027 -2.6251
   97SAPS   H6Y 9704   3.538   1.619   7.417 -0.2348  1.4352 -0.7863
   97SAPS   C37 9705   3.585   1.809   7.530  0.7830 -0.0549  0.0100
   97SAPS   H7X 9706   3.480   1.845   7.534  0.9082  0.2121  2.1631
   97SAPS   H7Y 9707   3.656   1.893   7.516  1.2000 -0.1807  1.2298
   97SAPS   C38 9708   3.615   1.753   7.666 -0.1526 -0.1814 -0.2587
   97SAPS   H8X 9709   3.718   1.714   7.679 -0.2280 -0.4652 -0.5054
   97SAPS   H8Y 9710   3.557   1.660   7.683 -0.5325  0.1581  0.3242
   97SAPS   C39 9711   3.590   1.853   7.779  0.2045  0.2729 -0.5709
   97SAPS   H9X 9712   3.479   1.859   7.791  0.1555 -0.9461 -0.2602
   97SAPS   H9Y 9713   3.634   1.953   7.759  0.1622  0.1803 -1.1534
   97SAPS  C310 9714   3.635   1.798   7.919 -0.3342  0.0243  0.1876
   97SAPS  H10X 9715   3.615   1.885   7.985  0.3391  2.2136 -2.2937
   97SAPS  H10Y 9716   3.744   1.783   7.912  0.1185  2.4799  0.8402
   97SAPS  C311 9717   3.568   1.660   7.958 -0.2053 -1.6816  0.4361
   97SAPS  H11X 9718   3.584   1.576   7.887 -0.9368 -0.3332 -1.4023
   97SAPS  H11Y 9719   3.461   1.689   7.963  0.3491  1.0863 -1.2531
   97SAPS  C312 9720   3.633   1.616   8.094  0.0056 -0.4348 -0.2944
   97SAPS  H12X 9721   3.601   1.693   8.167 -2.8338 -0.2997 -1.5193
   97SAPS  H12Y 9722   3.741   1.642   8.093 -0.3832  1.3732  1.1394
   97SAPS  C313 9723   3.597   1.481   8.137  0.0875  0.0601  0.6138
   97SAPS  H13X 9724   3.634   1.411   8.059 -0.4180  1.1589 -0.6700
   97SAPS  H13Y 9725   3.486   1.473   8.135  0.1203 -0.3711  0.4845
   97SAPS  C314 9726   3.633   1.426   8.277  0.2370  0.5447  0.5508
   97SAPS  H14X 9727   3.743   1.423   8.291  0.3507  1.2968 -0.0764
   97SAPS  H14Y 9728   3.590   1.324   8.286  0.1683  0.0284 -3.6854
   97SAPS  C315 9729   3.559   1.512   8.384  0.1008 -0.5335  0.6945
   97SAPS  H15X 9730   3.454   1.499   8.353  0.2684 -0.2575  0.0038
   97SAPS  H15Y 9731   3.569   1.622   8.369  0.4805 -0.7680 -0.9990
   97SAPS  C316 9732   3.572   1.465   8.527 -0.5855 -0.3620 -0.0557
   97SAPS  H16X 9733   3.532   1.362   8.542 -1.0264 -0.3156 -0.8920
   97SAPS  H16Y 9734   3.531   1.544   8.593 -1.1780 -3.4751  3.6690
   97SAPS  C317 9735   3.717   1.442   8.570  0.1465 -1.1885 -0.7294
   97SAPS  H17X 9736   3.727   1.473   8.677  0.9863 -0.8287 -0.9039
   97SAPS  H17Y 9737   3.779   1.520   8.522  0.0877 -0.9476 -0.4205
   97SAPS  C318 9738   3.776   1.307   8.555 -0.3018  0.3964 -0.9227
   97SAPS  H18X 9739   3.886   1.299   8.566 -0.3824  0.5437  0.0699
   97SAPS  H18Y 9740   3.760   1.255   8.458  0.5755 -2.5928  0.4227
   97SAPS  H18Z 9741   3.748   1.249   8.645  2.6579  3.4785  2.2952
   98SAPS     N 9742   1.276   1.151   6.507  0.8919  0.0959  0.8099
   98SAPS   HN1 9743   1.322   1.074   6.560 -1.5148 -2.4344 -0.4910
   98SAPS   HN2 9744   1.248   1.228   6.570 -0.5815  0.2566  0.0021
   98SAPS   HN3 9745   1.196   1.102   6.461  2.7394 -1.2272 -1.2413
   98SAPS   C12 9746   1.356   1.189   6.379 -0.0508 -0.5221  0.2062
   98SAPS  H12A 9747   1.456   1.211   6.413 -0.3340 -1.5232  1.7483
   98SAPS   C13 9748   1.363   1.078   6.275 -0.3248  0.4342 -1.1118
   98SAPS  O13A 9749   1.307   0.969   6.306 -0.2082  0.3223  0.3726
   98SAPS  O13B 9750   1.429   1.083   6.169  0.4302  0.2937  0.2590
   98SAPS   C11 9751   1.310   1.317   6.305 -0.0728  0.7812  0.4991
   98SAPS  H11A 9752   1.203   1.306   6.277 -0.0070  2.4429 -0.5450
   98SAPS  H11B 9753   1.362   1.335   6.209 -2.1428  1.2651 -0.6016
   98SAPS     P 9754   1.274   1.563   6.344 -0.0360  0.4551  0.5024
   98SAPS   O13 9755   1.379   1.609   6.245  0.1669 -0.5397 -0.3919
   98SAPS   O14 9756   1.133   1.560   6.289 -0.1532  0.5953  0.0327
   98SAPS   O12 9757   1.320   1.423   6.402 -0.5941 -0.0652  0.1752
   98SAPS   O11 9758   1.279   1.662   6.477  0.3012 -0.3141  0.4971
   98SAPS    C1 9759   1.242   1.601   6.596  0.3890  0.6649 -0.1995
   98SAPS    HA 9760   1.175   1.671   6.650 -1.3344  0.2038 -1.6770
   98SAPS    HB 9761   1.190   1.503   6.589  1.0273  0.2736  0.3401
   98SAPS    C2 9762   1.367   1.583   6.685  0.0487 -0.4112  0.3280
   98SAPS    HS 9763   1.434   1.503   6.646  0.6803  0.0199  0.5040
   98SAPS   O21 9764   1.328   1.546   6.812 -0.2775  0.5432 -0.7737
   98SAPS   C21 9765   1.277   1.432   6.839 -0.0350  0.5437  0.4155
   98SAPS   O22 9766   1.256   1.342   6.759  0.0665  0.2975  0.2585
   98SAPS   C22 9767   1.253   1.419   6.991 -0.6064 -0.0060 -0.0791
   98SAPS   H2R 9768   1.168   1.480   7.031 -2.0855 -0.8007 -1.8560
   98SAPS   H2S 9769   1.214   1.316   7.004 -3.0018  0.4725 -2.5148
   98SAPS    C3 9770   1.446   1.718   6.684 -0.1382  0.4684  0.0104
   98SAPS    HX 9771   1.467   1.720   6.575  1.1866 -0.2031  0.2260
   98SAPS    HY 9772   1.542   1.699   6.736  0.2615 -1.3157 -1.2732
   98SAPS   O31 9773   1.369   1.833   6.727 -0.0422 -0.4229  0.2597
   98SAPS   C31 9774   1.387   1.866   6.853  0.3373 -0.0401  0.3681
   98SAPS   O32 9775   1.451   1.807   6.937  0.4306 -0.5442 -0.1002
   98SAPS   C32 9776   1.325   2.001   6.874 -0.6447  0.1670  0.1369
   98SAPS   H2X 9777   1.225   2.004   6.827 -0.2264 -0.6771 -0.8441
   98SAPS   H2Y 9778   1.387   2.073   6.816  0.5954 -0.0535  1.1305
   98SAPS   C23 9779   1.378   1.463   7.084  0.1667  0.2354 -0.5268
   98SAPS   H3R 9780   1.423   1.561   7.054  2.9481 -0.9518 -0.5638
   98SAPS   H3S 9781   1.458   1.385   7.083  1.0017  1.0482  0.4459
   98SAPS   C24 9782   1.335   1.480   7.230  0.1801 -0.4973  0.0753
   98SAPS   H4R 9783   1.275   1.573   7.235 -3.7351 -2.7560 -0.8249
   98SAPS   H4S 9784   1.430   1.505   7.283  0.3470 -1.7607  0.3921
   98SAPS   C25 9785   1.259   1.364   7.294 -0.1049 -0.5403 -0.4403
   98SAPS   H5R 9786   1.297   1.273   7.245  0.4147  0.5451 -2.1817
   98SAPS   C26 9787   1.177   1.357   7.395 -0.1681  0.1078  0.1552
   98SAPS   H6R 9788   1.130   1.260   7.420 -1.4053  0.0689 -2.0291
   98SAPS   C27 9789   1.135   1.462   7.491  1.4002  0.2947  0.6480
   98SAPS   H7R 9790   1.027   1.446   7.515  0.8766 -0.3909 -1.8546
   98SAPS   H7S 9791   1.122   1.561   7.442 -0.7137  0.3838  1.2696
   98SAPS   C28 9792   1.225   1.471   7.611 -0.3818  0.8069  0.3854
   98SAPS   H8R 9793   1.324   1.518   7.597 -0.2940  0.6255  0.3985
   98SAPS   C29 9794   1.196   1.446   7.739 -0.1118  1.1205  0.6043
   98SAPS   H9R 9795   1.280   1.453   7.809  1.6674  1.9820 -1.4828
   98SAPS  C210 9796   1.066   1.392   7.793 -0.6281 -0.0814 -0.4174
   98SAPS  H10R 9797   0.992   1.395   7.711 -0.3269 -0.0126 -0.6896
   98SAPS  H10S 9798   1.012   1.458   7.865 -0.9427 -0.7164 -0.0581
   98SAPS  C211 9799   1.080   1.265   7.877 -0.3424  0.1562 -0.1969
   98SAPS  H11R 9800   1.034   1.176   7.833 -1.0451 -0.0046  0.8163
   98SAPS  C212 9801   1.131   1.249   8.002 -0.6828 -0.5900  0.2982
   98SAPS  H12R 9802   1.155   1.149   8.042 -0.4258  0.1289  1.9928
   98SAPS  C213 9803   1.196   1.355   8.084  0.2285 -0.8825 -0.0968
   98SAPS  H13R 9804   1.191   1.314   8.187 -0.0151 -0.0547  0.2313
   98SAPS  H13S 9805   1.130   1.444   8.083  0.4655 -0.6795 -2.3190
   98SAPS  C214 9806   1.337   1.387   8.049 -0.2183  0.4876 -0.2062
   98SAPS  H14R 9807   1.377   1.337   7.959 -0.9478 -2.6416  1.0495
   98SAPS  C215 9808   1.428   1.454   8.126  0.3946 -0.1528 -0.3786
   98SAPS  H15R 9809   1.531   1.471   8.090  0.0229  0.1031 -1.3368
   98SAPS  C216 9810   1.384   1.511   8.257  0.0586 -0.3952  0.4789
   98SAPS  H16R 9811   1.278   1.538   8.277  0.7863  2.0215  1.4422
   98SAPS  H16S 9812   1.434   1.608   8.277  1.0832 -0.9463  0.7050
   98SAPS  C217 9813   1.427   1.425   8.380  0.3304 -0.2938  0.2939
   98SAPS  H17R 9814   1.537   1.414   8.382  0.1802 -2.3107 -0.5496
   98SAPS  H17S 9815   1.386   1.322   8.374 -1.7945  0.5213 -0.1420
   98SAPS  C218 9816   1.372   1.486   8.515  0.1957 -0.0950 -0.7026
   98SAPS  H18R 9817   1.264   1.498   8.493 -0.9187 -3.8430  1.7612
   98SAPS  H18S 9818   1.401   1.590   8.543 -1.4273 -0.3659  2.4333
   98SAPS  C219 9819   1.387   1.394   8.643  0.2193  0.5393 -0.1712
   98SAPS  H19R 9820   1.491   1.355   8.650  0.9210  1.5767 -3.2546
   98SAPS  H19S 9821   1.320   1.308   8.619  0.4081  0.3974 -0.1942
   98SAPS  C220 9822   1.345   1.450   8.777 -0.1257  0.1669  0.4604
   98SAPS  H20R 9823   1.329   1.371   8.854  0.7768  0.1934  0.6936
   98SAPS  H20S 9824   1.250   1.504   8.757 -0.2617 -0.9655 -2.4766
   98SAPS  H20T 9825   1.432   1.509   8.814  0.4879  0.8348 -1.9072
   98SAPS   C33 9826   1.318   2.043   7.023  0.2608  0.1802  0.6571
   98SAPS   H3X 9827   1.420   2.067   7.060  1.0743  0.7930 -1.7568
   98SAPS   H3Y 9828   1.263   1.968   7.083 -1.7424  2.0160  1.2458
   98SAPS   C34 9829   1.249   2.183   7.035 -0.6835  0.0996 -0.6315
   98SAPS   H4X 9830   1.144   2.195   7.002 -0.8863  2.3862  0.6097
   98SAPS   H4Y 9831   1.309   2.252   6.971  1.0625 -1.3482 -0.6343
   98SAPS   C35 9832   1.254   2.241   7.174  0.0201  0.0104 -0.7117
   98SAPS   H5X 9833   1.228   2.349   7.168 -1.1241  0.0163  2.3133
   98SAPS   H5Y 9834   1.356   2.230   7.218  1.1932  0.3642 -3.2056
   98SAPS   C36 9835   1.154   2.179   7.276 -0.2831 -0.5097  0.6460
   98SAPS   H6X 9836   1.200   2.081   7.300 -1.1063 -0.7929  1.0910
   98SAPS   H6Y 9837   1.050   2.164   7.240  0.0339  1.6195 -1.4042
   98SAPS   C37 9838   1.147   2.262   7.413 -0.3333  0.8303  0.2365
   98SAPS   H7X 9839   1.114   2.367   7.397  0.2609  0.8587 -0.9381
   98SAPS   H7Y 9840   1.252   2.258   7.451  0.5390 -0.3018 -2.0592
   98SAPS   C38 9841   1.046   2.197   7.504  0.6510 -0.3662  0.3729
   98SAPS   H8X 9842   1.085   2.099   7.538 -0.3076 -0.4706  1.2174
   98SAPS   H8Y 9843   0.947   2.190   7.454  0.8983  1.6887 -0.4920
   98SAPS   C39 9844   1.016   2.276   7.638 -0.4641  0.1332 -0.2571
   98SAPS   H9X 9845   0.964   2.373   7.622 -1.5987 -0.2710  0.8536
   98SAPS   H9Y 9846   1.117   2.292   7.682 -0.6502  0.2483  0.1349
   98SAPS  C310 9847   0.928   2.185   7.723  0.7616 -1.3070 -0.4255
   98SAPS  H10X 9848   0.977   2.087   7.746 -1.3541 -1.7048  2.9824
   98SAPS  H10Y 9849   0.839   2.150   7.667 -0.6989 -0.5191  1.3390
   98SAPS  C311 9850   0.875   2.247   7.855 -1.0490  0.2059 -0.3694
   98SAPS  H11X 9851   0.814   2.335   7.822 -0.4799  0.9177  0.4215
   98SAPS  H11Y 9852   0.962   2.278   7.916 -1.5446 -0.4925  0.7227
   98SAPS  C312 9853   0.790   2.156   7.943 -0.0649  0.3071 -0.3961
   98SAPS  H12X 9854   0.838   2.058   7.962  0.2105  0.4215 -0.5029
   98SAPS  H12Y 9855   0.702   2.128   7.881  0.1492 -1.5839  0.1101
   98SAPS  C313 9856   0.750   2.225   8.069  0.0115  0.1175  0.0366
   98SAPS  H13X 9857   0.837   2.249   8.133  0.5550  0.3462 -0.7740
   98SAPS  H13Y 9858   0.697   2.145   8.125 -2.6610  1.2659 -0.6757
   98SAPS  C314 9859   0.659   2.346   8.048 -0.2892  0.2061  0.1303
   98SAPS  H14X 9860   0.558   2.305   8.022  0.3886 -0.7016 -1.1871
   98SAPS  H14Y 9861   0.689   2.410   7.963 -2.2656  0.3196 -0.5439
   98SAPS  C315 9862   0.627   2.438   8.171  0.0814 -0.5729  0.0169
   98SAPS  H15X 9863   0.544   2.504   8.138 -0.8096 -0.3164  2.5524
   98SAPS  H15Y 9864   0.720   2.499   8.181  0.1179 -0.9235  2.2753
   98SAPS  C316 9865   0.595   2.380   8.310  0.2571  0.0454 -0.4555
   98SAPS  H16X 9866   0.493   2.335   8.315 -0.3669  1.4521 -0.0346
   98SAPS  H16Y 9867   0.586   2.474   8.368  1.5199 -0.5114  0.6754
   98SAPS  C317 9868   0.712   2.297   8.375  0.2396  0.4735 -0.9719
   98SAPS  H17X 9869   0.802   2.362   8.385 -0.7091  2.0225 -2.1148
   98SAPS  H17Y 9870   0.737   2.203   8.321 -0.3042 -0.2103 -0.0768
   98SAPS  C318 9871   0.673   2.261   8.519 -0.0394  0.1298 -0.4867
   98SAPS  H18X 9872   0.672   2.357   8.574  3.0676 -1.3622  2.5626
   98SAPS  H18Y 9873   0.757   2.207   8.567  0.7619 -0.1173 -2.0966
   98SAPS  H18Z 9874   0.572   2.215   8.530  0.3309 -0.7957 -0.8080
   99SAPS     N 9875   6.567   6.694   6.604  0.2876 -0.1000 -0.3814
   99SAPS   HN1 9876   6.477   6.741   6.626  0.6846 -0.4572  2.2904
   99SAPS   HN2 9877   6.562   6.592   6.622  1.3669 -0.2294 -0.7422
   99SAPS   HN3 9878   6.632   6.726   6.678  0.0724  0.3672 -0.3861
   99SAPS   C12 9879   6.613   6.725   6.464 -0.7727 -0.0945 -0.5686
   99SAPS  H12A 9880   6.522   6.738   6.407 -1.7330 -0.4461  0.8424
   99SAPS   C13 9881   6.700   6.851   6.442  0.1277 -0.3816 -0.1222
   99SAPS  O13A 9882   6.727   6.914   6.547  0.1273 -0.6393  0.0701
   99SAPS  O13B 9883   6.715   6.900   6.327  0.5249 -0.3990 -0.0214
   99SAPS   C11 9884   6.690   6.605   6.411 -0.0254  0.5127  0.5005
   99SAPS  H11A 9885   6.704   6.629   6.303  2.3127 -0.6036  0.4943
   99SAPS  H11B 9886   6.629   6.514   6.428  0.5402  0.4410  2.2995
   99SAPS     P 9887   6.927   6.484   6.399  0.3321  0.0159  0.1689
   99SAPS   O13 9888   6.887   6.349   6.438 -0.0266  0.6536 -0.3996
   99SAPS   O14 9889   6.958   6.515   6.259 -0.2863  0.5290 -0.5283
   99SAPS   O12 9890   6.827   6.595   6.450  0.0344 -0.9126 -0.1222
   99SAPS   O11 9891   7.056   6.525   6.479  0.2130  0.3621  0.0239
   99SAPS    C1 9892   7.104   6.657   6.465 -0.5821 -0.1224 -0.0476
   99SAPS    HA 9893   7.209   6.662   6.427 -0.4876 -0.7019  0.1230
   99SAPS    HB 9894   7.040   6.725   6.404  0.6898  0.4567 -0.7831
   99SAPS    C2 9895   7.108   6.733   6.603  0.9077 -0.4090 -0.2686
   99SAPS    HS 9896   7.126   6.843   6.593 -2.5449  0.6965  3.2231
   99SAPS   O21 9897   7.213   6.676   6.679 -0.0610  0.9863  0.5102
   99SAPS   C21 9898   7.330   6.728   6.668  0.1517  0.2014  0.2653
   99SAPS   O22 9899   7.361   6.832   6.610  0.2510  0.0565  0.1317
   99SAPS   C22 9900   7.432   6.643   6.752  0.2165 -0.3793  0.1924
   99SAPS   H2R 9901   7.381   6.548   6.779 -0.2895 -0.9405 -2.4301
   99SAPS   H2S 9902   7.519   6.618   6.688 -0.2699 -0.5946 -0.3927
   99SAPS    C3 9903   6.964   6.731   6.665  0.3179 -0.9444 -0.1783
   99SAPS    HX 9904   6.930   6.626   6.673 -1.3998 -0.3570  1.0280
   99SAPS    HY 9905   6.897   6.782   6.592  1.0591  0.1488 -0.1195
   99SAPS   O31 9906   6.957   6.801   6.791  0.4936  0.2370 -0.0957
   99SAPS   C31 9907   6.843   6.806   6.853  0.1237  0.8032 -0.1116
   99SAPS   O32 9908   6.744   6.740   6.819  0.1037  0.9718  0.2593
   99SAPS   C32 9909   6.843   6.917   6.957  0.6039 -0.0653  0.0689
   99SAPS   H2X 9910   6.753   6.983   6.951  0.3210 -0.4835 -0.3093
   99SAPS   H2Y 9911   6.940   6.972   6.951 -0.2003  1.7902  2.4305
   99SAPS   C23 9912   7.490   6.730   6.871 -0.0244  0.2081  0.0806
   99SAPS   H3R 9913   7.530   6.827   6.834 -1.5966  2.1068  3.0706
   99SAPS   H3S 9914   7.578   6.671   6.906 -1.2903 -1.8863 -0.0771
   99SAPS   C24 9915   7.391   6.753   6.982 -0.4807  0.3328  0.5093
   99SAPS   H4R 9916   7.460   6.790   7.061  0.8416  1.3707 -1.0678
   99SAPS   H4S 9917   7.363   6.649   7.008  0.5028 -0.3836 -1.1354
   99SAPS   C25 9918   7.268   6.833   6.955 -0.1227 -0.5244  0.1743
   99SAPS   H5R 9919   7.173   6.789   6.921 -1.0094 -0.0298  1.8994
   99SAPS   C26 9920   7.264   6.965   6.972  0.2579  0.3206  0.1897
   99SAPS   H6R 9921   7.164   7.009   6.959  0.0839  0.3929  1.5757
   99SAPS   C27 9922   7.369   7.049   7.026 -0.0369 -0.0347  0.0239
   99SAPS   H7R 9923   7.459   7.047   6.961  0.3226  1.0906  0.4672
   99SAPS   H7S 9924   7.404   7.002   7.120  1.9055  1.3153  0.0241
   99SAPS   C28 9925   7.338   7.193   7.054  0.8459  1.1185  0.9106
   99SAPS   H8R 9926   7.327   7.250   6.960  1.1851  0.4051  0.4339
   99SAPS   C29 9927   7.330   7.255   7.170  0.4148 -0.4023 -0.4699
   99SAPS   H9R 9928   7.293   7.358   7.179 -0.5141 -0.8568  1.5830
   99SAPS  C210 9929   7.352   7.194   7.307 -0.4169  0.1454 -0.3614
   99SAPS  H10R 9930   7.374   7.276   7.379 -0.0998  1.5086 -1.9439
   99SAPS  H10S 9931   7.451   7.144   7.296 -1.3878 -1.2937 -3.9791
   99SAPS  C211 9932   7.247   7.095   7.351 -0.1866 -0.3446  0.1021
   99SAPS  H11R 9933   7.197   7.051   7.263 -0.5689  1.2868 -0.5395
   99SAPS  C212 9934   7.214   7.061   7.477  0.1534  0.0850  0.4579
   99SAPS  H12R 9935   7.150   6.974   7.498  2.1318 -1.9121 -1.3025
   99SAPS  C213 9936   7.278   7.115   7.605  0.7597 -0.5476  0.3575
   99SAPS  H13R 9937   7.375   7.160   7.578 -0.4314  0.2721 -3.1451
   99SAPS  H13S 9938   7.289   7.027   7.672  0.9295 -1.7887 -1.2323
   99SAPS  C214 9939   7.189   7.219   7.667  0.2346  0.7632 -0.4397
   99SAPS  H14R 9940   7.146   7.294   7.599 -2.2037  0.4203  0.6159
   99SAPS  C215 9941   7.144   7.224   7.797  0.6016  0.0205  1.5844
   99SAPS  H15R 9942   7.072   7.300   7.830 -1.6105 -1.2358 -0.0805
   99SAPS  C216 9943   7.164   7.120   7.899 -0.0726  0.1657 -0.6644
   99SAPS  H16R 9944   7.234   7.037   7.873 -0.2348  0.0174 -0.6250
   99SAPS  H16S 9945   7.074   7.063   7.930  1.1151 -0.7946  1.2104
   99SAPS  C217 9946   7.188   7.187   8.041 -0.3163  0.1078  0.2967
   99SAPS  H17R 9947   7.097   7.242   8.075 -0.0761 -0.7075  2.3858
   99SAPS  H17S 9948   7.272   7.259   8.037 -0.3917  0.2275  0.8220
   99SAPS  C218 9949   7.213   7.086   8.150 -0.3952 -0.1363  0.1452
   99SAPS  H18R 9950   7.292   7.017   8.112  0.2146  1.4654 -1.7047
   99SAPS  H18S 9951   7.119   7.028   8.162 -0.5864 -0.1831 -1.3942
   99SAPS  C219 9952   7.266   7.138   8.284  0.4282 -0.0370  1.0596
   99SAPS  H19R 9953   7.293   7.055   8.354  2.0705 -0.6729 -0.2545
   99SAPS  H19S 9954   7.193   7.209   8.330 -1.5055 -0.7619 -0.7554
   99SAPS  C220 9955   7.398   7.215   8.279 -0.2750  0.4039  0.5093
   99SAPS  H20R 9956   7.470   7.152   8.223 -1.3652 -0.2851 -0.1426
   99SAPS  H20S 9957   7.418   7.233   8.387 -3.0241  3.1129  0.7318
   99SAPS  H20T 9958   7.389   7.312   8.225 -0.3579 -0.8502 -1.8230
   99SAPS   C33 9959   6.825   6.865   7.103  0.1656  0.2405 -0.2873
   99SAPS   H3X 9960   6.905   6.794   7.131  0.1602 -1.1794 -3.4791
   99SAPS   H3Y 9961   6.728   6.811   7.104  0.7094 -0.7520  0.0614
   99SAPS   C34 9962   6.829   6.983   7.195 -0.7124  0.4768 -0.6640
   99SAPS   H4X 9963   6.734   7.037   7.175 -1.4411 -1.4354 -2.9176
   99SAPS   H4Y 9964   6.918   7.048   7.179 -0.2081 -0.3872 -1.5122
   99SAPS   C35 9965   6.832   6.939   7.344 -0.0914  0.7210  0.7836
   99SAPS   H5X 9966   6.926   6.881   7.358  0.8766  1.6636 -1.2746
   99SAPS   H5Y 9967   6.748   6.868   7.357  0.8159 -0.0613  2.7994
   99SAPS   C36 9968   6.827   7.049   7.449 -0.3630 -0.2762  0.3563
   99SAPS   H6X 9969   6.745   7.122   7.432 -0.1090  0.3184  1.5690
   99SAPS   H6Y 9970   6.927   7.096   7.452  0.4060 -1.8917  3.2329
   99SAPS   C37 9971   6.807   7.007   7.594  0.1641 -0.5402 -0.4616
   99SAPS   H7X 9972   6.895   6.942   7.614 -0.4388 -1.2249  0.0677
   99SAPS   H7Y 9973   6.722   6.936   7.599  0.7629 -1.2175  1.5498
   99SAPS   C38 9974   6.804   7.131   7.685  0.6901  0.0840 -0.5705
   99SAPS   H8X 9975   6.724   7.202   7.654  0.1082 -0.3596 -0.1085
   99SAPS   H8Y 9976   6.907   7.171   7.673  1.8037 -2.2900  0.3384
   99SAPS   C39 9977   6.774   7.082   7.832 -0.5406 -0.0563  0.1365
   99SAPS   H9X 9978   6.868   7.033   7.865 -0.6740 -0.6133 -0.3080
   99SAPS   H9Y 9979   6.688   7.011   7.835 -0.1567 -0.4960  0.9428
   99SAPS  C310 9980   6.750   7.192   7.937 -0.0166  0.1697  0.1405
   99SAPS  H10X 9981   6.649   7.233   7.913 -0.0839  0.7585  1.3970
   99SAPS  H10Y 9982   6.827   7.271   7.932 -0.5673  0.7102 -0.0262
   99SAPS  C311 9983   6.763   7.134   8.076 -0.4342  0.3748 -0.4556
   99SAPS  H11X 9984   6.753   7.224   8.140 -0.7664  0.9607 -1.3045
   99SAPS  H11Y 9985   6.864   7.098   8.104 -0.8643  0.9857  2.0820
   99SAPS  C312 9986   6.673   7.025   8.124 -0.6311 -0.0043  0.3428
   99SAPS  H12X 9987   6.694   6.930   8.070 -2.4303 -0.3598  0.1982
   99SAPS  H12Y 9988   6.569   7.055   8.097 -0.6743 -0.1389  0.3573
   99SAPS  C313 9989   6.683   7.000   8.273  0.5679 -0.1917  0.3284
   99SAPS  H13X 9990   6.668   7.098   8.323  1.1935 -0.4343  1.0157
   99SAPS  H13Y 9991   6.784   6.958   8.296  1.2603  2.2546  2.2241
   99SAPS  C314 9992   6.572   6.907   8.327 -0.3878  0.3529  0.4275
   99SAPS  H14X 9993   6.568   6.816   8.263 -0.0662 -0.4175  1.4725
   99SAPS  H14Y 9994   6.469   6.946   8.309 -0.3325 -0.0975 -0.9495
   99SAPS  C315 9995   6.606   6.863   8.472  0.2431 -0.2697 -0.1377
   99SAPS  H15X 9996   6.621   6.960   8.525  1.5805  1.0999 -2.8249
   99SAPS  H15Y 9997   6.698   6.801   8.479  1.0310  0.8391 -0.4069
   99SAPS  C316 9998   6.489   6.788   8.543  0.6226  0.1869  0.9216
   99SAPS  H16X 9999   6.388   6.831   8.526  0.2209 -0.2765  2.0458
   99SAPS  H16Y10000   6.520   6.805   8.648  0.7431  0.5465  0.8328
   99SAPS  C31710001   6.477   6.639   8.495  0.6817 -0.7970 -0.5360
   99SAPS  H17X10002   6.433   6.631   8.394 -0.5447 -1.4513  0.0418
   99SAPS  H17Y10003   6.400   6.604   8.567 -0.2168  1.1608 -0.4812
   99SAPS  C31810004   6.595   6.549   8.506 -0.8230  0.0256 -0.5706
   99SAPS  H18X10005   6.639   6.547   8.404 -3.0656  0.7137 -1.6067
   99SAPS  H18Y10006   6.572   6.444   8.533  2.8297 -0.8233 -0.3322
   99SAPS  H18Z10007   6.673   6.590   8.573 -1.2976  1.1883 -0.7024
  100SAPS     N10008   2.449   1.838   6.357  0.1645 -0.4123  0.4201
  100SAPS   HN110009   2.353   1.875   6.345  0.1186 -1.1623 -1.9912
  100SAPS   HN210010   2.465   1.808   6.455  1.4063 -1.3993 -0.0589
  100SAPS   HN310011   2.530   1.902   6.344  3.2359 -3.9759  0.5197
  100SAPS   C1210012   2.449   1.725   6.271 -0.0606  0.8140  0.4228
  100SAPS  H12A10013   2.379   1.650   6.306 -0.3154  1.1163  0.5611
  100SAPS   C1310014   2.422   1.752   6.118 -0.6741 -0.7440 -0.1164
  100SAPS  O13A10015   2.392   1.866   6.082 -0.6657  0.3683 -0.1516
  100SAPS  O13B10016   2.410   1.653   6.044 -0.1077 -0.2432 -0.5701
  100SAPS   C1110017   2.591   1.658   6.287  0.7171  0.3344  0.5998
  100SAPS  H11A10018   2.666   1.724   6.238  0.1407  0.7214  0.2206
  100SAPS  H11B10019   2.589   1.567   6.223 -1.3616 -0.7833  2.1221
  100SAPS     P10020   2.576   1.475   6.479 -0.1417 -0.2111  0.2650
  100SAPS   O1310021   2.434   1.474   6.512 -0.0502  0.1428 -1.2299
  100SAPS   O1410022   2.624   1.376   6.380  0.6485  0.1849  0.6446
  100SAPS   O1210023   2.612   1.621   6.423  0.1543  0.3945 -0.0931
  100SAPS   O1110024   2.660   1.464   6.612  0.3052 -0.1775  0.1297
  100SAPS    C110025   2.617   1.530   6.729 -0.4184  0.2017  0.0883
  100SAPS    HA10026   2.537   1.605   6.714 -1.9926 -1.1887  1.2341
  100SAPS    HB10027   2.585   1.455   6.804  0.1005 -1.2131 -1.0726
  100SAPS    C210028   2.744   1.596   6.794  0.0674 -0.3973  0.2715
  100SAPS    HS10029   2.802   1.635   6.708  1.5879 -2.2519  0.3711
  100SAPS   O2110030   2.823   1.493   6.845  0.2610  0.2574 -0.1019
  100SAPS   C2110031   2.954   1.508   6.818 -1.0740  1.0429 -0.2307
  100SAPS   O2210032   3.002   1.596   6.753  0.2983  0.3031  0.7557
  100SAPS   C2210033   3.035   1.386   6.850  0.7230 -0.0345 -0.5986
  100SAPS   H2R10034   2.993   1.331   6.937  0.2223 -1.2888 -1.5879
  100SAPS   H2S10035   3.019   1.330   6.755 -1.2628  0.4392 -0.5902
  100SAPS    C310036   2.711   1.713   6.888 -0.3079 -0.1832 -0.4962
  100SAPS    HX10037   2.614   1.692   6.938  0.2507 -1.2451  0.1620
  100SAPS    HY10038   2.686   1.796   6.819 -0.8164 -1.4070 -1.8560
  100SAPS   O3110039   2.822   1.737   6.982  0.7790 -0.1117  0.3375
  100SAPS   C3110040   2.885   1.845   6.968  0.0393  0.1672 -0.4347
  100SAPS   O3210041   2.863   1.924   6.873  0.2842  0.2445  0.5188
  100SAPS   C3210042   3.000   1.865   7.071  0.3690 -0.8454 -0.6758
  100SAPS   H2X10043   2.965   1.947   7.137 -2.0868 -1.7483 -0.7707
  100SAPS   H2Y10044   3.094   1.900   7.022  0.0623  3.2522  1.2237
  100SAPS   C2310045   3.183   1.422   6.888  0.6014  0.4827  0.5003
  100SAPS   H3R10046   3.184   1.526   6.926  3.2518  0.6941  0.0510
  100SAPS   H3S10047   3.254   1.410   6.804  0.0143  0.1955  0.0371
  100SAPS   C2410048   3.236   1.334   7.006 -0.0798  0.1972  0.4199
  100SAPS   H4R10049   3.241   1.229   6.973  0.8445  0.4586 -0.3162
  100SAPS   H4S10050   3.159   1.328   7.086  0.2416  2.4231  0.9680
  100SAPS   C2510051   3.367   1.387   7.060 -0.4338  0.3877  0.9818
  100SAPS   H5R10052   3.455   1.389   6.993 -2.5984 -1.9321 -2.2437
  100SAPS   C2610053   3.392   1.388   7.191 -0.1715 -0.7966  0.0515
  100SAPS   H6R10054   3.497   1.402   7.222 -0.1632 -0.7582  0.0053
  100SAPS   C2710055   3.293   1.352   7.300 -0.1166 -0.1095 -0.3345
  100SAPS   H7R10056   3.291   1.244   7.327  0.0286 -0.0082  0.0775
  100SAPS   H7S10057   3.188   1.359   7.265 -0.7137 -0.5287  1.3185
  100SAPS   C2810058   3.302   1.443   7.413  0.6070  0.6383 -0.1346
  100SAPS   H8R10059   3.279   1.544   7.376  2.1816  0.4669 -1.7734
  100SAPS   C2910060   3.353   1.429   7.537 -0.4204 -0.3228 -0.1794
  100SAPS   H9R10061   3.340   1.513   7.607 -0.3252  0.1862 -0.7610
  100SAPS  C21010062   3.405   1.304   7.591 -0.4110  0.0507  0.0161
  100SAPS  H10R10063   3.433   1.227   7.517 -1.3502 -0.3980  0.1144
  100SAPS  H10S10064   3.325   1.250   7.645  0.4351  0.0505  1.3204
  100SAPS  C21110065   3.533   1.321   7.666 -0.6730  0.7548  0.1423
  100SAPS  H11R10066   3.617   1.364   7.609  0.4154  0.2178  1.2995
  100SAPS  C21210067   3.557   1.278   7.794 -0.2276 -0.4831 -0.2339
  100SAPS  H12R10068   3.658   1.280   7.837  0.4241 -1.7577 -1.6353
  100SAPS  C21310069   3.455   1.210   7.884 -0.9967 -0.3988 -0.1046
  100SAPS  H13R10070   3.518   1.150   7.953 -0.9113  1.2689  1.3327
  100SAPS  H13S10071   3.394   1.137   7.826  0.1488  0.1685 -2.1407
  100SAPS  C21410072   3.360   1.297   7.960 -0.2166  0.0944 -0.4352
  100SAPS  H14R10073   3.354   1.397   7.914  0.6061  0.1760 -0.3933
  100SAPS  C21510074   3.291   1.259   8.069 -0.1407  0.2472 -0.4780
  100SAPS  H15R10075   3.225   1.329   8.122 -0.4981  0.5984 -1.3746
  100SAPS  C21610076   3.300   1.124   8.139  0.1320  0.3307  0.0836
  100SAPS  H16R10077   3.362   1.047   8.090 -1.6721 -0.2059 -1.4778
  100SAPS  H16S10078   3.197   1.084   8.150  0.2956  0.3464  1.8820
  100SAPS  C21710079   3.363   1.130   8.285  0.3303 -0.1538 -0.2699
  100SAPS  H17R10080   3.285   1.160   8.357 -1.2320  2.7843 -2.9678
  100SAPS  H17S10081   3.456   1.190   8.296  0.5266 -0.4525 -0.2843
  100SAPS  C21810082   3.410   0.988   8.342  0.1780 -0.0478 -1.2117
  100SAPS  H18R10083   3.461   0.926   8.265  1.1303 -0.6872 -0.1099
  100SAPS  H18S10084   3.318   0.944   8.387  1.6759 -0.2899  1.8612
  100SAPS  C21910085   3.514   0.993   8.461  0.3843 -0.0574 -0.1161
  100SAPS  H19R10086   3.607   1.044   8.427 -0.2123  1.6724  0.7379
  100SAPS  H19S10087   3.553   0.893   8.491 -0.1451 -0.6261 -1.2647
  100SAPS  C22010088   3.469   1.065   8.592  0.7797 -0.3604 -0.1101
  100SAPS  H20R10089   3.559   1.073   8.658 -0.3105 -0.5268  1.4467
  100SAPS  H20S10090   3.393   1.004   8.646  1.2392 -2.0018 -1.2474
  100SAPS  H20T10091   3.425   1.165   8.575 -3.7494 -2.1709 -0.2553
  100SAPS   C3310092   3.026   1.734   7.153 -0.5347 -0.3453  0.1434
  100SAPS   H3X10093   3.030   1.653   7.077 -0.1576 -0.5810  0.4100
  100SAPS   H3Y10094   2.943   1.723   7.225  0.1115 -0.9360  0.8221
  100SAPS   C3410095   3.154   1.736   7.231  0.5811  0.1970  0.6385
  100SAPS   H4X10096   3.241   1.699   7.172  0.0368  0.3762 -0.2917
  100SAPS   H4Y10097   3.154   1.662   7.314  0.8462 -0.8383 -0.2556
  100SAPS   C3510098   3.208   1.873   7.289  0.8796  0.2388 -0.0213
  100SAPS   H5X10099   3.245   1.936   7.205 -1.1231  0.7037 -0.6181
  100SAPS   H5Y10100   3.301   1.846   7.344  1.5670  1.3731 -0.5838
  100SAPS   C3610101   3.127   1.948   7.389  0.4582 -0.1746 -0.2402
  100SAPS   H6X10102   3.039   1.986   7.334  1.0683  1.8585  0.1326
  100SAPS   H6Y10103   3.179   2.034   7.435  0.5215 -1.1876  1.6736
  100SAPS   C3710104   3.068   1.877   7.514  0.1010 -0.0322 -0.6537
  100SAPS   H7X10105   2.989   1.803   7.487 -0.7364  1.3134 -2.0256
  100SAPS   H7Y10106   3.010   1.957   7.565 -0.7475 -0.5035 -0.8481
  100SAPS   C3810107   3.170   1.808   7.607 -0.2233 -0.5145 -0.2997
  100SAPS   H8X10108   3.233   1.894   7.635 -2.0324  0.8148 -0.1372
  100SAPS   H8Y10109   3.237   1.732   7.561 -1.2640 -1.4813 -0.2723
  100SAPS   C3910110   3.102   1.745   7.731  0.1911 -0.2032 -0.2027
  100SAPS   H9X10111   3.046   1.656   7.697  1.9389 -0.1206 -3.7540
  100SAPS   H9Y10112   3.022   1.808   7.775  1.4231 -1.1749  3.8428
  100SAPS  C31010113   3.200   1.704   7.845 -0.7093  0.6912  0.0843
  100SAPS  H10X10114   3.231   1.808   7.867 -1.5414  0.9544  0.0234
  100SAPS  H10Y10115   3.286   1.644   7.808 -0.4843  0.4679  0.9582
  100SAPS  C31110116   3.129   1.646   7.965 -0.0953  0.1249 -0.7144
  100SAPS  H11X10117   3.103   1.539   7.953  1.3397 -0.4757  1.0871
  100SAPS  H11Y10118   3.030   1.693   7.982 -2.0957 -4.2560  1.5314
  100SAPS  C31210119   3.202   1.674   8.095  0.4567  0.1317 -0.3798
  100SAPS  H12X10120   3.202   1.784   8.107 -1.2122 -0.0388  1.8202
  100SAPS  H12Y10121   3.305   1.631   8.097 -0.7920 -3.2551 -1.4560
  100SAPS  C31310122   3.124   1.619   8.219 -0.6731 -0.7648 -1.2166
  100SAPS  H13X10123   3.107   1.510   8.213 -1.6644 -0.7665  0.7068
  100SAPS  H13Y10124   3.023   1.666   8.221  0.5655  2.1868  1.1374
  100SAPS  C31410125   3.195   1.676   8.348 -0.5941 -0.3384  0.3182
  100SAPS  H14X10126   3.182   1.786   8.354  0.0942 -0.3179  3.2907
  100SAPS  H14Y10127   3.304   1.663   8.331 -0.6303  0.2889 -0.4093
  100SAPS  C31510128   3.161   1.606   8.474  0.6012  0.4296  0.0227
  100SAPS  H15X10129   3.166   1.498   8.447 -1.5190  0.6473 -1.4383
  100SAPS  H15Y10130   3.054   1.616   8.500 -0.1709 -1.5670 -1.9912
  100SAPS  C31610131   3.243   1.664   8.587  0.4214 -0.2486 -0.2851
  100SAPS  H16X10132   3.351   1.651   8.564  0.7141 -0.0993  0.9449
  100SAPS  H16Y10133   3.230   1.611   8.684  0.8190  1.0292  0.4836
  100SAPS  C31710134   3.228   1.816   8.611  0.3823 -1.2852 -0.2787
  100SAPS  H17X10135   3.119   1.826   8.630  0.2024 -1.2090 -1.3022
  100SAPS  H17Y10136   3.236   1.880   8.521  1.0339 -2.2405 -0.9117
  100SAPS  C31810137   3.299   1.882   8.724 -0.6897  0.3247 -0.1878
  100SAPS  H18X10138   3.274   1.990   8.730 -1.6260  0.2237 -1.6265
  100SAPS  H18Y10139   3.407   1.882   8.701 -0.9307 -0.9430 -1.4824
  100SAPS  H18Z10140   3.265   1.829   8.816  1.5424  0.4306  0.7461
  101OSM      N10141   3.452   1.677  11.150 -0.2238 -0.9427 -0.1547
  101OSM    C1510142   3.448   1.830  11.133  0.1941  0.2940 -0.4670
  101OSM   H15A10143   3.540   1.874  11.170  0.6991 -0.7613 -0.4228
  101OSM   H15B10144   3.363   1.884  11.172  2.6925  3.2728  1.3448
  101OSM   H15C10145   3.455   1.864  11.030  2.4614  0.1048 -0.4359
  101OSM    C1410146   3.580   1.624  11.114  0.1261 -0.8755  0.4476
  101OSM   H14A10147   3.603   1.636  11.009  0.9657  0.3935  0.7582
  101OSM   H14B10148   3.572   1.517  11.128 -0.1286 -1.2085 -1.7839
  101OSM   H14C10149   3.662   1.665  11.171  0.9523 -0.3867 -1.0256
  101OSM    C1310150   3.429   1.653  11.299  0.3452 -0.3332 -0.1593
  101OSM   H13A10151   3.526   1.662  11.345  0.8410  2.1869 -1.5099
  101OSM   H13B10152   3.368   1.565  11.307  0.7030 -0.6268 -0.6814
  101OSM   H13C10153   3.365   1.727  11.346  3.2997  0.4499  3.0915
  101OSM    C1210154   3.349   1.617  11.057  0.1712 -0.5817 -0.0018
  101OSM   H12A10155   3.374   1.641  10.955 -0.1730 -0.2702 -0.0152
  101OSM   H12B10156   3.251   1.658  11.072  0.1867 -1.0532  1.5384
  101OSM    C1110157   3.335   1.457  11.046  0.0427  0.7699 -0.2530
  101OSM   H11A10158   3.242   1.449  10.986 -1.4870  0.6185  2.0071
  101OSM   H11B10159   3.331   1.422  11.151 -0.1453  2.9849  0.5379
  101OSM      P10160   3.449   1.265  10.891 -0.2763 -0.0007  0.0733
  101OSM    O1310161   3.585   1.245  10.827  0.2452  0.0174 -0.0973
  101OSM    O1410162   3.390   1.149  10.963  0.0627  0.2972  0.0330
  101OSM    O1110163   3.359   1.305  10.775 -0.0719  0.6726 -0.1825
  101OSM    O1210164   3.450   1.394  10.980 -0.0652  1.0830  0.1126
  101OSM    C1S10165   3.337   1.422  10.708  0.1467  0.1249  0.4293
  101OSM    H1S10166   3.407   1.500  10.744  0.3071  0.8674 -1.3783
  101OSM    H1T10167   3.236   1.465  10.727  0.9983  2.3973  0.1691
  101OSM     NF10168   3.349   1.535  10.491  0.2389  0.0891  0.1980
  101OSM    HNF10169   3.278   1.546  10.422  1.0423 -0.8144 -0.8134
  101OSM    C2S10170   3.338   1.408  10.553  0.2266  0.6465  0.5535
  101OSM    H2S10171   3.426   1.348  10.521 -0.3478 -0.1321  0.4058
  101OSM    C3S10172   3.226   1.314  10.513 -0.5048 -0.0958 -0.1152
  101OSM    H3S10173   3.129   1.352  10.552  0.0093 -0.3289  1.4908
  101OSM     O310174   3.232   1.187  10.580  0.0029  0.0653 -0.4895
  101OSM    HO310175   3.273   1.221  10.659 -1.9151  1.5824 -0.0592
  101OSM    C4S10176   3.228   1.304  10.359  0.5331  0.6577  0.2173
  101OSM    H4S10177   3.178   1.391  10.315  1.5070  1.2390  0.2339
  101OSM    C5S10178   3.305   1.229  10.276 -0.0889 -0.0203  0.4279
  101OSM    H5S10179   3.373   1.155  10.319  1.2131 -0.2437 -1.8561
  101OSM    C6S10180   3.297   1.241  10.123  0.0932 -1.2549 -0.1014
  101OSM    H6S10181   3.225   1.168  10.080 -1.0086  1.1148 -2.5567
  101OSM    H6T10182   3.395   1.232  10.073 -0.9543  0.6080 -2.6970
  101OSM    C7S10183   3.235   1.370  10.066  0.6030 -0.7375 -0.0655
  101OSM    H7S10184   3.284   1.463  10.103 -0.2744 -0.1146 -0.4162
  101OSM    H7T10185   3.131   1.371  10.106  0.4625  0.5782 -0.4001
  101OSM    C8S10186   3.239   1.380   9.910 -0.1708 -0.0869 -0.0405
  101OSM    H8S10187   3.209   1.282   9.866  3.5290 -0.7349 -1.4510
  101OSM    H8T10188   3.348   1.383   9.888 -0.3750 -0.8732 -1.2669
  101OSM    C9S10189   3.190   1.509   9.838  0.1233  0.4361 -0.1459
  101OSM    H9S10190   3.228   1.593   9.899  0.8507 -0.3890  0.5743
  101OSM    H9T10191   3.079   1.512   9.841  0.0394 -0.8142 -0.8597
  101OSM   C10S10192   3.251   1.525   9.697 -0.2933 -0.0157  0.7402
  101OSM   H10S10193   3.235   1.432   9.638 -1.3044  0.6877 -0.1491
  101OSM   H10T10194   3.360   1.541   9.702 -0.0748 -1.4109  0.8770
  101OSM   C11S10195   3.185   1.647   9.625  0.9051 -0.6403 -0.3025
  101OSM   H11S10196   3.220   1.732   9.688  2.1047 -1.1606 -0.2468
  101OSM   H11T10197   3.076   1.648   9.645  0.1292  1.1586 -3.8261
  101OSM   C12S10198   3.222   1.676   9.486 -0.3078 -0.0247 -0.2278
  101OSM   H12S10199   3.201   1.583   9.429 -1.2483 -0.2705  0.4823
  101OSM   H12T10200   3.329   1.703   9.487 -0.7739  2.0114 -0.6518
  101OSM   C13S10201   3.152   1.804   9.430  0.1347  0.5210 -0.0303
  101OSM   H13S10202   3.184   1.885   9.499  3.3293 -0.1413 -0.5980
  101OSM   H13T10203   3.042   1.789   9.436  0.0248  1.4256  0.3813
  101OSM   C14S10204   3.192   1.832   9.282  0.1668  0.1385 -0.4589
  101OSM   H14S10205   3.136   1.757   9.221 -0.3202 -2.0873  2.4887
  101OSM   H14T10206   3.300   1.816   9.261  0.9311  2.7604  1.1263
  101OSM   C15S10207   3.152   1.968   9.228 -0.4691  0.0060 -0.2713
  101OSM   H15S10208   3.188   2.045   9.299  0.0488 -0.8732  0.4255
  101OSM   H15T10209   3.041   1.979   9.219 -0.2541  1.3671 -1.8898
  101OSM   C16S10210   3.225   2.006   9.098  0.4208 -0.2918 -0.3057
  101OSM   H16S10211   3.197   1.924   9.029  0.6633 -1.3112  0.7712
  101OSM   H16T10212   3.336   2.009   9.103  0.4820 -0.9855 -0.9523
  101OSM   C17S10213   3.183   2.139   9.032 -0.3879  0.4763 -0.0963
  101OSM   H17S10214   3.267   2.170   8.965  0.9627 -0.6660  1.0037
  101OSM   H17T10215   3.177   2.214   9.114 -0.2329  0.6898 -0.2792
  101OSM   C18S10216   3.056   2.134   8.951 -0.1961 -0.1420  0.5617
  101OSM   H18S10217   3.056   2.044   8.886  0.1201  0.6269 -0.5314
  101OSM   H18T10218   3.019   2.222   8.895  0.3579  0.2970  0.8643
  101OSM   H18U10219   2.975   2.111   9.024 -0.4278  1.7786  0.9665
  101OSM    C1F10220   3.445   1.623  10.524  0.3217 -0.3328  0.2996
  101OSM     OF10221   3.549   1.585  10.570  0.3357 -0.4173 -0.0781
  101OSM    C2F10222   3.423   1.768  10.481  0.2128  0.8426 -0.1030
  101OSM    H2F10223   3.396   1.823  10.573  1.2780  0.9499  0.1538
  101OSM    H2G10224   3.343   1.772  10.403 -0.3055  0.7446  0.4148
  101OSM    C3F10225   3.548   1.839  10.418  0.7337 -0.8296 -0.9378
  101OSM    H3F10226   3.583   1.782  10.330 -0.0736  0.2067 -1.9605
  101OSM    H3G10227   3.626   1.847  10.496 -0.7018  1.5576  0.3652
  101OSM    C4F10228   3.515   1.982  10.364 -0.1351  0.1907  1.1816
  101OSM    H4F10229   3.467   2.040  10.447 -0.1393  0.7236  0.8125
  101OSM    H4G10230   3.449   1.960  10.277 -0.5533 -1.7785  1.9460
  101OSM    C5F10231   3.637   2.055  10.315  0.2083  0.1928  0.6432
  101OSM    H5F10232   3.729   1.992  10.316 -0.0569 -0.1954  0.4791
  101OSM    H5G10233   3.652   2.139  10.386 -0.3032 -1.2874  2.5881
  101OSM    C6F10234   3.611   2.097  10.175 -0.7219  0.4043 -0.7420
  101OSM    H6F10235   3.584   2.006  10.118 -0.9294  0.6542 -1.0460
  101OSM    H6G10236   3.704   2.137  10.130 -1.1142  0.7811 -1.2419
  101OSM    C7F10237   3.510   2.206  10.173 -0.0645  0.0322 -0.0252
  101OSM    H7F10238   3.556   2.296  10.219  1.9570 -0.2426 -1.3682
  101OSM    H7G10239   3.411   2.172  10.211  0.1320 -1.1843 -0.5458
  101OSM    C8F10240   3.486   2.259  10.027 -0.0954  0.3543 -0.1302
  101OSM    H8F10241   3.447   2.173   9.969 -0.3605 -0.1073  0.7105
  101OSM    H8G10242   3.579   2.278   9.969 -0.6424  0.6322 -0.9382
  101OSM    C9F10243   3.402   2.390  10.023 -0.1957 -0.9411  0.6402
  101OSM    H9F10244   3.310   2.389  10.083 -0.8006  1.0102 -0.1669
  101OSM   C10F10245   3.429   2.506   9.957  0.0145  0.2740 -0.2865
  101OSM   H10F10246   3.363   2.593   9.972 -0.4906  0.3909 -2.8401
  101OSM   C11F10247   3.541   2.543   9.864 -0.4512  0.2989  0.1376
  101OSM   H11F10248   3.638   2.496   9.890 -0.7538  0.6117  2.0019
  101OSM   H11G10249   3.566   2.650   9.880  0.2630 -0.1444  2.3756
  101OSM   C12F10250   3.510   2.539   9.712 -0.1535 -0.1959 -0.0108
  101OSM   H12F10251   3.598   2.574   9.653  1.1470 -0.6073  1.6042
  101OSM   H12G10252   3.418   2.598   9.692  0.3381 -0.0212 -1.9561
  101OSM   C13F10253   3.496   2.389   9.677 -0.4123 -0.3998  0.6989
  101OSM   H13F10254   3.394   2.365   9.714  0.5944 -0.5953  3.5799
  101OSM   H13G10255   3.570   2.324   9.729  0.2675  0.3996  0.7520
  101OSM   C14F10256   3.504   2.340   9.532 -0.3474  0.0018 -0.2896
  101OSM   H14F10257   3.463   2.237   9.531 -0.1316 -0.1749  2.3308
  101OSM   H14G10258   3.610   2.335   9.498 -0.5561  1.2421 -1.2152
  101OSM   C15F10259   3.450   2.436   9.427  0.6215 -0.7513 -0.0038
  101OSM   H15F10260   3.503   2.533   9.438  0.6794 -0.6280 -1.2905
  101OSM   H15G10261   3.341   2.459   9.436  0.4613 -0.9495 -1.3267
  101OSM   C16F10262   3.468   2.390   9.285 -0.2260  0.5403 -0.2666
  101OSM   H16F10263   3.388   2.319   9.255  0.4553 -0.6345  0.6357
  101OSM   H16G10264   3.564   2.334   9.280 -0.1817  0.3837  1.7211
  101OSM   C17F10265   3.471   2.498   9.178 -0.5291  0.2078  0.1666
  101OSM   H17F10266   3.566   2.556   9.185 -1.0064  1.4394 -2.1991
  101OSM   H17G10267   3.380   2.558   9.196  1.0220  1.9102  3.1008
  101OSM   C18F10268   3.455   2.427   9.045  0.2438 -0.2667  1.0733
  101OSM   H18F10269   3.361   2.367   9.046  1.1256 -1.6852  1.2954
  101OSM   H18G10270   3.544   2.361   9.038  0.4116  0.0610 -0.0220
  101OSM   H18H10271   3.454   2.498   8.960 -0.4113 -1.4957  0.0116
  102OSM      N10272   2.823   1.279  11.107 -0.2789  0.8419  0.6645
  102OSM    C1510273   2.778   1.423  11.126  0.2553 -1.1257 -0.4676
  102OSM   H15A10274   2.685   1.445  11.075 -1.1147 -2.8698  1.0932
  102OSM   H15B10275   2.854   1.489  11.089 -0.0590 -0.6237 -0.2170
  102OSM   H15C10276   2.768   1.430  11.233  0.7564 -2.7417 -0.2782
  102OSM    C1410277   2.939   1.239  11.194  0.2987 -0.4955  0.9482
  102OSM   H14A10278   2.915   1.241  11.299 -0.1984  0.5779  0.8192
  102OSM   H14B10279   3.022   1.307  11.180 -1.5073  1.4677 -0.9568
  102OSM   H14C10280   2.973   1.138  11.172 -2.2209 -1.1481 -0.2185
  102OSM    C1310281   2.714   1.188  11.146 -0.3425  0.0557  0.7917
  102OSM   H13A10282   2.678   1.202  11.247  0.6470  2.6636  0.8527
  102OSM   H13B10283   2.746   1.086  11.134  0.6303  0.2691  1.4827
  102OSM   H13C10284   2.626   1.202  11.085  0.5150 -2.2978 -1.1654
  102OSM    C1210285   2.864   1.255  10.957 -0.2068  0.8846 -0.8655
  102OSM   H12A10286   2.773   1.249  10.899 -1.8532 -1.5065  1.7037
  102OSM   H12B10287   2.901   1.154  10.944 -0.1924  0.6832  0.6039
  102OSM    C1110288   2.966   1.355  10.891  0.5410 -0.3173 -0.4636
  102OSM   H11A10289   2.976   1.320  10.786 -0.9065  0.8811 -1.0230
  102OSM   H11B10290   3.063   1.343  10.944  0.5153  0.6006 -0.1940
  102OSM      P10291   2.838   1.568  10.802  0.1433  0.0287  0.4447
  102OSM    O1310292   2.746   1.666  10.864  0.4730  0.9702  0.3351
  102OSM    O1410293   2.930   1.623  10.701 -0.1782  0.4735 -0.3455
  102OSM    O1110294   2.744   1.454  10.738 -0.2145  0.0059 -0.2869
  102OSM    O1210295   2.925   1.499  10.904 -0.7242 -0.0997  0.1739
  102OSM    C1S10296   2.654   1.484  10.633 -0.2075 -0.9247  0.5148
  102OSM    H1S10297   2.600   1.580  10.650 -1.1001 -0.9839 -1.6433
  102OSM    H1T10298   2.568   1.417  10.654 -0.1672 -1.0588  0.2513
  102OSM     NF10299   2.604   1.547  10.383 -0.1525 -0.0647 -0.4513
  102OSM    HNF10300   2.545   1.494  10.323 -0.2401  2.2436 -2.5808
  102OSM    C2S10301   2.695   1.479  10.485 -0.3486 -0.0268 -0.0100
  102OSM    H2S10302   2.798   1.522  10.486  0.3790 -1.6741  1.1206
  102OSM    C3S10303   2.706   1.326  10.448  0.9390 -0.3004  0.0383
  102OSM    H3S10304   2.602   1.288  10.464  0.0516  1.4955 -1.1098
  102OSM     O310305   2.796   1.264  10.539 -0.0177 -0.0820 -0.0827
  102OSM    HO310306   2.817   1.330  10.605  1.1372 -0.1361 -0.3813
  102OSM    C4S10307   2.756   1.307  10.303  0.3766  0.2898  0.5391
  102OSM    H4S10308   2.863   1.331  10.291 -0.0079  1.4474 -1.0312
  102OSM    C5S10309   2.685   1.282  10.193  0.4231 -0.3679  0.0123
  102OSM    H5S10310   2.578   1.260  10.208  0.4912 -1.0741 -0.4782
  102OSM    C6S10311   2.733   1.271  10.049 -0.3165  0.1443 -0.2788
  102OSM    H6S10312   2.672   1.194   9.997  1.1329 -0.3834 -1.2646
  102OSM    H6T10313   2.840   1.241  10.053 -0.3025  0.2203 -0.0608
  102OSM    C7S10314   2.710   1.398   9.964  0.1947 -0.2178 -0.9082
  102OSM    H7S10315   2.763   1.489  10.001 -2.1955  0.6815  0.5038
  102OSM    H7T10316   2.603   1.428   9.973  0.6181  0.9284  1.1176
  102OSM    C8S10317   2.720   1.366   9.809 -0.0493 -0.3537  0.5123
  102OSM    H8S10318   2.642   1.296   9.772 -1.4644  2.1026 -1.5268
  102OSM    H8T10319   2.813   1.306   9.805  0.7258  0.7951  0.8893
  102OSM    C9S10320   2.724   1.489   9.711  0.4566  0.2651  0.1571
  102OSM    H9S10321   2.763   1.582   9.757  0.0833  0.0344  0.9575
  102OSM    H9T10322   2.624   1.512   9.669  0.4555  0.0645  0.0468
  102OSM   C10S10323   2.815   1.451   9.593  0.3776  0.0116  0.2356
  102OSM   H10S10324   2.771   1.355   9.559  0.4169  0.9486 -2.7085
  102OSM   H10T10325   2.919   1.428   9.626  0.9100 -0.0332 -1.4224
  102OSM   C11S10326   2.834   1.558   9.495 -0.0883 -0.4300  0.1383
  102OSM   H11S10327   2.902   1.523   9.415 -0.4840 -0.1326 -0.3320
  102OSM   H11T10328   2.876   1.651   9.539  0.2639 -0.0771 -0.9125
  102OSM   C12S10329   2.704   1.603   9.433  0.4376 -0.1909  0.3153
  102OSM   H12S10330   2.630   1.642   9.506 -1.7620 -2.7009 -0.4200
  102OSM   H12T10331   2.648   1.518   9.388 -1.5428  0.2253  1.8517
  102OSM   C13S10332   2.708   1.723   9.332 -0.3161 -0.0369  0.5444
  102OSM   H13S10333   2.728   1.819   9.385  2.9098 -1.1210  1.4625
  102OSM   H13T10334   2.606   1.732   9.289  0.0342 -1.4718 -0.6421
  102OSM   C14S10335   2.804   1.697   9.221  0.5694  0.0554  0.5068
  102OSM   H14S10336   2.791   1.595   9.178 -0.2559  0.9238 -1.4404
  102OSM   H14T10337   2.903   1.702   9.271 -0.9132  1.0233  3.5888
  102OSM   C15S10338   2.792   1.808   9.111  0.5907  0.0093  0.1121
  102OSM   H15S10339   2.781   1.906   9.162  0.3101 -0.1913  0.4379
  102OSM   H15T10340   2.700   1.791   9.051  0.4801  0.3015  0.1954
  102OSM   C16S10341   2.904   1.800   9.005 -0.1725 -0.5657  0.2536
  102OSM   H16S10342   3.001   1.832   9.049 -1.3159  2.6409  0.7650
  102OSM   H16T10343   2.876   1.865   8.919  1.8090  0.0803  0.0498
  102OSM   C17S10344   2.913   1.662   8.946 -0.5112 -0.2535 -0.3105
  102OSM   H17S10345   2.816   1.622   8.909 -0.7098  0.3232 -0.4279
  102OSM   H17T10346   2.944   1.595   9.028  0.7021  2.7269  1.8562
  102OSM   C18S10347   3.014   1.648   8.838 -0.3714 -0.1259  0.4640
  102OSM   H18S10348   2.972   1.699   8.749  3.2206  0.0371 -1.3322
  102OSM   H18T10349   3.045   1.544   8.815  2.8583  0.3264  2.1425
  102OSM   H18U10350   3.106   1.703   8.867 -0.6091 -0.1666  1.3217
  102OSM    C1F10351   2.589   1.681  10.373 -0.1579  0.5883 -0.3986
  102OSM     OF10352   2.652   1.751  10.448 -0.1475  0.0672 -0.3352
  102OSM    C2F10353   2.490   1.732  10.276 -0.3585  0.0329 -1.0725
  102OSM    H2F10354   2.481   1.842  10.283 -1.2942 -0.1248  1.7537
  102OSM    H2G10355   2.384   1.704  10.298  0.2308 -2.3572 -1.0147
  102OSM    C3F10356   2.533   1.694  10.137  0.1712  0.9246 -0.8779
  102OSM    H3F10357   2.534   1.585  10.118 -3.7761  0.3456  1.0296
  102OSM    H3G10358   2.632   1.740  10.120  0.9245 -1.2880 -3.1023
  102OSM    C4F10359   2.445   1.755  10.023  0.0444 -0.0063  0.0682
  102OSM    H4F10360   2.415   1.858  10.052  0.4627  0.0710  0.2424
  102OSM    H4G10361   2.354   1.695  10.000 -0.0361  0.5446 -1.1022
  102OSM    C5F10362   2.519   1.748   9.885 -0.2430  0.4812 -0.4013
  102OSM    H5F10363   2.591   1.663   9.886 -0.8289 -0.0135  1.3186
  102OSM    H5G10364   2.576   1.843   9.878  0.0027  0.5087  1.4449
  102OSM    C6F10365   2.426   1.735   9.757  0.0551 -0.2111 -0.2841
  102OSM    H6F10366   2.338   1.681   9.799 -2.0709  2.2436 -1.3199
  102OSM    H6G10367   2.471   1.680   9.672  1.2543 -0.6066  0.5770
  102OSM    C7F10368   2.378   1.870   9.709  0.6442  0.5975  0.8507
  102OSM    H7F10369   2.470   1.930   9.692  0.5550  0.7701  0.9782
  102OSM    H7G10370   2.330   1.928   9.790 -0.1564 -1.2749  1.7651
  102OSM    C8F10371   2.285   1.848   9.587 -0.1876  0.2501  0.3668
  102OSM    H8F10372   2.225   1.940   9.572 -0.4848 -0.0092 -0.0221
  102OSM    H8G10373   2.210   1.767   9.599 -0.2765  0.1598 -0.6845
  102OSM    C9F10374   2.365   1.834   9.457  0.9579  0.1906 -0.1441
  102OSM    H9F10375   2.475   1.840   9.460  1.2003  0.1291 -3.9124
  102OSM   C10F10376   2.307   1.812   9.340 -0.6384  0.1611 -0.9054
  102OSM   H10F10377   2.377   1.798   9.256  1.6110  0.6622  0.8124
  102OSM   C11F10378   2.163   1.798   9.303  0.5110  0.5830 -0.3335
  102OSM   H11F10379   2.117   1.895   9.272 -1.6604 -0.5167 -0.7584
  102OSM   H11G10380   2.103   1.749   9.382  0.7318 -0.8341 -1.0176
  102OSM   C12F10381   2.144   1.695   9.188 -0.6940  0.1648  0.1267
  102OSM   H12F10382   2.168   1.594   9.225 -1.4999  0.7116  2.2873
  102OSM   H12G10383   2.222   1.707   9.110  1.2309 -3.8912  1.1555
  102OSM   C13F10384   2.006   1.693   9.126  0.4432  0.0882 -0.5842
  102OSM   H13F10385   1.971   1.793   9.095 -0.2358 -0.3211 -1.1595
  102OSM   H13G10386   1.929   1.657   9.198  0.4537 -0.7786 -0.9921
  102OSM   C14F10387   1.997   1.607   8.997 -0.3420  0.2335 -0.1731
  102OSM   H14F10388   1.887   1.599   8.979 -0.5889 -0.8678  1.5601
  102OSM   H14G10389   2.043   1.506   9.005 -0.5229  0.1473 -0.2142
  102OSM   C15F10390   2.064   1.667   8.876  0.0012 -0.4626  0.5791
  102OSM   H15F10391   2.175   1.663   8.886  0.0101 -2.6265  0.0123
  102OSM   H15G10392   2.011   1.764   8.865 -2.0161 -1.3578  1.7736
  102OSM   C16F10393   2.054   1.567   8.757  0.1873 -0.5539 -0.0345
  102OSM   H16F10394   1.947   1.550   8.733  0.0417 -0.6810  0.6940
  102OSM   H16G10395   2.104   1.471   8.781  1.5859 -0.5484 -2.5708
  102OSM   C17F10396   2.116   1.629   8.637  0.2521 -0.3374  1.2583
  102OSM   H17F10397   2.101   1.739   8.646 -0.5598 -0.1408 -1.5447
  102OSM   H17G10398   2.055   1.615   8.545  1.1544 -0.4267  0.6560
  102OSM   C18F10399   2.260   1.583   8.618  0.4364  0.5587 -0.4393
  102OSM   H18F10400   2.261   1.474   8.636 -4.1255  0.7530  2.8262
  102OSM   H18G10401   2.331   1.623   8.694 -1.2629 -2.5475  3.1293
  102OSM   H18H10402   2.293   1.618   8.519  2.2931  4.1987  1.2727
  103OSM      N10403   3.323   3.798  11.271 -0.3120  0.1428  0.0317
  103OSM    C1510404   3.237   3.701  11.342 -0.2157  0.1530 -0.3070
  103OSM   H15A10405   3.295   3.612  11.359 -1.9801 -0.6766  1.9604
  103OSM   H15B10406   3.152   3.678  11.279  0.3466  0.3371 -1.1494
  103OSM   H15C10407   3.207   3.741  11.438 -1.3756  1.9182 -1.3545
  103OSM    C1410408   3.240   3.924  11.247 -0.7402 -0.2925 -0.6819
  103OSM   H14A10409   3.181   3.912  11.157 -0.1581  2.1866 -1.4798
  103OSM   H14B10410   3.300   4.013  11.239 -1.0776  0.1505  1.3122
  103OSM   H14C10411   3.167   3.943  11.324 -0.0852 -0.1883 -0.0806
  103OSM    C1310412   3.442   3.834  11.351  1.1973  0.0627  0.2475
  103OSM   H13A10413   3.495   3.907  11.291 -0.4161  0.4515 -0.7644
  103OSM   H13B10414   3.502   3.744  11.354 -2.2733 -2.6838 -2.8501
  103OSM   H13C10415   3.413   3.880  11.444 -1.0173 -1.2198  0.2483
  103OSM    C1210416   3.362   3.745  11.137  0.0805  0.3201 -0.7245
  103OSM   H12A10417   3.271   3.716  11.088 -0.6566 -0.0922  0.8057
  103OSM   H12B10418   3.416   3.653  11.149  0.1446  0.1428 -2.2778
  103OSM    C1110419   3.434   3.839  11.046 -1.1972 -0.3763  0.1523
  103OSM   H11A10420   3.375   3.932  11.037 -2.5183 -1.0981  1.0633
  103OSM   H11B10421   3.437   3.784  10.949  2.2763  1.7605 -1.1349
  103OSM      P10422   3.687   3.779  11.053  0.2173  0.4672 -0.4839
  103OSM    O1310423   3.803   3.820  11.134 -0.1272  0.1947  0.5822
  103OSM    O1410424   3.645   3.634  11.062  0.5962  0.2362  0.6275
  103OSM    O1110425   3.708   3.823  10.904  0.6880 -0.4672  0.0534
  103OSM    O1210426   3.565   3.868  11.093 -0.4270  0.0841 -0.1863
  103OSM    C1S10427   3.756   3.953  10.876 -0.1445  0.1822  0.6529
  103OSM    H1S10428   3.852   3.972  10.929 -1.8044 -1.2185  4.5678
  103OSM    H1T10429   3.693   4.037  10.911  0.1776  2.1264 -2.9271
  103OSM     NF10430   3.843   4.092  10.682 -0.2888  0.5510 -0.1583
  103OSM    HNF10431   3.796   4.173  10.648  1.5713  1.5547 -0.5257
  103OSM    C2S10432   3.759   3.981  10.718  0.0881 -0.2734  0.1228
  103OSM    H2S10433   3.807   3.892  10.670  1.2922 -0.2509  1.2292
  103OSM    C3S10434   3.617   4.000  10.666  0.5501  0.3052  0.0992
  103OSM    H3S10435   3.574   4.090  10.714 -0.7356 -0.7382  0.9951
  103OSM     O310436   3.521   3.898  10.717 -0.4697  0.1149 -0.2452
  103OSM    HO310437   3.567   3.846  10.783 -1.2469  1.2018  1.2137
  103OSM    C4S10438   3.608   4.020  10.518 -1.0133 -1.2174  0.1992
  103OSM    H4S10439   3.642   4.119  10.487 -1.0484 -1.7190 -1.5531
  103OSM    C5S10440   3.578   3.924  10.421  0.7317 -0.2301 -0.3012
  103OSM    H5S10441   3.536   3.825  10.445 -2.7941  0.8773 -1.3741
  103OSM    C6S10442   3.583   3.949  10.270  0.4493  1.5153 -0.0870
  103OSM    H6S10443   3.484   3.915  10.231 -0.3062  3.6686 -0.1814
  103OSM    H6T10444   3.662   3.880  10.234 -0.2645 -0.2672  1.6166
  103OSM    C7S10445   3.615   4.087  10.211 -0.1213  0.4200  0.3898
  103OSM    H7S10446   3.709   4.121  10.259 -0.7284 -2.4128  4.0170
  103OSM    H7T10447   3.546   4.163  10.252  0.9964  1.1252  1.0336
  103OSM    C8S10448   3.644   4.077  10.059  0.5397  0.0602 -0.4265
  103OSM    H8S10449   3.737   4.018  10.044  2.1208  2.2746  0.2282
  103OSM    H8T10450   3.660   4.182  10.026  1.0016  0.5721  1.3171
  103OSM    C9S10451   3.525   4.002   9.991 -0.5249 -0.6053  0.0613
  103OSM    H9S10452   3.433   4.054  10.025 -0.5083 -2.1700  2.7290
  103OSM    H9T10453   3.527   3.897  10.026  0.1652 -1.0838 -1.3295
  103OSM   C10S10454   3.537   4.011   9.834  0.5547 -0.5638 -0.5892
  103OSM   H10S10455   3.572   3.914   9.791  2.4394 -0.6229  0.9470
  103OSM   H10T10456   3.627   4.069   9.804  0.3738 -0.3738 -0.7644
  103OSM   C11S10457   3.418   4.070   9.756 -0.0437  0.3252  0.3238
  103OSM   H11S10458   3.349   4.118   9.828  0.1933 -0.6643  1.2323
  103OSM   H11T10459   3.365   3.987   9.704  2.0628  0.0107 -1.4797
  103OSM   C12S10460   3.457   4.177   9.652  0.3801 -0.3196  0.1410
  103OSM   H12S10461   3.528   4.255   9.689 -1.5225  0.2581  2.8317
  103OSM   H12T10462   3.361   4.225   9.623  0.4561 -1.0096 -1.3526
  103OSM   C13S10463   3.516   4.107   9.535 -0.4615 -0.2019 -0.3606
  103OSM   H13S10464   3.446   4.043   9.476 -1.7962  0.8747  0.0218
  103OSM   H13T10465   3.597   4.037   9.568  1.3754  1.6846 -0.6689
  103OSM   C14S10466   3.600   4.202   9.439 -0.0465 -0.6649 -0.0061
  103OSM   H14S10467   3.687   4.143   9.401  0.2896  0.6164 -1.3132
  103OSM   H14T10468   3.658   4.273   9.501  0.6372 -2.4222  1.4585
  103OSM   C15S10469   3.529   4.275   9.326 -0.1396 -0.4351 -0.0475
  103OSM   H15S10470   3.482   4.369   9.362  0.1968 -0.8436  1.5019
  103OSM   H15T10471   3.453   4.208   9.281 -0.0473  0.3455 -1.4236
  103OSM   C16S10472   3.615   4.328   9.208 -0.0386 -0.1428 -0.2137
  103OSM   H16S10473   3.643   4.249   9.136  2.2601  1.0849 -0.7562
  103OSM   H16T10474   3.703   4.362   9.267 -2.0692  0.6499  2.6187
  103OSM   C17S10475   3.555   4.443   9.126 -1.4344  1.0517  0.4470
  103OSM   H17S10476   3.532   4.531   9.189 -2.3287  0.4689  0.9581
  103OSM   H17T10477   3.464   4.401   9.077 -1.2103 -0.3188  1.1643
  103OSM   C18S10478   3.656   4.492   9.022  0.3694 -0.4605  0.7902
  103OSM   H18S10479   3.671   4.412   8.946  0.4661 -0.1997  0.5348
  103OSM   H18T10480   3.746   4.532   9.074  0.8361  1.0111 -1.0290
  103OSM   H18U10481   3.610   4.579   8.971  1.4941  1.2706  2.5430
  103OSM    C1F10482   3.980   4.086  10.681 -0.1127  0.5727 -0.0989
  103OSM     OF10483   4.034   3.977  10.710 -0.0921 -0.0609  0.2168
  103OSM    C2F10484   4.046   4.219  10.661 -0.4170  0.1174  0.4493
  103OSM    H2F10485   4.100   4.241  10.755  2.9544  0.0355 -1.2884
  103OSM    H2G10486   3.968   4.294  10.636 -0.6951 -1.2138 -3.3602
  103OSM    C3F10487   4.161   4.200  10.561  0.2256  0.1860 -0.1279
  103OSM    H3F10488   4.216   4.110  10.599 -1.7345 -0.2086  1.9952
  103OSM    H3G10489   4.235   4.282  10.563  0.6290 -0.1559  2.3614
  103OSM    C4F10490   4.119   4.174  10.419  0.5231 -0.5302 -0.8842
  103OSM    H4F10491   4.041   4.095  10.422  0.5964 -0.6083  2.6980
  103OSM    H4G10492   4.208   4.136  10.365  0.4140  0.2564 -1.6409
  103OSM    C5F10493   4.060   4.302  10.363 -0.1645  0.1039  0.4307
  103OSM    H5F10494   4.143   4.375  10.352  0.9020 -0.8460  1.7871
  103OSM    H5G10495   3.991   4.352  10.435  1.1340  0.9783  1.1138
  103OSM    C6F10496   3.986   4.270  10.234  0.0204  0.6632  0.5995
  103OSM    H6F10497   3.936   4.360  10.192 -1.6061 -1.1108 -1.5182
  103OSM    H6G10498   3.912   4.188  10.252  0.7891 -0.5091 -1.2952
  103OSM    C7F10499   4.086   4.220  10.127 -0.0084 -0.0603  0.0384
  103OSM    H7F10500   4.089   4.112  10.103  1.2242  0.0456 -0.3487
  103OSM    H7G10501   4.187   4.243  10.167  0.2770  0.0812 -0.7514
  103OSM    C8F10502   4.071   4.290   9.991  0.0361  0.2129 -0.0250
  103OSM    H8F10503   4.158   4.266   9.926  0.9041 -0.7219  1.4301
  103OSM    H8G10504   4.071   4.401  10.005 -2.3502  0.1493  1.0230
  103OSM    C9F10505   3.945   4.266   9.912 -0.6388  0.0405  0.4131
  103OSM    H9F10506   3.857   4.281   9.976 -0.2059  2.5802  0.5449
  103OSM   C10F10507   3.918   4.229   9.784  0.2819 -0.4548  0.3904
  103OSM   H10F10508   3.814   4.219   9.750  0.5913 -0.2485 -0.6589
  103OSM   C11F10509   4.024   4.206   9.673  0.5096  0.2156 -0.2004
  103OSM   H11F10510   4.026   4.099   9.643  1.0902  0.6631 -1.8609
  103OSM   H11G10511   4.126   4.238   9.704  0.4457  2.0709 -1.6748
  103OSM   C12F10512   4.000   4.287   9.544 -0.8642  0.4784  0.1114
  103OSM   H12F10513   4.024   4.392   9.570 -1.5621  0.5509  0.5170
  103OSM   H12G10514   3.896   4.280   9.505 -0.0559  0.8950 -2.2892
  103OSM   C13F10515   4.104   4.250   9.436  0.1622  0.6552  0.3239
  103OSM   H13F10516   4.203   4.290   9.466  0.6169  0.0355 -0.3128
  103OSM   H13G10517   4.124   4.141   9.421 -3.5679 -0.3242  1.3726
  103OSM   C14F10518   4.073   4.318   9.297 -0.9813 -0.3754 -1.2125
  103OSM   H14F10519   4.024   4.416   9.314 -0.0082 -0.4308  3.4230
  103OSM   H14G10520   4.004   4.249   9.244 -0.2721 -0.4753 -2.0192
  103OSM   C15F10521   4.190   4.330   9.205 -0.0207 -0.0123 -0.1652
  103OSM   H15F10522   4.249   4.240   9.233 -2.5806 -1.4967  0.8667
  103OSM   H15G10523   4.255   4.416   9.230  1.8718 -1.0116 -1.4312
  103OSM   C16F10524   4.152   4.333   9.065  0.2660 -0.3458 -0.8216
  103OSM   H16F10525   4.077   4.412   9.045  1.5965  1.0227 -0.6038
  103OSM   H16G10526   4.110   4.234   9.038 -0.2642  0.0115 -1.3430
  103OSM   C17F10527   4.269   4.376   8.968  0.0593 -0.0549  0.3196
  103OSM   H17F10528   4.292   4.483   8.990 -0.1835  0.7072 -2.6746
  103OSM   H17G10529   4.231   4.374   8.864  1.6869 -1.1185 -0.2854
  103OSM   C18F10530   4.391   4.288   8.974 -0.1352 -0.1603  0.4679
  103OSM   H18F10531   4.415   4.277   9.082  0.2991  2.0149  0.6476
  103OSM   H18G10532   4.477   4.339   8.927 -2.0481  1.1990 -1.7778
  103OSM   H18H10533   4.376   4.191   8.923 -1.4356 -1.1632  2.6288
  104OSM      N10534   1.600   4.452  11.102  0.5565 -0.4719  0.9411
  104OSM    C1510535   1.594   4.313  11.152  0.0615  0.0258  0.3103
  104OSM   H15A10536   1.669   4.253  11.103  1.2018  2.1370 -0.6500
  104OSM   H15B10537   1.497   4.268  11.136 -0.1223  0.4915  0.1014
  104OSM   H15C10538   1.605   4.313  11.260  1.8560  1.1623  0.1692
  104OSM    C1410539   1.483   4.522  11.161  0.3820  0.0683 -0.4971
  104OSM   H14A10540   1.471   4.628  11.146  0.6430  0.2126  0.2497
  104OSM   H14B10541   1.491   4.513  11.269  1.5028  3.5631 -0.1704
  104OSM   H14C10542   1.394   4.468  11.134 -1.4306  1.7091  1.7528
  104OSM    C1310543   1.726   4.509  11.157  0.3745  0.2167  0.0834
  104OSM   H13A10544   1.738   4.599  11.099 -0.8645  0.1018 -0.4009
  104OSM   H13B10545   1.807   4.440  11.139  0.2838  0.7320 -2.8752
  104OSM   H13C10546   1.722   4.547  11.258 -0.8914  0.1356  0.0885
  104OSM    C1210547   1.591   4.452  10.951 -0.0249  0.1578 -0.0040
  104OSM   H12A10548   1.523   4.374  10.920  0.0296 -0.0327  0.3502
  104OSM   H12B10549   1.688   4.435  10.906 -0.0916  2.3247 -1.1239
  104OSM    C1110550   1.540   4.584  10.883 -0.1183 -0.3861  0.8280
  104OSM   H11A10551   1.437   4.618  10.910  0.0298  1.2313 -0.4695
  104OSM   H11B10552   1.546   4.570  10.773  1.0019  1.5417  0.6085
  104OSM      P10553   1.766   4.719  10.851  0.3813 -0.0059 -0.6473
  104OSM    O1310554   1.844   4.827  10.924  0.3462 -0.0018 -0.2609
  104OSM    O1410555   1.832   4.585  10.831  0.4939  0.2815 -0.7288
  104OSM    O1110556   1.718   4.778  10.716  0.4380 -0.0034  0.4244
  104OSM    O1210557   1.631   4.692  10.926  0.4011 -0.0373  0.0413
  104OSM    C1S10558   1.637   4.892  10.709 -0.1859  0.2798  0.2229
  104OSM    H1S10559   1.684   4.982  10.756 -0.3577 -0.5037  1.9552
  104OSM    H1T10560   1.546   4.860  10.763  1.5532 -0.7308  2.7513
  104OSM     NF10561   1.511   5.046  10.553 -0.0496  0.1947  0.3871
  104OSM    HNF10562   1.414   5.035  10.532 -0.1291 -1.0279  1.2875
  104OSM    C2S10563   1.583   4.914  10.565 -0.9225 -0.2222  0.1073
  104OSM    H2S10564   1.673   4.928  10.501 -1.9513 -1.1800 -1.6165
  104OSM    C3S10565   1.494   4.786  10.524  0.2431 -0.5002  0.0734
  104OSM    H3S10566   1.403   4.795  10.587  0.8588  0.7373  0.8334
  104OSM     O310567   1.541   4.658  10.559  0.2126 -0.0416 -0.3043
  104OSM    HO310568   1.625   4.673  10.603 -0.9527  1.1794  1.6578
  104OSM    C4S10569   1.447   4.806  10.381  0.0393  0.0367 -0.6023
  104OSM    H4S10570   1.365   4.878  10.372  0.3719  0.5804  0.4878
  104OSM    C5S10571   1.484   4.725  10.271 -0.2534  0.0464 -0.7262
  104OSM    H5S10572   1.547   4.635  10.280  0.3214  0.5357  0.3168
  104OSM    C6S10573   1.433   4.754  10.136 -0.1636  0.0655  0.1619
  104OSM    H6S10574   1.369   4.844  10.139  0.6223  0.6395 -0.0051
  104OSM    H6T10575   1.368   4.670  10.102 -1.6296  1.4317 -0.5116
  104OSM    C7S10576   1.547   4.763  10.038  0.2932 -1.0348 -0.5642
  104OSM    H7S10577   1.610   4.672  10.050  0.7527 -0.3997  2.6612
  104OSM    H7T10578   1.608   4.849  10.072 -1.9945  0.8246 -0.9307
  104OSM    C8S10579   1.510   4.799   9.890  0.2437  0.3283  0.0570
  104OSM    H8S10580   1.446   4.890   9.881  0.0679  0.0997 -1.2746
  104OSM    H8T10581   1.469   4.710   9.837 -0.9746  1.5950 -1.2377
  104OSM    C9S10582   1.647   4.832   9.826  0.8025  0.7715 -0.6698
  104OSM    H9S10583   1.697   4.733   9.817  0.7152  0.4190  1.9520
  104OSM    H9T10584   1.698   4.901   9.896  2.3309  0.0349 -1.0047
  104OSM   C10S10585   1.616   4.889   9.692 -0.6254 -0.8621 -0.1064
  104OSM   H10S10586   1.682   4.977   9.683 -0.5779 -0.8302  0.4740
  104OSM   H10T10587   1.516   4.938   9.698 -0.6556 -0.9450  0.0853
  104OSM   C11S10588   1.638   4.791   9.573  0.2167  0.7578 -0.2152
  104OSM   H11S10589   1.588   4.694   9.597  1.5348  0.0868 -0.0675
  104OSM   H11T10590   1.747   4.771   9.572 -0.0133 -0.6345  0.2598
  104OSM   C12S10591   1.605   4.864   9.441 -0.4547 -0.1910 -0.0297
  104OSM   H12S10592   1.672   4.952   9.434  0.1124 -0.4194  1.7876
  104OSM   H12T10593   1.501   4.902   9.436 -0.6763 -0.6821  0.6267
  104OSM   C13S10594   1.640   4.784   9.317 -0.4032  0.9474  0.7720
  104OSM   H13S10595   1.583   4.689   9.325 -0.0016  0.7322  1.1629
  104OSM   H13T10596   1.750   4.766   9.311 -0.7096 -0.5113 -2.7781
  104OSM   C14S10597   1.600   4.837   9.182  0.6686  0.0579  0.5169
  104OSM   H14S10598   1.492   4.816   9.166  0.9109 -1.8907  1.1758
  104OSM   H14T10599   1.661   4.788   9.103  1.7585  0.8557  0.8360
  104OSM   C15S10600   1.621   4.991   9.167 -0.1123 -0.6641  0.1779
  104OSM   H15S10601   1.707   5.020   9.230 -1.7563  0.3651  2.0642
  104OSM   H15T10602   1.530   5.047   9.198  1.0042 -0.2325  2.9349
  104OSM   C16S10603   1.657   5.022   9.022  0.1566  0.4512  0.2913
  104OSM   H16S10604   1.581   4.986   8.950  2.1211 -5.0929  0.5140
  104OSM   H16T10605   1.748   4.960   9.003 -1.0373 -1.7764  1.5239
  104OSM   C17S10606   1.682   5.171   9.004 -0.3601  0.2733 -0.3800
  104OSM   H17S10607   1.758   5.207   9.076  0.0770  1.1589 -1.2600
  104OSM   H17T10608   1.589   5.225   9.033  0.4283  1.9890 -0.8852
  104OSM   C18S10609   1.721   5.212   8.860  0.3567 -0.0684  1.2472
  104OSM   H18S10610   1.826   5.191   8.833  0.7975  0.9772  2.0818
  104OSM   H18T10611   1.714   5.323   8.860 -0.9074 -0.1319  0.9078
  104OSM   H18U10612   1.644   5.159   8.799 -0.4351  0.9193  1.3534
  104OSM    C1F10613   1.569   5.165  10.544 -0.0442  0.2096 -0.6620
  104OSM     OF10614   1.685   5.182  10.566 -0.4426  0.2656 -0.1466
  104OSM    C2F10615   1.480   5.273  10.505  0.8419 -0.6311  0.2476
  104OSM    H2F10616   1.484   5.356  10.579 -1.2083 -0.7033  0.4884
  104OSM    H2G10617   1.373   5.245  10.500  0.9269 -2.6327  4.8595
  104OSM    C3F10618   1.525   5.324  10.362 -0.1795 -0.2638  0.3537
  104OSM    H3F10619   1.631   5.359  10.364 -0.0039 -0.7186 -0.5688
  104OSM    H3G10620   1.462   5.413  10.344  0.0275 -0.3482 -0.8501
  104OSM    C4F10621   1.501   5.228  10.242  0.0038  0.0318  0.4207
  104OSM    H4F10622   1.392   5.220  10.226 -0.1782  0.2506  1.5009
  104OSM    H4G10623   1.534   5.124  10.261  1.3411  0.3723  0.0796
  104OSM    C5F10624   1.561   5.297  10.109 -0.8164  0.7097  0.7413
  104OSM    H5F10625   1.672   5.294  10.116 -0.8876  0.2465  2.1029
  104OSM    H5G10626   1.527   5.402  10.101 -1.8429  0.2606 -1.7045
  104OSM    C6F10627   1.515   5.219   9.978  0.2540  0.4801 -0.0961
  104OSM    H6F10628   1.566   5.121   9.988  2.3997  1.5859  0.4204
  104OSM    H6G10629   1.554   5.271   9.888  1.7976  0.1822  0.3623
  104OSM    C7F10630   1.361   5.188   9.962 -0.4186  0.2977 -0.3915
  104OSM    H7F10631   1.329   5.099  10.021 -0.5850  1.4102  1.2693
  104OSM    H7G10632   1.342   5.161   9.856  0.1370 -0.3965 -0.3199
  104OSM    C8F10633   1.266   5.302   9.997  0.4032  0.0478  0.1651
  104OSM    H8F10634   1.307   5.388   9.940  1.6158 -1.6934 -1.6782
  104OSM    H8G10635   1.281   5.324  10.105 -0.5394 -0.8825  0.5007
  104OSM    C9F10636   1.119   5.266   9.971  0.8098 -0.3727  0.3723
  104OSM    H9F10637   1.069   5.237  10.065  0.3443  0.5088  0.4031
  104OSM   C10F10638   1.059   5.250   9.854  0.3303  0.1613 -0.0554
  104OSM   H10F10639   0.956   5.215   9.863  0.9572 -1.4793  1.2639
  104OSM   C11F10640   1.103   5.273   9.718 -0.0312  0.3887 -0.0677
  104OSM   H11F10641   1.214   5.276   9.726  0.0687 -0.6696 -0.8889
  104OSM   H11G10642   1.072   5.374   9.684  0.2032  1.5893  2.9948
  104OSM   C12F10643   1.043   5.159   9.631 -0.0086 -0.2169 -0.2417
  104OSM   H12F10644   0.937   5.156   9.664  0.3353  0.0058  0.9409
  104OSM   H12G10645   1.085   5.060   9.659 -2.2344 -1.1774 -0.1400
  104OSM   C13F10646   1.057   5.174   9.478  0.5073 -0.5082 -0.5161
  104OSM   H13F10647   1.003   5.265   9.446 -1.0688 -1.6627 -1.2867
  104OSM   H13G10648   1.012   5.094   9.415  0.2706  0.9439 -2.2742
  104OSM   C14F10649   1.205   5.179   9.438  0.7264 -0.1263  0.4360
  104OSM   H14F10650   1.263   5.092   9.473  2.6873  0.7585 -0.4704
  104OSM   H14G10651   1.260   5.263   9.486  4.3523 -2.6619  1.0648
  104OSM   C15F10652   1.220   5.184   9.282  0.6168  0.1516 -0.1321
  104OSM   H15F10653   1.311   5.241   9.252  0.6420  1.5327  2.2984
  104OSM   H15G10654   1.129   5.236   9.245  0.8989 -0.1023 -1.2306
  104OSM   C16F10655   1.224   5.042   9.229  0.0285 -0.2701 -1.4248
  104OSM   H16F10656   1.146   4.983   9.282 -0.6375  2.6171  1.0755
  104OSM   H16G10657   1.315   4.991   9.268 -0.7783 -1.8900 -1.5509
  104OSM   C17F10658   1.217   5.042   9.074 -1.6073 -0.3026 -0.8735
  104OSM   H17F10659   1.270   4.953   9.034 -0.6899  0.6288 -1.7843
  104OSM   H17G10660   1.277   5.130   9.044  0.6214 -1.1373  0.8869
  104OSM   C18F10661   1.088   5.040   9.001  0.4083 -0.1917 -0.0997
  104OSM   H18F10662   1.048   5.142   8.985 -1.4864 -0.6918  1.1453
  104OSM   H18G10663   1.019   4.984   9.068 -1.3463  2.3223  0.3402
  104OSM   H18H10664   1.105   4.982   8.908  2.2294 -0.9435  0.6379
  105OSM      N10665   1.503   5.001  11.115 -0.2328  0.2159  0.2623
  105OSM    C1510666   1.416   5.060  11.218 -0.7088  0.5326 -0.7124
  105OSM   H15A10667   1.380   4.982  11.284 -0.2772 -0.5484 -1.7145
  105OSM   H15B10668   1.324   5.100  11.180 -1.6405 -1.0506 -0.2052
  105OSM   H15C10669   1.463   5.143  11.267  0.0063  0.4880 -1.2963
  105OSM    C1410670   1.573   5.113  11.036  0.0871  0.1641 -0.3719
  105OSM   H14A10671   1.600   5.195  11.100 -2.1528  0.8734 -0.2476
  105OSM   H14B10672   1.494   5.143  10.969  0.7124  0.5691 -0.9376
  105OSM   H14C10673   1.650   5.081  10.968 -1.3029 -0.4591 -1.7278
  105OSM    C1310674   1.617   4.928  11.181 -0.1971  0.3571 -0.4780
  105OSM   H13A10675   1.579   4.851  11.247 -1.0132  2.0041  1.0583
  105OSM   H13B10676   1.671   4.991  11.250 -0.6659  0.9512 -0.6520
  105OSM   H13C10677   1.689   4.885  11.113 -0.0906  0.7263 -0.6010
  105OSM    C1210678   1.425   4.903  11.027  0.1250  0.3906  0.0316
  105OSM   H12A10679   1.361   4.844  11.091 -1.4346  2.3514  0.3892
  105OSM   H12B10680   1.501   4.836  10.989  0.1599 -0.8909  2.1510
  105OSM    C1110681   1.337   4.962  10.909  0.5614 -0.4304 -0.8847
  105OSM   H11A10682   1.277   4.886  10.854 -2.0281 -0.7196  2.0963
  105OSM   H11B10683   1.411   4.999  10.835 -0.0149  2.9571  0.0346
  105OSM      P10684   1.216   5.193  10.890  0.3256  0.2379  0.1330
  105OSM    O1310685   1.135   5.279  10.983  0.6364  0.3991 -0.5000
  105OSM    O1410686   1.345   5.245  10.842 -0.3366  0.1565  0.3709
  105OSM    O1110687   1.126   5.148  10.773 -0.3649  0.0503  0.0455
  105OSM    O1210688   1.247   5.055  10.959 -0.2022 -0.3152  0.1553
  105OSM    C1S10689   1.005   5.078  10.765  0.1352 -0.3920 -0.5280
  105OSM    H1S10690   0.925   5.153  10.783 -1.8421 -2.1464 -1.4884
  105OSM    H1T10691   1.008   5.002  10.846  2.2844 -1.7820 -1.7935
  105OSM     NF10692   0.860   4.946  10.612  0.2684 -0.4343 -0.9308
  105OSM    HNF10693   0.869   4.852  10.579  2.1001 -0.6653  0.0780
  105OSM    C2S10694   0.975   5.031  10.619 -0.3387  0.0511  0.2242
  105OSM    H2S10695   0.962   5.122  10.557 -1.5869 -0.7249 -0.7016
  105OSM    C3S10696   1.101   4.958  10.555 -0.4569  0.4038  0.0103
  105OSM    H3S10697   1.115   4.861  10.607  0.0657 -0.1174 -1.0603
  105OSM     O310698   1.231   5.022  10.569  0.7591  0.9245 -0.3945
  105OSM    HO310699   1.216   5.064  10.654  1.0745 -0.1981  0.2420
  105OSM    C4S10700   1.082   4.922  10.409  0.0597 -0.6991 -0.4810
  105OSM    H4S10701   1.018   4.834  10.394  0.4150 -0.9991 -0.2426
  105OSM    C5S10702   1.101   5.002  10.296  0.9250 -0.6603 -0.7907
  105OSM    H5S10703   1.130   5.106  10.315 -0.1511 -0.7811  1.9312
  105OSM    C6S10704   1.062   4.958  10.158  0.1939 -0.8077 -0.2912
  105OSM    H6S10705   1.151   4.948  10.092 -0.3678 -1.6905 -0.9451
  105OSM    H6T10706   0.985   5.028  10.120 -1.1983 -0.1619  3.3163
  105OSM    C7S10707   1.012   4.809  10.139  0.0497  0.5341 -0.5608
  105OSM    H7S10708   0.911   4.803  10.186  0.8224  0.2110  1.1504
  105OSM    H7T10709   1.080   4.737  10.190 -1.3466 -0.1722  0.3703
  105OSM    C8S10710   1.002   4.758   9.995 -0.3105 -0.0211  0.6000
  105OSM    H8S10711   0.926   4.820   9.942  0.9888  0.3092 -0.9714
  105OSM    H8T10712   0.967   4.652   9.996  0.1533 -0.2336 -1.3963
  105OSM    C9S10713   1.119   4.773   9.896 -0.3323 -0.0016  0.1884
  105OSM    H9S10714   1.206   4.721   9.940 -1.4449 -1.9845  0.1846
  105OSM    H9T10715   1.143   4.880   9.878  0.2826 -0.0382  0.7449
  105OSM   C10S10716   1.090   4.714   9.759  0.0959  0.4764 -0.3056
  105OSM   H10S10717   1.015   4.781   9.713 -1.0968 -0.5329  0.1052
  105OSM   H10T10718   1.051   4.610   9.756  2.2006 -0.3949  0.3557
  105OSM   C11S10719   1.219   4.717   9.666  0.6021  0.0356 -0.2896
  105OSM   H11S10720   1.290   4.655   9.724 -0.8756  0.2874  1.9304
  105OSM   H11T10721   1.271   4.815   9.664  2.3092 -0.7447  2.0136
  105OSM   C12S10722   1.175   4.664   9.526  0.1031  0.3874 -0.2737
  105OSM   H12S10723   1.104   4.737   9.482 -1.1902  0.6192  2.0314
  105OSM   H12T10724   1.132   4.563   9.543  3.0526 -1.3481 -2.2495
  105OSM   C13S10725   1.296   4.638   9.445 -0.2859 -0.5467 -0.6305
  105OSM   H13S10726   1.360   4.579   9.514 -0.2301 -0.6323 -0.7545
  105OSM   H13T10727   1.356   4.731   9.438  1.1633 -1.2201  1.6967
  105OSM   C14S10728   1.261   4.581   9.305  0.4933  0.5104 -0.2602
  105OSM   H14S10729   1.204   4.485   9.307  0.4788  0.4810 -1.3466
  105OSM   H14T10730   1.346   4.545   9.244 -1.6894 -1.8481 -2.1388
  105OSM   C15S10731   1.179   4.676   9.214 -0.2258 -0.2509 -1.0300
  105OSM   H15S10732   1.231   4.771   9.188 -0.1386 -0.6343 -2.3329
  105OSM   H15T10733   1.084   4.695   9.268  0.8078 -2.9885  2.0833
  105OSM   C16S10734   1.125   4.610   9.086  0.7606  0.1730 -0.3161
  105OSM   H16S10735   1.042   4.674   9.050 -0.6952 -1.1542  0.6005
  105OSM   H16T10736   1.087   4.507   9.096 -1.5123  0.9955  0.1273
  105OSM   C17S10737   1.229   4.609   8.973 -0.1131 -0.1628  0.7151
  105OSM   H17S10738   1.307   4.541   9.014  1.3556  0.9651 -0.1199
  105OSM   H17T10739   1.276   4.709   8.965  2.6858 -1.2685  2.1069
  105OSM   C18S10740   1.181   4.559   8.829 -0.2906 -0.4617 -0.8500
  105OSM   H18S10741   1.163   4.449   8.832 -1.4427 -0.2835  0.0104
  105OSM   H18T10742   1.245   4.598   8.748 -3.5911  3.5560 -1.8845
  105OSM   H18U10743   1.089   4.613   8.800 -0.0716  0.8693  0.7881
  105OSM    C1F10744   0.736   5.000  10.631 -0.3095 -0.5195 -0.8260
  105OSM     OF10745   0.716   5.120  10.646  0.3246 -0.2488  0.5530
  105OSM    C2F10746   0.618   4.900  10.634  0.0815 -0.0465 -0.0408
  105OSM    H2F10747   0.534   4.948  10.689 -0.7566 -1.2242 -0.2672
  105OSM    H2G10748   0.642   4.802  10.679 -1.0134 -0.5790 -0.5976
  105OSM    C3F10749   0.535   4.869  10.502 -0.8493 -0.3271 -0.5903
  105OSM    H3F10750   0.498   4.963  10.457  0.5078 -0.3990 -1.9595
  105OSM    H3G10751   0.452   4.806  10.540  0.6237 -0.4814  2.7327
  105OSM    C4F10752   0.618   4.788  10.404 -0.3468 -0.8268  0.0194
  105OSM    H4F10753   0.651   4.692  10.450  0.3440 -1.2597 -1.3234
  105OSM    H4G10754   0.712   4.841  10.376 -0.7362 -0.8090 -1.3277
  105OSM    C5F10755   0.540   4.750  10.280  0.0471  0.2958 -0.1929
  105OSM    H5F10756   0.470   4.831  10.249  1.4653  1.5500 -0.2526
  105OSM    H5G10757   0.481   4.661  10.309  1.4733  0.1358  2.5121
  105OSM    C6F10758   0.632   4.720  10.158  0.6481  0.7126 -1.3239
  105OSM    H6F10759   0.685   4.625  10.179  1.0638  0.8767 -1.6210
  105OSM    H6G10760   0.713   4.793  10.138  1.1840  1.1539  1.8373
  105OSM    C7F10761   0.548   4.671  10.034  0.4378 -0.1621  0.2357
  105OSM    H7F10762   0.475   4.750  10.009 -1.3692 -0.8045  2.9750
  105OSM    H7G10763   0.479   4.593  10.074  0.0427 -0.8971 -1.7870
  105OSM    C8F10764   0.618   4.627   9.909  0.3505 -0.0657  0.3010
  105OSM    H8F10765   0.685   4.709   9.874  0.6396 -0.0128  0.9670
  105OSM    H8G10766   0.533   4.615   9.839 -0.6562 -0.4354  1.5551
  105OSM    C9F10767   0.701   4.495   9.909  0.3408 -0.7798  0.2926
  105OSM    H9F10768   0.709   4.443  10.005 -0.2216 -0.7396  0.3636
  105OSM   C10F10769   0.731   4.432   9.798 -0.3823  0.1693  0.0491
  105OSM   H10F10770   0.797   4.344   9.806 -1.6701 -0.8181 -0.0048
  105OSM   C11F10771   0.704   4.467   9.655 -0.0079 -0.0584  0.3737
  105OSM   H11F10772   0.699   4.576   9.632 -0.7702 -0.4754 -1.6973
  105OSM   H11G10773   0.608   4.420   9.625  0.3484 -0.0471 -0.8817
  105OSM   C12F10774   0.814   4.412   9.559 -0.0865  0.2247  0.0699
  105OSM   H12F10775   0.816   4.301   9.563  2.4450  0.0512 -2.6231
  105OSM   H12G10776   0.910   4.462   9.582  0.2530  0.8494 -2.4432
  105OSM   C13F10777   0.779   4.442   9.414 -0.3956  0.2531  0.1200
  105OSM   H13F10778   0.801   4.550   9.400 -0.3086  0.3221  0.7823
  105OSM   H13G10779   0.671   4.418   9.402  0.0149 -1.5392 -0.2629
  105OSM   C14F10780   0.861   4.363   9.312 -0.3889  0.3597  0.7619
  105OSM   H14F10781   0.862   4.261   9.356 -0.6852  0.3748  0.8051
  105OSM   H14G10782   0.968   4.391   9.302 -0.3562  0.0909  0.3546
  105OSM   C15F10783   0.791   4.362   9.172 -0.7382 -0.1458  0.2638
  105OSM   H15F10784   0.796   4.465   9.130 -1.9651  0.4524  1.5309
  105OSM   H15G10785   0.686   4.328   9.173 -0.4671 -1.5702 -3.4168
  105OSM   C16F10786   0.875   4.275   9.074  0.0778 -0.4243 -0.2435
  105OSM   H16F10787   0.880   4.177   9.126 -0.2084  1.5473  3.9121
  105OSM   H16G10788   0.975   4.320   9.057 -0.4141  0.6143 -0.4814
  105OSM   C17F10789   0.804   4.267   8.943 -0.0174  0.4031 -0.1410
  105OSM   H17F10790   0.818   4.367   8.897  0.3988 -0.6541 -2.4730
  105OSM   H17G10791   0.697   4.239   8.955  0.2056  0.1592  1.4554
  105OSM   C18F10792   0.863   4.165   8.845 -0.1686 -0.6149 -0.3473
  105OSM   H18F10793   0.967   4.199   8.827 -0.1622  0.7351  1.8818
  105OSM   H18G10794   0.809   4.169   8.747 -0.6141  0.7433 -0.0660
  105OSM   H18H10795   0.863   4.060   8.880  1.9974 -0.1842  1.1225
  106OSM      N10796   2.490   1.945  10.813 -0.0394 -0.0320  0.6540
  106OSM    C1510797   2.612   1.941  10.908 -0.3514  0.1446 -0.0380
  106OSM   H15A10798   2.620   2.018  10.983  0.9319  0.7200 -0.7324
  106OSM   H15B10799   2.707   1.942  10.855  0.0760  1.1701  0.7273
  106OSM   H15C10800   2.618   1.842  10.952  1.9652  0.0101 -0.5119
  106OSM    C1410801   2.359   1.944  10.890  0.1548 -0.2783  0.9261
  106OSM   H14A10802   2.358   2.017  10.970 -0.6960 -0.7125  1.3183
  106OSM   H14B10803   2.345   1.846  10.932  0.0325 -0.0273  1.4850
  106OSM   H14C10804   2.276   1.968  10.825  0.6184 -1.9237 -0.3313
  106OSM    C1310805   2.497   2.073  10.751  0.2109  0.1980 -0.1381
  106OSM   H13A10806   2.482   2.155  10.819 -0.0188  0.5372 -0.5889
  106OSM   H13B10807   2.417   2.085  10.679 -3.1681 -0.9331  3.1099
  106OSM   H13C10808   2.592   2.085  10.700 -0.2541  0.5447 -0.9494
  106OSM    C1210809   2.487   1.823  10.722  0.2903  0.2768  0.0668
  106OSM   H12A10810   2.515   1.734  10.776  2.6902 -0.6375 -2.4205
  106OSM   H12B10811   2.565   1.837  10.647 -0.9738  0.6445 -1.2217
  106OSM    C1110812   2.359   1.788  10.637 -1.1082  0.2414  0.0518
  106OSM   H11A10813   2.388   1.721  10.553 -0.6570  0.6802 -0.1488
  106OSM   H11B10814   2.319   1.883  10.595  1.6819  1.9750  1.0225
  106OSM      P10815   2.272   1.584  10.771 -0.5167  0.4906 -0.0947
  106OSM    O1310816   2.389   1.571  10.863  0.4027 -0.0462  0.4418
  106OSM    O1410817   2.143   1.536  10.824  0.8561  0.0921  0.3062
  106OSM    O1110818   2.296   1.493  10.648  0.0058 -0.2307  0.7758
  106OSM    O1210819   2.259   1.726  10.711  0.1401  0.2833 -0.0713
  106OSM    C1S10820   2.214   1.483  10.529  0.2945  0.8069  0.0317
  106OSM    H1S10821   2.245   1.547  10.444 -0.6916 -1.2322 -1.9728
  106OSM    H1T10822   2.108   1.488  10.563  0.5231  1.5481  0.6613
  106OSM     NF10823   2.193   1.333  10.332 -0.1863  0.4562 -0.4772
  106OSM    HNF10824   2.099   1.302  10.318  0.4466 -1.6635 -0.4731
  106OSM    C2S10825   2.242   1.344  10.470  0.2237  0.4842 -0.1826
  106OSM    H2S10826   2.352   1.338  10.467  0.3038  1.9646 -1.4983
  106OSM    C3S10827   2.180   1.236  10.568  0.1770 -0.3287  0.8423
  106OSM    H3S10828   2.079   1.266  10.603 -0.7625  1.7447 -3.0835
  106OSM     O310829   2.259   1.228  10.685 -0.0594  0.1946  0.1496
  106OSM    HO310830   2.305   1.312  10.685  1.3288 -0.5077  1.6656
  106OSM    C4S10831   2.177   1.104  10.497  0.0914 -0.0152  0.3741
  106OSM    H4S10832   2.270   1.052  10.471  0.5328  0.9811 -0.1187
  106OSM    C5S10833   2.068   1.045  10.452  0.1838 -0.9763 -0.5413
  106OSM    H5S10834   1.976   1.103  10.464 -0.5642 -2.4683  1.4812
  106OSM    C6S10835   2.043   0.923  10.373 -0.3625  0.2131  0.0671
  106OSM    H6S10836   1.956   0.875  10.424 -1.1072  3.9076  2.7426
  106OSM    H6T10837   2.132   0.857  10.369 -1.2437 -0.9363 -1.7422
  106OSM    C7S10838   2.000   0.962  10.229 -0.2642 -0.0990 -0.2573
  106OSM    H7S10839   1.897   1.000  10.215 -0.8754 -1.0988  1.3306
  106OSM    H7T10840   1.990   0.863  10.179  2.8352 -0.8931  0.4227
  106OSM    C8S10841   2.110   1.032  10.154 -0.2844  0.5793  0.7445
  106OSM    H8S10842   2.193   0.959  10.146 -1.2331 -0.3992 -0.9757
  106OSM    H8T10843   2.132   1.130  10.201  3.6357 -0.7122  1.9702
  106OSM    C9S10844   2.059   1.079  10.014  0.2147  0.2173 -0.5987
  106OSM    H9S10845   2.143   1.140   9.976  0.6572 -1.1055 -1.8410
  106OSM    H9T10846   1.974   1.150  10.015 -0.8743 -1.0459 -0.0946
  106OSM   C10S10847   2.031   0.962   9.919  1.1916 -0.1694  0.1899
  106OSM   H10S10848   1.995   1.019   9.831 -1.4360 -0.2164  1.1387
  106OSM   H10T10849   1.944   0.908   9.964 -1.2640  3.4666  0.2305
  106OSM   C11S10850   2.154   0.882   9.879  0.3136 -0.1030  0.0343
  106OSM   H11S10851   2.181   0.815   9.963 -0.1573 -1.7753 -1.1037
  106OSM   H11T10852   2.239   0.951   9.863  1.0881 -0.6542  1.5595
  106OSM   C12S10853   2.131   0.794   9.755 -1.3055 -0.3030  0.3228
  106OSM   H12S10854   2.046   0.723   9.758 -0.2563 -1.6255  0.0681
  106OSM   H12T10855   2.226   0.736   9.749 -1.2416 -0.2327  0.6349
  106OSM   C13S10856   2.128   0.878   9.622 -0.2375  0.3011 -0.3064
  106OSM   H13S10857   2.195   0.966   9.638 -1.5782  1.1713  0.7105
  106OSM   H13T10858   2.023   0.907   9.604 -0.5308 -0.7303 -0.3176
  106OSM   C14S10859   2.182   0.811   9.490  0.6696  0.1113 -0.1020
  106OSM   H14S10860   2.096   0.790   9.422  0.3175  0.1305  0.3346
  106OSM   H14T10861   2.223   0.709   9.507 -0.3493 -0.3509 -0.2731
  106OSM   C15S10862   2.285   0.891   9.419 -0.5088 -0.4708 -0.1078
  106OSM   H15S10863   2.382   0.886   9.474  2.3493  3.4238 -4.1115
  106OSM   H15T10864   2.250   0.996   9.421  0.2939 -0.1739  2.8470
  106OSM   C16S10865   2.306   0.837   9.277 -0.6275 -0.4369  0.2711
  106OSM   H16S10866   2.210   0.851   9.223 -0.4731 -0.7391 -0.0851
  106OSM   H16T10867   2.315   0.726   9.274 -0.8993 -0.4976  1.1976
  106OSM   C17S10868   2.423   0.910   9.216  0.3974  0.6808 -0.3148
  106OSM   H17S10869   2.514   0.863   9.260 -1.3793 -1.5212  1.2405
  106OSM   H17T10870   2.411   1.015   9.249  0.7246  0.2267  1.3911
  106OSM   C18S10871   2.432   0.896   9.061 -0.5869  0.2581  0.2705
  106OSM   H18S10872   2.495   0.971   9.007  1.5232 -0.2586  1.9045
  106OSM   H18T10873   2.332   0.897   9.012 -0.5869  0.7667  0.2655
  106OSM   H18U10874   2.480   0.801   9.030 -2.9359 -1.0223  0.3767
  106OSM    C1F10875   2.262   1.386  10.230 -0.2789  0.7213  0.0249
  106OSM     OF10876   2.374   1.429  10.252 -0.3694  0.2448 -0.5629
  106OSM    C2F10877   2.199   1.400  10.092  1.1035 -0.0515 -0.5727
  106OSM    H2F10878   2.149   1.499  10.082  0.4780 -0.2839  0.1266
  106OSM    H2G10879   2.119   1.324  10.082 -1.6651  2.5056  0.3945
  106OSM    C3F10880   2.294   1.373   9.976  0.3231 -0.2072  0.2072
  106OSM    H3F10881   2.318   1.266   9.990  2.2327  0.1220 -0.2723
  106OSM    H3G10882   2.391   1.426   9.962  0.7367 -1.5267 -2.6399
  106OSM    C4F10883   2.223   1.386   9.841 -0.6791 -0.6082 -0.2415
  106OSM    H4F10884   2.203   1.493   9.818  1.1531 -0.3519 -0.8464
  106OSM    H4G10885   2.122   1.340   9.834 -0.6992 -0.5203 -0.5492
  106OSM    C5F10886   2.317   1.324   9.732  0.2777 -0.1807 -0.7951
  106OSM    H5F10887   2.350   1.228   9.777  1.5294  0.9242  0.7633
  106OSM    H5G10888   2.404   1.391   9.714 -0.4526  0.2875 -2.9231
  106OSM    C6F10889   2.245   1.293   9.601  0.6226  0.0828 -0.0667
  106OSM    H6F10890   2.138   1.272   9.622  0.4512 -0.0932 -1.0690
  106OSM    H6G10891   2.288   1.197   9.566 -0.6876 -0.5462 -0.0327
  106OSM    C7F10892   2.262   1.411   9.508  0.3006  0.2854 -0.0782
  106OSM    H7F10893   2.243   1.505   9.563 -0.6570 -0.1496  0.3600
  106OSM    H7G10894   2.182   1.392   9.432 -0.7810 -1.2952  1.3667
  106OSM    C8F10895   2.401   1.430   9.444  0.2807  0.3333  0.2163
  106OSM    H8F10896   2.477   1.435   9.524 -1.3779  1.0511  1.8176
  106OSM    H8G10897   2.412   1.531   9.401  0.0084  0.3080  0.0831
  106OSM    C9F10898   2.425   1.322   9.346  0.3209 -0.1921 -0.3502
  106OSM    H9F10899   2.449   1.225   9.392  1.9459  0.4138  0.1781
  106OSM   C10F10900   2.426   1.339   9.210  0.0419  0.2263 -0.5551
  106OSM   H10F10901   2.423   1.245   9.153 -1.9670 -0.5589  0.7277
  106OSM   C11F10902   2.394   1.464   9.129 -0.4024 -0.2873  0.3085
  106OSM   H11F10903   2.415   1.547   9.201  1.7282 -2.7592  2.7442
  106OSM   H11G10904   2.288   1.459   9.097 -1.1843 -0.4193  2.7067
  106OSM   C12F10905   2.499   1.492   9.022 -0.0601 -0.0885  0.1200
  106OSM   H12F10906   2.602   1.496   9.063  0.8457 -2.5679 -1.6311
  106OSM   H12G10907   2.473   1.589   8.974 -1.2084  0.1765  1.2407
  106OSM   C13F10908   2.513   1.390   8.904  0.2685 -0.2240 -0.3401
  106OSM   H13F10909   2.419   1.400   8.846 -0.6881  0.8037  1.3006
  106OSM   H13G10910   2.512   1.291   8.953  1.6830 -0.3887 -0.5918
  106OSM   C14F10911   2.637   1.409   8.816  0.0833  0.2181 -0.6480
  106OSM   H14F10912   2.670   1.306   8.788 -1.9222 -0.3438 -1.1236
  106OSM   H14G10913   2.705   1.462   8.885  2.1778 -0.5449 -2.0424
  106OSM   C15F10914   2.593   1.483   8.691 -0.1117  0.4800  0.0557
  106OSM   H15F10915   2.549   1.575   8.734  0.3225  1.8538 -2.2408
  106OSM   H15G10916   2.514   1.432   8.632  1.7160 -0.9063 -1.3418
  106OSM   C16F10917   2.706   1.502   8.581  0.1031 -0.1475 -0.2482
  106OSM   H16F10918   2.797   1.529   8.639 -0.5823  0.8539  0.4214
  106OSM   H16G10919   2.668   1.587   8.520 -1.7514 -0.2459  0.6885
  106OSM   C17F10920   2.724   1.373   8.501  0.0952 -0.1302 -0.1277
  106OSM   H17F10921   2.630   1.352   8.446  0.5470 -0.6280 -0.7139
  106OSM   H17G10922   2.755   1.291   8.569 -2.6391 -0.7814  0.4439
  106OSM   C18F10923   2.833   1.383   8.393 -0.1409 -0.5464 -0.2474
  106OSM   H18F10924   2.933   1.403   8.437 -0.7965  0.2421  0.9347
  106OSM   H18G10925   2.810   1.474   8.334  2.9420 -0.1598 -1.0240
  106OSM   H18H10926   2.836   1.299   8.320  0.6503  0.5378 -1.5128
  107OSM      N10927   1.377   6.736  11.357 -0.7141  0.2801  0.6531
  107OSM    C1510928   1.507   6.670  11.403 -0.5460  0.1680 -0.4620
  107OSM   H15A10929   1.504   6.583  11.468  1.9914 -0.4760 -1.1000
  107OSM   H15B10930   1.572   6.747  11.441  0.8644  0.4343 -3.1709
  107OSM   H15C10931   1.568   6.632  11.323  1.8589 -0.1254  1.3930
  107OSM    C1410932   1.312   6.797  11.470 -0.6518  0.6287  0.1917
  107OSM   H14A10933   1.223   6.848  11.435 -1.4389  0.3444  1.7231
  107OSM   H14B10934   1.374   6.869  11.522  1.4835 -1.4201  0.6771
  107OSM   H14C10935   1.278   6.720  11.537 -0.5103  0.9223  0.6024
  107OSM    C1310936   1.411   6.846  11.262  0.3446 -0.0279  0.0184
  107OSM   H13A10937   1.429   6.937  11.317 -0.6022  1.1976 -1.5963
  107OSM   H13B10938   1.326   6.869  11.199  0.6464 -0.3937 -0.5279
  107OSM   H13C10939   1.494   6.824  11.196  1.1894  0.9817  0.7232
  107OSM    C1210940   1.292   6.628  11.302  0.5855 -0.1877 -0.7867
  107OSM   H12A10941   1.190   6.663  11.293  1.1769  1.4179 -1.6364
  107OSM   H12B10942   1.283   6.543  11.369 -3.0401 -0.2137 -1.1147
  107OSM    C1110943   1.322   6.587  11.151  0.3907  0.3428 -0.2402
  107OSM   H11A10944   1.294   6.680  11.096  0.1324 -0.2868 -1.1851
  107OSM   H11B10945   1.245   6.516  11.115  1.3193 -1.4302  1.1425
  107OSM      P10946   1.510   6.402  11.142 -0.0517  0.4929  0.2458
  107OSM    O1310947   1.621   6.395  11.238 -0.1706  0.1686  0.0814
  107OSM    O1410948   1.394   6.310  11.160 -0.2619 -0.1153 -0.0272
  107OSM    O1110949   1.569   6.364  11.003 -0.2459  0.3081 -0.1517
  107OSM    O1210950   1.457   6.545  11.118  0.5043 -0.0105 -0.1390
  107OSM    C1S10951   1.503   6.390  10.884  0.3830  0.6431  0.2613
  107OSM    H1S10952   1.461   6.493  10.877  0.4580  0.6337 -0.4508
  107OSM    H1T10953   1.415   6.322  10.875  2.0634 -1.7655  1.0835
  107OSM     NF10954   1.514   6.444  10.637 -0.0407 -0.0602 -0.0794
  107OSM    HNF10955   1.475   6.391  10.563  2.7702 -1.3984 -0.7209
  107OSM    C2S10956   1.587   6.370  10.753  0.5668  0.0866  0.0860
  107OSM    H2S10957   1.686   6.419  10.765  1.4234 -1.7978  1.1231
  107OSM    C3S10958   1.616   6.224  10.725  0.9281  0.0367  0.0995
  107OSM    H3S10959   1.520   6.168  10.726  1.3961 -0.7918  0.3704
  107OSM     O310960   1.685   6.150  10.828  0.7506 -0.1604  0.6503
  107OSM    HO310961   1.642   6.180  10.908 -0.8741  0.6985 -0.4911
  107OSM    C4S10962   1.686   6.213  10.593 -0.5438 -0.2098  0.3955
  107OSM    H4S10963   1.767   6.287  10.589  0.4565 -1.3030 -2.0398
  107OSM    C5S10964   1.672   6.118  10.498 -0.3723  0.2638  0.3856
  107OSM    H5S10965   1.604   6.032  10.506 -0.6424  0.2729 -1.3471
  107OSM    C6S10966   1.749   6.110  10.368 -0.3716 -0.0477 -0.2119
  107OSM    H6S10967   1.817   6.197  10.358 -0.3169 -0.0443  0.1712
  107OSM    H6T10968   1.687   6.107  10.276  0.3835 -0.4185 -0.7183
  107OSM    C7S10969   1.828   5.975  10.360  1.3171 -0.6591 -0.1799
  107OSM    H7S10970   1.757   5.889  10.362 -0.9825  1.0531 -2.1129
  107OSM    H7T10971   1.888   5.971  10.453 -0.9845  0.3304  1.4419
  107OSM    C8S10972   1.921   5.956  10.231  0.3647  0.4185  0.0519
  107OSM    H8S10973   1.967   5.857  10.251 -0.9913 -0.0058  1.1934
  107OSM    H8T10974   1.984   6.047  10.241  0.8141  0.1764 -0.5373
  107OSM    C9S10975   1.842   5.948  10.101  0.3843 -0.0728  0.6033
  107OSM    H9S10976   1.796   6.047  10.078  0.3232 -0.0290  0.9129
  107OSM    H9T10977   1.752   5.885  10.116 -1.1393  1.3748 -1.7059
  107OSM   C10S10978   1.927   5.892   9.988  0.2263 -0.3821 -1.0148
  107OSM   H10S10979   1.986   5.806  10.026  1.5034  1.7930  2.3976
  107OSM   H10T10980   1.994   5.977   9.963 -0.0916  0.6423  1.3664
  107OSM   C11S10981   1.852   5.863   9.855  0.4384 -0.4699 -0.0286
  107OSM   H11S10982   1.913   5.860   9.762 -0.0025 -0.3208 -0.3246
  107OSM   H11T10983   1.780   5.946   9.839  2.1710  1.3709  1.2148
  107OSM   C12S10984   1.782   5.729   9.860  0.3401 -0.0444  0.1787
  107OSM   H12S10985   1.687   5.747   9.914  1.5872  1.6536  1.9422
  107OSM   H12T10986   1.840   5.656   9.920 -1.1853 -2.2718 -0.9065
  107OSM   C13S10987   1.763   5.664   9.729  0.1134  0.1488 -0.4119
  107OSM   H13S10988   1.862   5.638   9.684 -0.2290 -1.1195 -0.4701
  107OSM   H13T10989   1.714   5.734   9.658  1.1235  2.3351  0.9570
  107OSM   C14S10990   1.698   5.522   9.730  0.2052  0.5975  0.4740
  107OSM   H14S10991   1.592   5.528   9.763  0.2799  1.3592  0.5765
  107OSM   H14T10992   1.753   5.443   9.787 -0.9059 -1.1575 -0.7674
  107OSM   C15S10993   1.698   5.462   9.585  1.2520 -0.3329 -0.1599
  107OSM   H15S10994   1.800   5.428   9.556  1.7523  0.9002  0.0911
  107OSM   H15T10995   1.679   5.550   9.520  0.4407 -0.2984  0.1189
  107OSM   C16S10996   1.600   5.343   9.586  0.2826 -0.5753  0.4488
  107OSM   H16S10997   1.496   5.380   9.590  0.5072  0.2332 -0.6270
  107OSM   H16T10998   1.616   5.277   9.673 -3.2121 -0.8847  0.9776
  107OSM   C17S10999   1.602   5.250   9.464 -0.5548 -0.0381 -0.2296
  107OSM   H17S11000   1.519   5.176   9.469  0.4551 -1.1315  0.7317
  107OSM   H17T11001   1.697   5.195   9.448 -1.0945 -1.6616  1.7543
  107OSM   C18S11002   1.583   5.326   9.330  0.2046  0.2748 -0.3123
  107OSM   H18S11003   1.480   5.368   9.326 -0.4435 -1.1554  0.3205
  107OSM   H18T11004   1.602   5.243   9.259 -0.3590 -0.1391  0.0056
  107OSM   H18U11005   1.653   5.410   9.311 -0.7416  0.4144 -3.6911
  107OSM    C1F11006   1.504   6.576  10.633 -0.7859 -0.0102  0.2727
  107OSM     OF11007   1.546   6.651  10.721  0.3798 -0.2469  0.1757
  107OSM    C2F11008   1.446   6.638  10.514  0.2388  0.5351  0.2026
  107OSM    H2F11009   1.520   6.705  10.465  0.1984  1.1662  0.9833
  107OSM    H2G11010   1.374   6.714  10.551  0.1304 -0.2221  1.6171
  107OSM    C3F11011   1.386   6.544  10.410  0.2605  0.8863 -0.4472
  107OSM    H3F11012   1.336   6.616  10.341 -0.5257  1.3697  0.6005
  107OSM    H3G11013   1.295   6.495  10.451  0.2797  0.7092 -0.6168
  107OSM    C4F11014   1.485   6.463  10.324  0.2390  0.3753  0.2692
  107OSM    H4F11015   1.484   6.357  10.358  2.4952 -0.1230 -0.9848
  107OSM    H4G11016   1.586   6.509  10.329  0.3466  0.4340 -1.6680
  107OSM    C5F11017   1.448   6.450  10.175  0.1535 -0.1623  1.0717
  107OSM    H5F11018   1.540   6.431  10.115  0.5598  2.3283  0.8056
  107OSM    H5G11019   1.400   6.544  10.140 -2.3245 -1.5944  0.4401
  107OSM    C6F11020   1.348   6.330  10.147 -0.0601 -0.5164 -0.2579
  107OSM    H6F11021   1.261   6.350  10.212  0.0157  1.1298 -0.6044
  107OSM    H6G11022   1.389   6.237  10.190  0.5528  0.3801  1.1639
  107OSM    C7F11023   1.318   6.317   9.991  1.3063  0.2010  0.0119
  107OSM    H7F11024   1.380   6.382   9.925  0.4649  1.3701  0.3487
  107OSM    H7G11025   1.209   6.329   9.975  0.8836 -1.8804  1.0261
  107OSM    C8F11026   1.350   6.172   9.942  0.1818 -0.0010  0.5886
  107OSM    H8F11027   1.318   6.171   9.836 -0.6408  1.8018  0.7768
  107OSM    H8G11028   1.290   6.092   9.989 -0.0833 -1.0941 -1.5035
  107OSM    C9F11029   1.496   6.130   9.947 -0.0867  0.2954 -0.7375
  107OSM    H9F11030   1.522   6.080  10.042 -0.6887  1.7817  0.2408
  107OSM   C10F11031   1.592   6.151   9.855  0.9580 -0.3325 -0.2099
  107OSM   H10F11032   1.690   6.109   9.881  0.8958  0.2557  1.0282
  107OSM   C11F11033   1.581   6.215   9.721  0.8308 -0.0013  0.5854
  107OSM   H11F11034   1.650   6.302   9.727  0.4842  0.1930  1.9474
  107OSM   H11G11035   1.477   6.245   9.697  0.3894 -1.8789  0.0177
  107OSM   C12F11036   1.637   6.117   9.609  0.1388 -0.6495 -0.4261
  107OSM   H12F11037   1.586   6.023   9.638 -0.4144  0.2274  1.6180
  107OSM   H12G11038   1.746   6.103   9.626  0.3255  0.5347 -0.5837
  107OSM   C13F11039   1.602   6.154   9.469 -0.3980 -0.1809  0.8155
  107OSM   H13F11040   1.611   6.263   9.449 -2.6937  0.3185  2.2360
  107OSM   H13G11041   1.495   6.132   9.449 -0.3619  2.2878 -3.3280
  107OSM   C14F11042   1.679   6.074   9.366 -0.1651  0.4102 -0.4672
  107OSM   H14F11043   1.660   5.967   9.391 -0.2127  0.8114  1.3615
  107OSM   H14G11044   1.787   6.100   9.371  0.3623 -1.6955  0.0763
  107OSM   C15F11045   1.632   6.114   9.224  0.5678 -0.3123  0.7050
  107OSM   H15F11046   1.645   6.222   9.199 -0.9584 -0.5853 -1.6257
  107OSM   H15G11047   1.526   6.085   9.208  0.4235  0.5045  0.1034
  107OSM   C16F11048   1.720   6.037   9.120  0.0449 -0.0701  0.4526
  107OSM   H16F11049   1.669   5.939   9.107  1.9243 -1.1408  0.8493
  107OSM   H16G11050   1.825   6.026   9.155  1.0360  1.0540 -1.8916
  107OSM   C17F11051   1.727   6.105   8.981  0.5653  0.0252 -0.5314
  107OSM   H17F11052   1.771   6.207   8.979  0.3230  0.1603  0.6903
  107OSM   H17G11053   1.628   6.128   8.937 -0.4750 -1.9468  0.6517
  107OSM   C18F11054   1.797   6.008   8.892 -0.0949 -0.0843 -0.2104
  107OSM   H18F11055   1.772   6.042   8.790 -3.3153  1.4832  0.9432
  107OSM   H18G11056   1.751   5.907   8.904 -0.3490  0.0956  0.4150
  107OSM   H18H11057   1.905   5.999   8.914  0.0445  1.8171  0.0023
  108OSM      N11058   4.684   3.482  11.135 -0.3061 -0.2882  0.3655
  108OSM    C1511059   4.655   3.427  11.270  0.6183 -0.5072  1.3968
  108OSM   H15A11060   4.744   3.375  11.302  0.2951 -1.3091  1.0191
  108OSM   H15B11061   4.574   3.356  11.262 -1.3294  1.8110 -1.0924
  108OSM   H15C11062   4.625   3.495  11.349 -4.1198  0.3223 -0.7723
  108OSM    C1411063   4.556   3.531  11.078  0.1802 -0.1155  0.2664
  108OSM   H14A11064   4.503   3.586  11.154  0.1989  1.2490 -0.6846
  108OSM   H14B11065   4.503   3.453  11.026  0.3923  0.4563 -0.8319
  108OSM   H14C11066   4.571   3.602  10.998 -1.5413 -0.8974 -0.8203
  108OSM    C1311067   4.797   3.589  11.149 -0.2150 -0.1145 -0.0426
  108OSM   H13A11068   4.837   3.604  11.050  1.2419  0.2763  0.5832
  108OSM   H13B11069   4.873   3.541  11.208 -0.0672  2.4312  1.9835
  108OSM   H13C11070   4.753   3.671  11.203 -3.4426 -2.4305  1.2043
  108OSM    C1211071   4.732   3.361  11.052  0.0216 -0.3095  0.4374
  108OSM   H12A11072   4.663   3.278  11.048  2.0748 -2.0888 -0.1272
  108OSM   H12B11073   4.816   3.308  11.095  1.3205  0.7339 -0.6932
  108OSM    C1111074   4.761   3.386  10.907  0.6586  0.5044  0.0262
  108OSM   H11A11075   4.675   3.442  10.864  0.6603  0.0815 -0.5328
  108OSM   H11B11076   4.775   3.295  10.846  1.1372  0.8545 -0.4012
  108OSM      P11077   5.017   3.423  10.914  0.2255  0.1989  0.1506
  108OSM    O1311078   5.106   3.541  10.908 -0.1421  0.2939 -0.2416
  108OSM    O1411079   5.019   3.343  11.040  0.2160  0.0880  0.0871
  108OSM    O1111080   5.042   3.326  10.795  0.3086 -0.0889  0.1522
  108OSM    O1211081   4.872   3.473  10.888  0.0592  0.1648 -0.8335
  108OSM    C1S11082   5.053   3.372  10.661 -0.9422  0.3876 -0.2600
  108OSM    H1S11083   5.062   3.483  10.656 -0.1100  0.4336  1.5301
  108OSM    H1T11084   4.960   3.352  10.605 -0.8941  0.7876 -0.4874
  108OSM     NF11085   5.197   3.355  10.465  0.3046  0.5791 -0.3019
  108OSM    HNF11086   5.135   3.321  10.395 -1.5903  1.6586  0.7445
  108OSM    C2S11087   5.168   3.294  10.592 -0.1920  0.3247 -0.2346
  108OSM    H2S11088   5.257   3.307  10.657 -0.1034 -1.4192  0.0284
  108OSM    C3S11089   5.130   3.144  10.582  0.0028  0.2085 -0.3124
  108OSM    H3S11090   5.030   3.145  10.533 -1.6049  1.4987  2.7097
  108OSM     O311091   5.120   3.070  10.709 -0.4907 -0.6248 -0.2017
  108OSM    HO311092   5.088   3.140  10.767  1.7642 -1.2549  1.9688
  108OSM    C4S11093   5.231   3.081  10.493  0.4084  0.6363  0.2840
  108OSM    H4S11094   5.337   3.108  10.505  0.2745  0.5782  1.6853
  108OSM    C5S11095   5.205   2.987  10.398 -0.0745  0.2323  0.2767
  108OSM    H5S11096   5.106   2.940  10.399  1.1396 -2.6828 -1.7663
  108OSM    C6S11097   5.300   2.909  10.302 -0.4403  0.0113 -0.1697
  108OSM    H6S11098   5.246   2.897  10.205 -1.0613 -0.5275  0.2357
  108OSM    H6T11099   5.320   2.810  10.349  0.0458  0.8279  1.4084
  108OSM    C7S11100   5.429   2.991  10.277  0.0057  0.8484  0.1797
  108OSM    H7S11101   5.514   2.941  10.227 -0.6969  1.0442 -1.2799
  108OSM    H7T11102   5.469   3.027  10.374 -2.3887 -1.6539  2.2854
  108OSM    C8S11103   5.410   3.100  10.182 -0.3141  0.6427  0.4472
  108OSM    H8S11104   5.499   3.166  10.177 -0.4424  0.8342  0.6142
  108OSM    H8T11105   5.328   3.171  10.208  0.6694  2.1957 -0.5273
  108OSM    C9S11106   5.375   3.060  10.036 -0.3365 -0.0145 -0.0302
  108OSM    H9S11107   5.270   3.026  10.046 -0.8365  1.3905 -0.2145
  108OSM    H9T11108   5.444   2.975  10.014 -0.5290  0.3897 -2.4695
  108OSM   C10S11109   5.404   3.159   9.923  0.2181 -0.2221  0.1132
  108OSM   H10S11110   5.509   3.191   9.942  0.5764  0.0922 -2.0766
  108OSM   H10T11111   5.327   3.238   9.927  0.0696 -0.3201 -0.6554
  108OSM   C11S11112   5.398   3.094   9.785  0.2059 -0.2056 -0.3491
  108OSM   H11S11113   5.292   3.069   9.764 -0.2287 -1.9239  3.0441
  108OSM   H11T11114   5.451   2.996   9.778 -1.0012 -0.9536  0.5899
  108OSM   C12S11115   5.444   3.200   9.684 -0.0370 -0.1660 -0.6414
  108OSM   H12S11116   5.550   3.232   9.688  0.0690 -0.6156  0.4935
  108OSM   H12T11117   5.381   3.289   9.707  1.3588  0.7986 -0.3905
  108OSM   C13S11118   5.406   3.168   9.535  0.4604 -0.3440 -0.4584
  108OSM   H13S11119   5.295   3.157   9.532  0.1904  1.9162 -0.9060
  108OSM   H13T11120   5.465   3.078   9.508  1.5768 -0.4006  1.9676
  108OSM   C14S11121   5.451   3.291   9.446  0.2974 -0.1613 -0.4262
  108OSM   H14S11122   5.561   3.304   9.455  0.3142 -0.8106  0.4106
  108OSM   H14T11123   5.384   3.376   9.469  1.5040  0.5891  0.4241
  108OSM   C15S11124   5.419   3.263   9.304  0.5076 -0.0969 -0.7615
  108OSM   H15S11125   5.323   3.209   9.289  1.8345 -2.6654 -0.5852
  108OSM   H15T11126   5.490   3.190   9.261  0.6798  1.4532 -3.3281
  108OSM   C16S11127   5.433   3.385   9.212  0.0719  0.1716 -0.2062
  108OSM   H16S11128   5.536   3.424   9.228  1.5843 -3.3426 -0.2536
  108OSM   H16T11129   5.354   3.455   9.244 -0.0081  0.3128 -0.6959
  108OSM   C17S11130   5.391   3.356   9.070  0.6028 -0.1232 -0.7343
  108OSM   H17S11131   5.289   3.312   9.074  1.4607 -2.3883 -1.8476
  108OSM   H17T11132   5.455   3.272   9.034  0.1021 -0.8656  0.0816
  108OSM   C18S11133   5.404   3.475   8.984 -0.3168  0.0005  0.1892
  108OSM   H18S11134   5.509   3.488   8.953 -0.8606  2.0571 -0.9867
  108OSM   H18T11135   5.375   3.571   9.033  1.0640  0.5894 -0.0964
  108OSM   H18U11136   5.353   3.452   8.888 -0.5627  0.0717  0.2993
  108OSM    C1F11137   5.257   3.466  10.444  0.4350  0.5338 -0.2556
  108OSM     OF11138   5.316   3.513  10.539  1.1618 -0.0641  0.5960
  108OSM    C2F11139   5.255   3.508  10.305  1.0186 -0.3148  0.0332
  108OSM    H2F11140   5.184   3.594  10.294  0.5047 -0.3825  2.2273
  108OSM    H2G11141   5.221   3.424  10.241  1.3602 -0.0808 -0.4584
  108OSM    C3F11142   5.394   3.564  10.255  0.3778  0.2141  0.7941
  108OSM    H3F11143   5.466   3.491  10.297 -0.5005 -0.6178  0.9006
  108OSM    H3G11144   5.411   3.664  10.299 -1.3733  1.4627 -1.1916
  108OSM    C4F11145   5.398   3.585  10.107  0.0646 -0.3592  0.4892
  108OSM    H4F11146   5.389   3.495  10.042 -1.8630  1.6307 -2.2310
  108OSM    H4G11147   5.500   3.621  10.084  0.0454 -0.2228  0.6137
  108OSM    C5F11148   5.296   3.674  10.040  0.1783 -0.7787 -0.0241
  108OSM    H5F11149   5.307   3.771  10.093  0.1664 -1.0784  0.5396
  108OSM    H5G11150   5.191   3.638  10.044 -0.4292  0.9623  0.4354
  108OSM    C6F11151   5.335   3.714   9.895  0.3809  1.0318  0.1362
  108OSM    H6F11152   5.442   3.737   9.879  0.2102  0.8633 -1.4013
  108OSM    H6G11153   5.266   3.800   9.881 -1.4647 -0.4302 -0.2568
  108OSM    C7F11154   5.315   3.611   9.787 -0.4473  0.5477  1.5068
  108OSM    H7F11155   5.214   3.564   9.792 -0.5991  0.7641  0.6146
  108OSM    H7G11156   5.391   3.533   9.808 -0.3551  0.0000 -0.6359
  108OSM    C8F11157   5.347   3.662   9.643  0.1911  0.3542 -0.3549
  108OSM    H8F11158   5.350   3.572   9.579  0.4395  0.2394 -0.1800
  108OSM    H8G11159   5.451   3.702   9.649  1.0877 -1.4465 -2.6322
  108OSM    C9F11160   5.263   3.777   9.591 -0.0930 -0.1232 -0.7089
  108OSM    H9F11161   5.198   3.822   9.668  0.9379 -0.9114  0.6544
  108OSM   C10F11162   5.260   3.824   9.468  0.1014  0.4551  1.6101
  108OSM   H10F11163   5.194   3.904   9.431  0.9817  1.0765  1.3693
  108OSM   C11F11164   5.340   3.772   9.353  0.2640  0.2314  0.0607
  108OSM   H11F11165   5.286   3.703   9.286 -1.2677  0.6181  0.8640
  108OSM   H11G11166   5.436   3.720   9.376  0.1769  0.9023  2.1921
  108OSM   C12F11167   5.382   3.878   9.254  0.8767 -0.3256 -0.9758
  108OSM   H12F11168   5.435   3.963   9.303  2.4079 -0.3221 -2.5552
  108OSM   H12G11169   5.290   3.912   9.202 -0.5286 -1.3409  0.7391
  108OSM   C13F11170   5.469   3.833   9.142  0.1297 -0.1384 -0.6045
  108OSM   H13F11171   5.448   3.728   9.116 -0.0555 -0.3039  0.1797
  108OSM   H13G11172   5.575   3.833   9.176 -0.6895  0.1377  2.2189
  108OSM   C14F11173   5.469   3.930   9.023  0.8257 -0.1562 -0.1844
  108OSM   H14F11174   5.517   4.023   9.061 -1.3040  0.7569  0.4363
  108OSM   H14G11175   5.370   3.969   8.991  0.5523  1.4144  2.3343
  108OSM   C15F11176   5.536   3.871   8.904 -0.8629 -0.1360  0.4754
  108OSM   H15F11177   5.510   3.766   8.882  0.1470 -0.2634 -0.1344
  108OSM   H15G11178   5.644   3.858   8.923 -0.6199  1.7187  0.5798
  108OSM   C16F11179   5.537   3.956   8.779  0.0167 -0.2302  0.0566
  108OSM   H16F11180   5.571   4.059   8.803  3.7718 -1.5682  1.1452
  108OSM   H16G11181   5.433   3.954   8.741 -0.1193  0.6973  0.3443
  108OSM   C17F11182   5.624   3.897   8.669  0.1341 -0.2057  0.1633
  108OSM   H17F11183   5.585   3.794   8.653 -0.3220 -0.3326  1.9342
  108OSM   H17G11184   5.727   3.879   8.704  0.6143  1.2794 -0.4290
  108OSM   C18F11185   5.620   3.972   8.530 -0.3349 -0.1974 -0.1843
  108OSM   H18F11186   5.518   3.977   8.485 -1.2665 -2.4610  1.4987
  108OSM   H18G11187   5.669   3.916   8.447 -2.6455  0.1771 -1.9228
  108OSM   H18H11188   5.669   4.072   8.529  3.6162 -1.9397 -1.6540
  109OSM      N11189   6.047   4.205  11.043 -0.6200 -0.2023 -0.7374
  109OSM    C1511190   6.148   4.156  11.152  0.7275  0.1535  0.3424
  109OSM   H15A11191   6.181   4.058  11.122 -1.3032 -0.0751 -1.4631
  109OSM   H15B11192   6.096   4.136  11.245 -3.0819 -1.5781 -1.8912
  109OSM   H15C11193   6.235   4.218  11.165  2.5228 -2.1197 -0.2511
  109OSM    C1411194   6.118   4.220  10.913  0.2009 -0.2506  0.4623
  109OSM   H14A11195   6.036   4.241  10.846 -0.1958 -0.6597  0.8184
  109OSM   H14B11196   6.150   4.123  10.878 -0.9270 -0.3079 -0.4755
  109OSM   H14C11197   6.194   4.297  10.906 -0.7069  0.5566 -1.6708
  109OSM    C1311198   5.931   4.108  11.028  0.2701  0.6338  0.7538
  109OSM   H13A11199   5.897   4.059  11.118 -0.9126  0.0539  0.0140
  109OSM   H13B11200   5.971   4.030  10.965  1.6233  1.2730  0.7852
  109OSM   H13C11201   5.847   4.147  10.973  2.2304  0.3449 -2.7425
  109OSM    C1211202   5.984   4.337  11.092 -0.6178  0.2792 -0.1663
  109OSM   H12A11203   6.062   4.396  11.138  2.0460 -0.8439 -2.9191
  109OSM   H12B11204   5.922   4.308  11.176  1.1411  0.1700  1.1688
  109OSM    C1111205   5.905   4.424  10.989 -0.7208  0.5147 -0.6875
  109OSM   H11A11206   5.981   4.452  10.913 -0.7883  2.4952 -0.0947
  109OSM   H11B11207   5.868   4.509  11.051  0.8266  0.4014  0.4634
  109OSM      P11208   5.668   4.417  10.898  0.1741 -0.0828 -0.1109
  109OSM    O1311209   5.574   4.322  10.833 -0.2981  0.7285  0.4705
  109OSM    O1411210   5.612   4.480  11.019  0.3824 -0.0990 -0.1343
  109OSM    O1111211   5.703   4.521  10.780 -0.3997  0.0511  0.4779
  109OSM    O1211212   5.803   4.347  10.933  0.0863  0.3436  0.1057
  109OSM    C1S11213   5.768   4.492  10.654  0.0407 -0.2150 -0.5221
  109OSM    H1S11214   5.832   4.402  10.662 -0.3962 -0.4479  0.5864
  109OSM    H1T11215   5.841   4.575  10.636  0.1856 -0.4592 -1.0834
  109OSM     NF11216   5.752   4.475  10.404 -0.5016  0.3003  0.4786
  109OSM    HNF11217   5.747   4.553  10.342 -0.3386  1.4110  1.7932
  109OSM    C2S11218   5.674   4.487  10.528 -0.0324 -0.0506  0.1690
  109OSM    H2S11219   5.613   4.394  10.527  0.8778 -0.6579 -0.9281
  109OSM    C3S11220   5.579   4.610  10.537  0.0878  0.1189  0.5520
  109OSM    H3S11221   5.647   4.694  10.562 -0.8588  0.3276  2.6466
  109OSM     O311222   5.479   4.620  10.633  0.2424 -0.0142  0.1784
  109OSM    HO311223   5.499   4.555  10.701  0.1723  1.1102  1.3081
  109OSM    C4S11224   5.516   4.635  10.404  0.0386 -0.8338  0.2284
  109OSM    H4S11225   5.577   4.701  10.340 -0.5392  0.3541  0.8707
  109OSM    C5S11226   5.391   4.607  10.358 -0.0440  0.2691  0.8494
  109OSM    H5S11227   5.326   4.544  10.421 -0.9298 -2.0903 -2.1610
  109OSM    C6S11228   5.335   4.643  10.221 -0.3072 -0.8419  0.6006
  109OSM    H6S11229   5.251   4.716  10.229 -0.3968 -0.5049 -2.2648
  109OSM    H6T11230   5.295   4.551  10.174  0.8044 -0.6779 -0.7308
  109OSM    C7S11231   5.436   4.709  10.122  0.0835 -0.4664  0.1504
  109OSM    H7S11232   5.536   4.661  10.116  0.7670  0.6700  1.7938
  109OSM    H7T11233   5.445   4.815  10.154  1.9109 -0.5981  0.1883
  109OSM    C8S11234   5.389   4.717   9.976  0.2680 -0.2708  0.1762
  109OSM    H8S11235   5.296   4.776   9.963 -0.3976 -1.3007  0.1353
  109OSM    H8T11236   5.371   4.617   9.931  1.4868 -0.7945  0.8127
  109OSM    C9S11237   5.495   4.792   9.894 -0.4688  0.5504 -0.4801
  109OSM    H9S11238   5.600   4.760   9.914 -0.5561  0.4131 -0.2332
  109OSM    H9T11239   5.482   4.896   9.929 -1.3594  0.1180  0.5360
  109OSM   C10S11240   5.473   4.773   9.742 -0.2959 -0.1461  0.3826
  109OSM   H10S11241   5.365   4.799   9.734  0.2274  2.5080  1.1643
  109OSM   H10T11242   5.495   4.668   9.714  0.1679 -0.0083  0.2274
  109OSM   C11S11243   5.552   4.875   9.652  0.6153 -0.6599  0.0415
  109OSM   H11S11244   5.658   4.845   9.669  1.0945 -0.4119 -2.2096
  109OSM   H11T11245   5.527   4.973   9.698  3.3282  1.5587 -2.7749
  109OSM   C12S11246   5.519   4.875   9.501 -0.5966  0.5896  0.1536
  109OSM   H12S11247   5.418   4.917   9.485 -0.8724 -0.4060 -0.8854
  109OSM   H12T11248   5.513   4.766   9.479  3.5753  0.1577  0.2763
  109OSM   C13S11249   5.627   4.951   9.416  0.0474  0.4669  0.0136
  109OSM   H13S11250   5.728   4.921   9.451 -0.9229 -0.4408  2.1968
  109OSM   H13T11251   5.629   5.060   9.435 -1.5163  0.1965  2.1182
  109OSM   C14S11252   5.615   4.903   9.269  0.0344 -0.3059  0.1286
  109OSM   H14S11253   5.507   4.910   9.244 -0.2627 -2.6950  0.4917
  109OSM   H14T11254   5.640   4.796   9.252  0.9037 -0.2319  0.8537
  109OSM   C15S11255   5.713   4.982   9.184  0.4223 -0.2628 -0.1800
  109OSM   H15S11256   5.816   4.972   9.225  0.8395  0.9993 -0.8467
  109OSM   H15T11257   5.678   5.087   9.192 -4.2420 -1.6822  1.0089
  109OSM   C16S11258   5.703   4.937   9.038 -0.2647 -0.4773  0.1707
  109OSM   H16S11259   5.602   4.912   8.999 -0.1278 -0.9072  0.0839
  109OSM   H16T11260   5.751   4.837   9.039  2.3504  0.6819 -0.6839
  109OSM   C17S11261   5.783   5.031   8.949 -0.1316 -0.4242  0.6255
  109OSM   H17S11262   5.892   5.034   8.974  0.9903  1.6626 -3.6596
  109OSM   H17T11263   5.741   5.133   8.965  0.2067  0.1756 -2.0051
  109OSM   C18S11264   5.771   4.997   8.810 -0.5168 -0.1965  0.2050
  109OSM   H18S11265   5.677   5.046   8.776  1.4275  4.5507  0.8245
  109OSM   H18T11266   5.767   4.892   8.774  1.0642  0.1282 -1.0473
  109OSM   H18U11267   5.856   5.041   8.752 -0.6598 -0.7956 -0.4702
  109OSM    C1F11268   5.826   4.368  10.382  0.4825 -0.5953 -0.4251
  109OSM     OF11269   5.816   4.264  10.447 -0.1324 -0.3954  0.1499
  109OSM    C2F11270   5.923   4.376  10.276  0.0131 -0.3330 -0.0763
  109OSM    H2F11271   6.027   4.365  10.312  0.9494  1.1375 -2.1449
  109OSM    H2G11272   5.913   4.477  10.231 -0.0222 -0.9040 -1.3880
  109OSM    C3F11273   5.904   4.269  10.168  0.2827 -0.5695 -0.4639
  109OSM    H3F11274   5.807   4.281  10.116  0.5974 -0.6478 -1.0833
  109OSM    H3G11275   5.905   4.167  10.210 -0.6821 -0.8226 -1.0432
  109OSM    C4F11276   6.010   4.271  10.054 -0.5895 -0.2150 -0.5565
  109OSM    H4F11277   6.085   4.205  10.103 -1.6871  0.3263  2.0128
  109OSM    H4G11278   6.044   4.375  10.036  0.0910 -0.4967 -0.9391
  109OSM    C5F11279   5.965   4.201   9.927  0.3093  0.8395 -0.7954
  109OSM    H5F11280   5.868   4.242   9.890 -0.7550 -0.3196  0.6168
  109OSM    H5G11281   5.957   4.092   9.946  0.5155  0.7743 -1.0761
  109OSM    C6F11282   6.074   4.217   9.816 -0.3004  0.8061  0.1203
  109OSM    H6F11283   6.170   4.176   9.854  0.2350  3.6985  2.2881
  109OSM    H6G11284   6.106   4.323   9.802 -0.1690  0.7335 -0.1333
  109OSM    C7F11285   6.034   4.141   9.680  0.1476 -0.3269 -0.5498
  109OSM    H7F11286   5.949   4.203   9.643  0.0161  0.0753  0.3961
  109OSM    H7G11287   5.987   4.047   9.714 -0.9876 -0.4682 -2.3898
  109OSM    C8F11288   6.157   4.102   9.598  0.1712 -0.3332 -0.2638
  109OSM    H8F11289   6.128   4.012   9.540 -0.0852  0.1566 -0.9098
  109OSM    H8G11290   6.238   4.057   9.660 -0.3277 -3.4532 -1.6710
  109OSM    C9F11291   6.216   4.208   9.516 -0.6388 -0.3365 -0.0568
  109OSM    H9F11292   6.302   4.256   9.565 -0.7813 -1.4227  1.3561
  109OSM   C10F11293   6.173   4.256   9.398 -0.2025 -0.2103 -0.1689
  109OSM   H10F11294   6.219   4.340   9.343 -0.9061  0.6100  0.4466
  109OSM   C11F11295   6.050   4.204   9.325  0.3905  0.8568 -0.3613
  109OSM   H11F11296   6.009   4.299   9.284  0.4434  1.2710  0.5201
  109OSM   H11G11297   5.977   4.152   9.391  1.2794 -1.4267 -1.0899
  109OSM   C12F11298   6.082   4.103   9.219 -0.1887  0.0849 -0.3246
  109OSM   H12F11299   6.151   4.032   9.270  1.6949  2.4862  0.6735
  109OSM   H12G11300   6.134   4.152   9.135 -1.4976  1.7888 -0.2022
  109OSM   C13F11301   5.958   4.041   9.152 -0.0074  0.2345  0.1003
  109OSM   H13F11302   5.878   4.118   9.163 -2.2495 -1.9112 -0.2365
  109OSM   H13G11303   5.923   3.971   9.231 -0.3410  0.1860 -0.0902
  109OSM   C14F11304   5.984   3.960   9.029  0.0313 -0.3035  0.3154
  109OSM   H14F11305   5.896   3.895   9.011  0.7188 -0.9900 -0.6544
  109OSM   H14G11306   6.076   3.901   9.050  0.4215 -0.2381 -1.1111
  109OSM   C15F11307   6.014   4.044   8.902  0.0286  0.4634 -1.5783
  109OSM   H15F11308   6.103   4.108   8.916  1.0508 -1.0724 -0.7112
  109OSM   H15G11309   5.927   4.113   8.893  0.6982  1.1989 -2.4171
  109OSM   C16F11310   6.044   3.967   8.771 -0.2040 -0.3501  0.3995
  109OSM   H16F11311   5.956   3.909   8.735 -1.5791  2.1569 -0.5132
  109OSM   H16G11312   6.124   3.890   8.782 -1.0536 -1.3128 -0.0109
  109OSM   C17F11313   6.080   4.066   8.661  0.6477  0.2977  0.1080
  109OSM   H17F11314   6.158   4.136   8.698 -2.2393  2.2358  3.0228
  109OSM   H17G11315   5.989   4.125   8.635  1.1737 -0.3802 -4.1107
  109OSM   C18F11316   6.145   3.997   8.534 -0.3844 -0.4205  0.2746
  109OSM   H18F11317   6.245   3.954   8.555  0.0799  0.7820  0.5995
  109OSM   H18G11318   6.148   4.078   8.459  2.8494  1.2120  1.9709
  109OSM   H18H11319   6.080   3.915   8.495 -2.1347  0.1548  1.8205
  110OSM      N11320   1.214   3.138  11.303  0.4292  0.9800  0.2699
  110OSM    C1511321   1.326   3.211  11.378 -0.1170  0.5329 -0.4751
  110OSM   H15A11322   1.361   3.292  11.316  0.4564 -0.1969 -1.1286
  110OSM   H15B11323   1.402   3.144  11.417  2.4587  2.4824 -1.8105
  110OSM   H15C11324   1.280   3.262  11.462 -0.9006  0.5553 -0.9188
  110OSM    C1411325   1.159   3.043  11.412  0.5196  0.6478  0.9030
  110OSM   H14A11326   1.064   2.998  11.386  1.1416  0.1075 -0.4895
  110OSM   H14B11327   1.139   3.093  11.506 -1.4414  0.3541  0.6833
  110OSM   H14C11328   1.230   2.962  11.416 -1.5515 -1.3295  0.0546
  110OSM    C1311329   1.110   3.244  11.273  0.3910  0.1977 -0.2840
  110OSM   H13A11330   1.072   3.296  11.359 -0.0521 -0.0610 -0.3170
  110OSM   H13B11331   1.024   3.200  11.224 -0.7430 -0.8477  2.4898
  110OSM   H13C11332   1.152   3.320  11.209 -1.1983  0.4561 -1.0607
  110OSM    C1211333   1.259   3.066  11.173 -0.4246  0.1663 -0.4510
  110OSM   H12A11334   1.170   3.028  11.125 -0.9640  1.2726 -0.3767
  110OSM   H12B11335   1.322   2.985  11.205  0.8065  1.5251  0.7656
  110OSM    C1111336   1.341   3.157  11.078  0.8855  0.0630 -0.5549
  110OSM   H11A11337   1.362   3.098  10.986 -0.2199 -0.3644 -0.5469
  110OSM   H11B11338   1.442   3.176  11.121  1.3656 -2.7417 -0.2192
  110OSM      P11339   1.325   3.410  11.033  0.2845 -0.0621 -0.2202
  110OSM    O1311340   1.226   3.502  10.968 -0.2250  0.1851 -0.6462
  110OSM    O1411341   1.354   3.453  11.171  0.1257 -0.3491 -0.0501
  110OSM    O1111342   1.446   3.396  10.934  0.0474 -0.1558 -0.4314
  110OSM    O1211343   1.263   3.268  11.036  0.7548 -0.0142 -0.1232
  110OSM    C1S11344   1.428   3.340  10.805  0.3217  0.1995  0.3980
  110OSM    H1S11345   1.326   3.308  10.776  0.5079 -0.1206  0.0953
  110OSM    H1T11346   1.486   3.246  10.804 -3.4421 -2.4383  3.2395
  110OSM     NF11347   1.491   3.370  10.568 -0.2599 -0.1781 -0.7552
  110OSM    HNF11348   1.573   3.317  10.545 -1.0998 -2.1387  0.4893
  110OSM    C2S11349   1.499   3.435  10.697  0.1528  0.7640  0.3628
  110OSM    H2S11350   1.446   3.533  10.695 -1.7203 -0.2178 -0.4580
  110OSM    C3S11351   1.649   3.480  10.732  0.4961 -0.9850 -0.2598
  110OSM    H3S11352   1.710   3.388  10.736 -0.0045 -1.3637 -1.0893
  110OSM     O311353   1.667   3.534  10.862  0.3999  0.3779 -0.7880
  110OSM    HO311354   1.597   3.487  10.907  1.1821  0.2504  0.3251
  110OSM    C4S11355   1.702   3.574  10.634 -1.0312 -0.5120 -0.2905
  110OSM    H4S11356   1.782   3.540  10.568  0.3550 -0.8936  1.5111
  110OSM    C5S11357   1.677   3.703  10.613 -0.0788  0.2136  0.0535
  110OSM    H5S11358   1.625   3.768  10.684  1.8343  1.8331  0.0614
  110OSM    C6S11359   1.744   3.786  10.502 -0.4956 -0.3053  0.1065
  110OSM    H6S11360   1.691   3.880  10.476  0.1032  0.3531  1.2044
  110OSM    H6T11361   1.741   3.722  10.411 -0.0856 -0.5612  0.2708
  110OSM    C7S11362   1.896   3.815  10.533  0.4992 -0.2917  0.2035
  110OSM    H7S11363   1.939   3.744  10.606  0.9762  0.4052  0.6113
  110OSM    H7T11364   1.907   3.910  10.591 -2.0513 -1.6040  3.0922
  110OSM    C8S11365   1.977   3.804  10.406 -0.4855  0.1853 -0.7198
  110OSM    H8S11366   1.956   3.709  10.353  1.6479 -0.8658  0.2213
  110OSM    H8T11367   2.081   3.789  10.442 -1.0703 -1.1861  0.4825
  110OSM    C9S11368   1.975   3.926  10.312  0.1891 -0.7133 -0.5876
  110OSM    H9S11369   2.033   4.009  10.358 -1.3594  0.0015  0.1694
  110OSM    H9T11370   1.877   3.978  10.306  0.8552  0.4358 -2.1751
  110OSM   C10S11371   2.022   3.883  10.173  0.3731  0.4908  0.6714
  110OSM   H10S11372   1.952   3.811  10.124  0.7039  0.7616 -0.2210
  110OSM   H10T11373   2.121   3.833  10.176 -0.2380 -0.9606 -1.0094
  110OSM   C11S11374   2.015   4.009  10.083  0.3914 -0.6591  0.1045
  110OSM   H11S11375   2.079   4.089  10.127  0.0858  0.1045 -0.8128
  110OSM   H11T11376   1.915   4.057  10.079 -0.4228 -2.3541 -1.2789
  110OSM   C12S11377   2.079   3.990   9.944  0.3716 -0.4227 -0.1105
  110OSM   H12S11378   2.175   3.935   9.940 -0.3789 -1.8757  0.7393
  110OSM   H12T11379   2.089   4.095   9.908 -0.5690 -0.4979 -0.6164
  110OSM   C13S11380   1.986   3.919   9.849  0.4194 -0.0407  0.1319
  110OSM   H13S11381   1.889   3.973   9.853 -0.4358 -1.5024 -0.1014
  110OSM   H13T11382   1.967   3.814   9.882 -0.1388  0.4262  1.3190
  110OSM   C14S11383   2.024   3.917   9.699  0.2862  0.6508 -0.2759
  110OSM   H14S11384   1.939   3.876   9.642  0.4214  1.9799 -1.4610
  110OSM   H14T11385   2.110   3.849   9.675 -0.2991 -0.4182  0.5579
  110OSM   C15S11386   2.059   4.055   9.631 -1.0017  0.1480  0.1870
  110OSM   H15S11387   2.157   4.092   9.668 -0.3890 -1.2236  0.0028
  110OSM   H15T11388   1.989   4.137   9.659 -0.3236  0.8491 -0.1103
  110OSM   C16S11389   2.074   4.030   9.481 -0.0608 -0.3444  0.0180
  110OSM   H16S11390   1.973   4.004   9.441 -0.6018  1.6387 -0.0139
  110OSM   H16T11391   2.142   3.942   9.475  0.3414 -0.1044  0.9192
  110OSM   C17S11392   2.133   4.142   9.398  0.0905 -1.1795 -0.0197
  110OSM   H17S11393   2.243   4.146   9.413  0.3493 -4.5388 -0.1920
  110OSM   H17T11394   2.102   4.242   9.437 -0.1860 -1.0675 -0.5284
  110OSM   C18S11395   2.112   4.142   9.242 -0.1701 -0.1069 -0.3247
  110OSM   H18S11396   2.151   4.229   9.187  2.3206 -0.6429  0.4800
  110OSM   H18T11397   2.003   4.124   9.226 -0.8438 -0.6022  3.7119
  110OSM   H18U11398   2.167   4.051   9.208 -0.9899 -0.9981  0.6395
  110OSM    C1F11399   1.380   3.340  10.506  0.7005 -0.3901  0.2201
  110OSM     OF11400   1.276   3.389  10.546  0.0826  0.2145 -0.2249
  110OSM    C2F11401   1.391   3.248  10.390  0.2922 -0.6703  0.8991
  110OSM    H2F11402   1.312   3.172  10.407 -0.1774 -0.5734 -0.7307
  110OSM    H2G11403   1.499   3.222  10.379  0.4323  0.2150  0.0802
  110OSM    C3F11404   1.336   3.313  10.269  0.0600 -0.3655  0.8087
  110OSM    H3F11405   1.394   3.408  10.264 -0.2632 -0.2322 -1.6942
  110OSM    H3G11406   1.226   3.322  10.282  0.0199 -1.7678  1.6294
  110OSM    C4F11407   1.359   3.237  10.135 -0.1614 -0.1060  0.2762
  110OSM    H4F11408   1.292   3.149  10.137 -1.2929  0.5769 -2.5260
  110OSM    H4G11409   1.465   3.204  10.128 -0.0469  0.1134  0.9396
  110OSM    C5F11410   1.316   3.318  10.016  1.0671  0.2587 -0.6043
  110OSM    H5F11411   1.363   3.418  10.025  2.1404 -0.3738  1.6698
  110OSM    H5G11412   1.206   3.331  10.023  1.0481  0.7504 -1.6954
  110OSM    C6F11413   1.352   3.253   9.883 -0.4653 -0.1817 -0.3097
  110OSM    H6F11414   1.263   3.261   9.816  0.8970  1.5260 -2.0362
  110OSM    H6G11415   1.368   3.144   9.894 -3.6114 -1.0545 -2.7004
  110OSM    C7F11416   1.476   3.325   9.810  0.2233  0.6436 -0.2977
  110OSM    H7F11417   1.555   3.344   9.886 -0.2444 -0.6146  0.5572
  110OSM    H7G11418   1.429   3.420   9.779 -0.0795  0.8278  0.6977
  110OSM    C8F11419   1.538   3.250   9.695  0.0118 -0.3592  0.1732
  110OSM    H8F11420   1.603   3.168   9.733  4.2506  1.6368 -1.9737
  110OSM    H8G11421   1.618   3.312   9.648  0.2954  1.7804  3.1395
  110OSM    C9F11422   1.442   3.192   9.603 -0.3970 -0.6850  0.2653
  110OSM    H9F11423   1.346   3.246   9.600  0.1662  0.3199 -1.3159
  110OSM   C10F11424   1.465   3.096   9.505 -0.2667 -0.2820  0.1473
  110OSM   H10F11425   1.396   3.048   9.435  1.9741  0.3738 -2.6663
  110OSM   C11F11426   1.593   3.020   9.477  0.5594 -0.0416  0.3571
  110OSM   H11F11427   1.585   2.922   9.528 -0.5034 -0.3237 -0.3215
  110OSM   H11G11428   1.680   3.069   9.526 -1.0533  1.7841  1.5146
  110OSM   C12F11429   1.641   2.983   9.331  0.0149  0.5545 -0.3693
  110OSM   H12F11430   1.565   2.918   9.282 -1.8924  1.6552  1.0032
  110OSM   H12G11431   1.740   2.937   9.349  0.3977  1.5945  0.2553
  110OSM   C13F11432   1.649   3.118   9.261 -0.2715 -0.1630 -0.0174
  110OSM   H13F11433   1.730   3.175   9.312 -1.4453 -0.1400  1.9337
  110OSM   H13G11434   1.562   3.185   9.280  1.0079  0.9426  2.4507
  110OSM   C14F11435   1.680   3.108   9.112 -0.0866  0.0808  0.6190
  110OSM   H14F11436   1.660   3.210   9.072  2.2904  0.6874  0.8360
  110OSM   H14G11437   1.597   3.044   9.073 -0.0282  0.8970 -0.9139
  110OSM   C15F11438   1.822   3.072   9.076 -0.3755  0.0730  0.3477
  110OSM   H15F11439   1.834   2.965   9.103 -0.3000  0.2418  0.9880
  110OSM   H15G11440   1.901   3.127   9.132 -1.4025  2.2931 -0.2377
  110OSM   C16F11441   1.862   3.092   8.927  0.0870  0.1408  0.4613
  110OSM   H16F11442   1.775   3.059   8.866  0.9031  0.0917 -0.7071
  110OSM   H16G11443   1.953   3.031   8.908  0.4352  0.6053  0.6243
  110OSM   C17F11444   1.890   3.241   8.889  0.2331  0.6041  0.2535
  110OSM   H17F11445   1.955   3.298   8.960  0.6230  0.4176  0.0507
  110OSM   H17G11446   1.794   3.288   8.919  1.2655  2.0293  1.5497
  110OSM   C18F11447   1.925   3.260   8.743 -0.4151 -0.3964  0.8117
  110OSM   H18F11448   1.863   3.186   8.686 -0.5053 -0.5086  1.0561
  110OSM   H18G11449   2.032   3.242   8.723 -0.6402 -0.3872 -0.5029
  110OSM   H18H11450   1.898   3.362   8.707 -0.7117 -0.4446  0.8921
  111OSM      N11451   2.597   0.313  11.146  0.1315 -0.0525 -0.1629
  111OSM    C1511452   2.722   0.253  11.192 -0.4264  0.2688 -0.4167
  111OSM   H15A11453   2.799   0.327  11.210  0.5603 -0.8179 -0.0230
  111OSM   H15B11454   2.765   0.192  11.113  2.1614 -0.5778  1.5061
  111OSM   H15C11455   2.720   0.197  11.284  0.6143  1.6637  0.4884
  111OSM    C1411456   2.499   0.204  11.146  0.3255  0.6357 -0.4448
  111OSM   H14A11457   2.410   0.234  11.093  0.1626  1.4900  0.2917
  111OSM   H14B11458   2.472   0.171  11.245  0.5627 -0.3642 -0.6939
  111OSM   H14C11459   2.537   0.119  11.091 -1.4480 -0.0015 -0.7463
  111OSM    C1311460   2.532   0.423  11.228 -1.1199  0.4147 -0.7153
  111OSM   H13A11461   2.597   0.509  11.240 -0.3784 -0.3073  0.7718
  111OSM   H13B11462   2.516   0.383  11.327  1.1943 -1.5322 -1.0224
  111OSM   H13C11463   2.438   0.447  11.181 -0.5338 -0.8173 -2.6240
  111OSM    C1211464   2.622   0.368  11.009  0.6900  0.1428 -0.3256
  111OSM   H12A11465   2.656   0.287  10.946  1.7257  0.4008 -0.1257
  111OSM   H12B11466   2.706   0.436  11.013  2.1508 -1.5719 -0.3265
  111OSM    C1111467   2.514   0.440  10.934 -0.6253 -0.3943  0.4240
  111OSM   H11A11468   2.561   0.451  10.834  0.0209 -3.5034  0.2947
  111OSM   H11B11469   2.493   0.541  10.975 -2.6562 -0.5536 -0.1552
  111OSM      P11470   2.260   0.437  10.935  0.0291  0.2510 -0.1313
  111OSM    O1311471   2.148   0.345  10.945  0.5889  0.3633  0.8160
  111OSM    O1411472   2.263   0.528  11.053 -0.4691  0.6708  0.2324
  111OSM    O1111473   2.243   0.529  10.799 -0.1463  0.2812 -0.2104
  111OSM    O1211474   2.400   0.362  10.918  0.0138  0.1350 -0.2387
  111OSM    C1S11475   2.234   0.456  10.678  0.7256 -0.0370  0.1331
  111OSM    H1S11476   2.131   0.415  10.680 -0.8487  3.4866 -1.1452
  111OSM    H1T11477   2.305   0.371  10.667  0.0137 -0.8895  1.7176
  111OSM     NF11478   2.225   0.461  10.430  0.1586 -0.2814 -0.4274
  111OSM    HNF11479   2.301   0.424  10.377 -0.5968 -1.0994 -0.9666
  111OSM    C2S11480   2.255   0.544  10.551  0.2411  0.4464 -0.5410
  111OSM    H2S11481   2.186   0.631  10.548 -2.5289 -1.6265 -1.4706
  111OSM    C3S11482   2.410   0.596  10.553 -0.8154  0.2582  0.3830
  111OSM    H3S11483   2.472   0.504  10.549 -2.3371 -0.7828 -1.9789
  111OSM     O311484   2.442   0.660  10.673 -0.5821  0.1875  0.1115
  111OSM    HO311485   2.391   0.611  10.738  1.3135 -1.3890  0.5002
  111OSM    C4S11486   2.456   0.685  10.432 -0.7885  0.4105  0.4525
  111OSM    H4S11487   2.501   0.626  10.351  0.7477  0.2238  1.3883
  111OSM    C5S11488   2.447   0.819  10.427 -0.5262 -1.0643 -0.0120
  111OSM    H5S11489   2.402   0.872  10.512 -1.6435 -1.2204 -0.4874
  111OSM    C6S11490   2.482   0.898  10.305 -0.2355  0.5492  0.0459
  111OSM    H6S11491   2.574   0.958  10.327 -0.2336  0.2172  0.9820
  111OSM    H6T11492   2.402   0.972  10.286 -1.6990 -0.8953  0.4258
  111OSM    C7S11493   2.492   0.828  10.165  0.6809 -1.0159 -0.0669
  111OSM    H7S11494   2.404   0.764  10.142 -0.3155  0.7513 -1.4164
  111OSM    H7T11495   2.583   0.764  10.162  0.2025 -1.7521 -3.2618
  111OSM    C8S11496   2.529   0.929  10.053  0.3140 -0.2975  0.3730
  111OSM    H8S11497   2.605   1.002  10.087 -0.8641  2.0923 -1.8385
  111OSM    H8T11498   2.431   0.979  10.037 -0.9078 -1.6592  2.9128
  111OSM    C9S11499   2.582   0.860   9.929  0.2864 -0.0617 -0.8928
  111OSM    H9S11500   2.516   0.777   9.896 -0.9843  1.0183 -1.1558
  111OSM    H9T11501   2.675   0.808   9.961  0.0951  0.9530  1.4597
  111OSM   C10S11502   2.593   0.959   9.813  0.3754  0.0221 -0.1855
  111OSM   H10S11503   2.648   1.043   9.859  0.9229 -0.1921 -0.4420
  111OSM   H10T11504   2.494   0.988   9.772  0.7096  0.1149 -0.9371
  111OSM   C11S11505   2.668   0.907   9.688  0.0205  0.5687  0.1544
  111OSM   H11S11506   2.621   0.821   9.637 -0.6356  1.8985 -1.5672
  111OSM   H11T11507   2.765   0.880   9.735 -0.8620 -1.1562  1.0830
  111OSM   C12S11508   2.697   1.024   9.588 -1.0246 -0.6759  0.8039
  111OSM   H12S11509   2.720   1.122   9.633  0.9130 -0.8217  0.2067
  111OSM   H12T11510   2.601   1.024   9.531 -1.3338 -1.0479  1.3159
  111OSM   C13S11511   2.809   0.999   9.487  0.9433  0.4931 -0.0065
  111OSM   H13S11512   2.915   0.990   9.519  2.4769 -0.8194 -4.6490
  111OSM   H13T11513   2.826   1.084   9.417 -0.4308  0.4290 -0.4428
  111OSM   C14S11514   2.790   0.863   9.404 -0.3165  0.9215 -0.3920
  111OSM   H14S11515   2.681   0.839   9.408 -0.2027  0.1718 -1.3000
  111OSM   H14T11516   2.839   0.775   9.451  1.5822  1.3731 -1.4158
  111OSM   C15S11517   2.846   0.880   9.258  0.1161  0.0769  0.2963
  111OSM   H15S11518   2.954   0.904   9.268  0.5812 -1.3836 -0.8824
  111OSM   H15T11519   2.786   0.968   9.226 -1.3322 -0.6711  0.9021
  111OSM   C16S11520   2.837   0.760   9.159  0.3641  0.1816  0.3903
  111OSM   H16S11521   2.738   0.713   9.175  0.6258 -0.1221  1.1960
  111OSM   H16T11522   2.910   0.680   9.184 -2.6710 -2.6239  1.0223
  111OSM   C17S11523   2.881   0.781   9.014 -0.3422 -0.6351  0.7526
  111OSM   H17S11524   2.988   0.809   9.025 -0.2064 -0.1482 -1.4250
  111OSM   H17T11525   2.818   0.864   8.975 -0.2921 -1.2405 -0.6719
  111OSM   C18S11526   2.849   0.661   8.927  0.3150  0.2111 -0.6710
  111OSM   H18S11527   2.740   0.638   8.929  1.0173 -3.7711 -0.2980
  111OSM   H18T11528   2.900   0.571   8.968  0.5587  0.4992 -0.3352
  111OSM   H18U11529   2.874   0.670   8.819  0.5377  0.7928 -0.5721
  111OSM    C1F11530   2.098   0.437  10.396 -0.8677 -0.3270  0.3506
  111OSM     OF11531   2.004   0.485  10.456 -0.6148 -0.4537 -0.3638
  111OSM    C2F11532   2.078   0.348  10.278  0.0970  0.1872 -0.6133
  111OSM    H2F11533   1.988   0.285  10.289  0.0766  0.3557  0.1942
  111OSM    H2G11534   2.162   0.276  10.263  0.1783  0.3944 -1.2061
  111OSM    C3F11535   2.053   0.434  10.151 -0.6279  0.0067  0.7152
  111OSM    H3F11536   2.131   0.513  10.138 -1.0496  0.2369 -0.5997
  111OSM    H3G11537   1.957   0.488  10.156 -0.7251 -0.1122  0.2289
  111OSM    C4F11538   2.047   0.347  10.023  0.2083  0.2074 -0.2904
  111OSM    H4F11539   1.969   0.270  10.038  0.4854  0.1076  0.6963
  111OSM    H4G11540   2.152   0.311  10.016  0.1612  0.1473 -0.7247
  111OSM    C5F11541   2.015   0.419   9.892 -0.1225 -0.0661 -0.9977
  111OSM    H5F11542   2.077   0.510   9.881 -0.3841  0.0262 -1.7391
  111OSM    H5G11543   1.910   0.456   9.892  1.0030  3.5243 -0.1587
  111OSM    C6F11544   2.023   0.327   9.765  0.3126 -0.5778 -0.0348
  111OSM    H6F11545   1.974   0.230   9.786 -0.9132 -0.4123 -1.8940
  111OSM    H6G11546   2.130   0.301   9.751  0.5350 -0.4930  1.4434
  111OSM    C7F11547   1.972   0.385   9.638  0.1192 -0.6144 -0.5110
  111OSM    H7F11548   2.028   0.480   9.621 -0.7990  0.9088  3.5910
  111OSM    H7G11549   1.869   0.416   9.665  0.6201  0.6116  0.0644
  111OSM    C8F11550   1.981   0.281   9.524 -0.3867  0.0022  0.3395
  111OSM    H8F11551   1.936   0.184   9.552  0.1303 -1.8084 -4.1747
  111OSM    H8G11552   2.090   0.260   9.529 -0.1162  0.7652 -1.4746
  111OSM    C9F11553   1.941   0.317   9.389 -0.3801 -0.3134 -0.0569
  111OSM    H9F11554   1.835   0.345   9.377  0.5548  3.3248 -1.1394
  111OSM   C10F11555   2.023   0.339   9.282  0.0496 -0.9685 -0.1363
  111OSM   H10F11556   1.977   0.368   9.187  0.0774 -0.5735 -0.0338
  111OSM   C11F11557   2.169   0.313   9.269  0.1392 -0.2643 -0.7739
  111OSM   H11F11558   2.179   0.215   9.219 -0.4457 -0.5098 -0.4198
  111OSM   H11G11559   2.219   0.320   9.368  0.2757  0.8836 -0.9044
  111OSM   C12F11560   2.238   0.417   9.170  0.1807 -0.1471 -0.1365
  111OSM   H12F11561   2.346   0.399   9.184  0.5302  1.2412 -0.9037
  111OSM   H12G11562   2.220   0.523   9.199 -1.3975 -0.9112  1.9167
  111OSM   C13F11563   2.212   0.396   9.018  0.0125 -0.3844 -0.0341
  111OSM   H13F11564   2.108   0.429   8.997 -0.3680 -2.7850 -2.4598
  111OSM   H13G11565   2.228   0.291   8.988  0.1974 -0.7433  1.2740
  111OSM   C14F11566   2.297   0.499   8.937  0.0711  0.1623  0.6406
  111OSM   H14F11567   2.400   0.457   8.941 -0.5433 -1.3352  1.4038
  111OSM   H14G11568   2.292   0.597   8.989 -1.7659  1.4602 -1.7639
  111OSM   C15F11569   2.253   0.511   8.790  0.4722 -0.7039 -0.3655
  111OSM   H15F11570   2.317   0.590   8.743  1.1003 -0.9945 -0.0032
  111OSM   H15G11571   2.148   0.545   8.780 -0.7320 -3.0054  2.8249
  111OSM   C16F11572   2.259   0.378   8.708 -0.2643  0.7193  0.3677
  111OSM   H16F11573   2.166   0.326   8.738 -0.9790  0.9238 -1.4041
  111OSM   H16G11574   2.354   0.327   8.737  2.2521  3.9970 -1.3263
  111OSM   C17F11575   2.267   0.408   8.555 -0.1756 -0.4202  0.2608
  111OSM   H17F11576   2.280   0.305   8.517  3.7375 -0.2981  0.9003
  111OSM   H17G11577   2.351   0.466   8.511 -1.5784 -0.5869 -3.0059
  111OSM   C18F11578   2.141   0.469   8.491  0.7193 -0.1532  0.2891
  111OSM   H18F11579   2.128   0.578   8.507 -0.0894 -0.4380  1.8312
  111OSM   H18G11580   2.050   0.425   8.539  0.9950 -0.2090  0.7584
  111OSM   H18H11581   2.135   0.453   8.381  1.3983 -2.6234  0.5586
  112OSM      N11582   3.738   4.151  11.272  0.3531 -0.9611  0.4177
  112OSM    C1511583   3.702   4.063  11.384  0.2536 -0.1309 -0.4113
  112OSM   H15A11584   3.774   4.052  11.463 -0.4085 -0.9857  0.0990
  112OSM   H15B11585   3.689   3.960  11.354 -0.8570  0.3385 -1.6518
  112OSM   H15C11586   3.610   4.094  11.431  0.1111 -0.3786 -0.5225
  112OSM    C1411587   3.621   4.147  11.183 -0.0888  0.4719 -0.1886
  112OSM   H14A11588   3.613   4.050  11.135  1.5557  0.7769 -1.1640
  112OSM   H14B11589   3.629   4.221  11.105  1.4716  0.7031  0.1495
  112OSM   H14C11590   3.531   4.164  11.240  0.8985 -0.8172  1.8899
  112OSM    C1311591   3.737   4.296  11.333  0.0272 -0.3792 -1.0055
  112OSM   H13A11592   3.788   4.292  11.429 -3.1007  0.2710  0.8329
  112OSM   H13B11593   3.637   4.329  11.357  0.3168 -0.7318  0.8470
  112OSM   H13C11594   3.785   4.364  11.265  0.0819  0.0313 -0.5609
  112OSM    C1211595   3.868   4.114  11.201  0.0402  0.0590 -0.5827
  112OSM   H12A11596   3.845   4.026  11.143 -2.0534  1.2238 -1.6058
  112OSM   H12B11597   3.944   4.099  11.277 -0.1599  2.0877  0.0844
  112OSM    C1111598   3.927   4.230  11.104 -0.0045  0.0363  0.2267
  112OSM   H11A11599   3.850   4.228  11.024  0.7590 -2.3323 -0.5287
  112OSM   H11B11600   4.020   4.192  11.057 -2.1120 -2.2060 -2.5172
  112OSM      P11601   3.997   4.461  11.055 -0.2730 -0.3001 -0.1277
  112OSM    O1311602   3.990   4.594  11.127 -0.1813  0.0190 -0.1396
  112OSM    O1411603   4.128   4.411  11.005  0.4663 -0.4602 -0.1461
  112OSM    O1111604   3.887   4.466  10.933 -0.3515  0.8830 -0.2329
  112OSM    O1211605   3.943   4.360  11.160 -0.0808  0.0406  0.0325
  112OSM    C1S11606   3.780   4.554  10.944  0.0146  0.3176  0.0903
  112OSM    H1S11607   3.805   4.650  10.995  1.2985 -0.1141  0.3195
  112OSM    H1T11608   3.701   4.511  11.009  0.3504  0.1445  0.3842
  112OSM     NF11609   3.617   4.694  10.818 -0.0309 -0.0812  0.3357
  112OSM    HNF11610   3.526   4.665  10.845  0.0273  1.6534  2.6363
  112OSM    C2S11611   3.711   4.585  10.799 -0.0026  0.0702 -0.6655
  112OSM    H2S11612   3.797   4.608  10.731  0.1650  0.5888 -0.2894
  112OSM    C3S11613   3.651   4.448  10.754  0.1115 -0.1112  0.8199
  112OSM    H3S11614   3.578   4.422  10.833 -1.5133  0.9990 -0.2495
  112OSM     O311615   3.739   4.341  10.731 -0.4141 -0.3039 -0.2918
  112OSM    HO311616   3.823   4.364  10.772  1.0328 -1.8710 -2.1386
  112OSM    C4S11617   3.572   4.457  10.629  0.2774 -0.1355 -0.3623
  112OSM    H4S11618   3.632   4.466  10.537 -1.3832  0.6018 -1.4202
  112OSM    C5S11619   3.438   4.467  10.612  0.0951  0.4548 -0.2739
  112OSM    H5S11620   3.369   4.463  10.697  0.0454 -2.7422 -0.3437
  112OSM    C6S11621   3.358   4.487  10.484 -0.4154 -0.5168  0.0805
  112OSM    H6S11622   3.306   4.585  10.489  1.9903  0.7954  1.4798
  112OSM    H6T11623   3.281   4.409  10.466 -0.7733 -0.9831  3.0441
  112OSM    C7S11624   3.452   4.488  10.352  0.0269 -0.4969 -0.9272
  112OSM    H7S11625   3.501   4.388  10.348  0.0858 -0.6217  1.5454
  112OSM    H7T11626   3.531   4.564  10.362 -0.5270 -0.0261 -0.0721
  112OSM    C8S11627   3.384   4.513  10.216 -0.3179  0.4299  0.5139
  112OSM    H8S11628   3.348   4.618  10.204 -2.7511 -0.3467  0.3927
  112OSM    H8T11629   3.297   4.444  10.205 -0.3156  0.3366  1.0526
  112OSM    C9S11630   3.481   4.491  10.100 -0.0186  0.0388  0.1777
  112OSM    H9S11631   3.550   4.406  10.117 -1.4210 -0.8185  1.9248
  112OSM    H9T11632   3.543   4.584  10.094 -0.8173  0.5591 -0.1598
  112OSM   C10S11633   3.423   4.465   9.960  0.7215 -0.1425 -0.0448
  112OSM   H10S11634   3.347   4.384   9.966  2.0485 -1.4028  0.0848
  112OSM   H10T11635   3.513   4.425   9.910 -0.0344 -0.9969 -0.7624
  112OSM   C11S11636   3.372   4.590   9.880  0.5969 -0.3333  0.0041
  112OSM   H11S11637   3.408   4.682   9.930 -1.5549  0.2403  0.6113
  112OSM   H11T11638   3.261   4.597   9.876  0.6073 -0.4422 -0.6293
  112OSM   C12S11639   3.417   4.580   9.740 -0.5253  0.2873 -0.0951
  112OSM   H12S11640   3.378   4.486   9.696  2.7892 -0.4703 -1.7919
  112OSM   H12T11641   3.528   4.573   9.737 -0.4790  0.6501  0.6036
  112OSM   C13S11642   3.376   4.699   9.653  0.8677  0.1731 -0.4817
  112OSM   H13S11643   3.400   4.801   9.688 -2.0348  1.0463 -0.7449
  112OSM   H13T11644   3.265   4.704   9.640  0.5704  0.0228  1.6928
  112OSM   C14S11645   3.436   4.704   9.512 -0.4808  0.8224 -0.4643
  112OSM   H14S11646   3.388   4.629   9.445  1.4396  0.8661 -1.9587
  112OSM   H14T11647   3.537   4.659   9.522 -1.3454 -0.9279  1.0078
  112OSM   C15S11648   3.439   4.844   9.446  0.1706  0.5407  0.0890
  112OSM   H15S11649   3.524   4.905   9.483  0.3889  0.7776 -0.7631
  112OSM   H15T11650   3.341   4.895   9.460 -0.2014 -0.4287  1.1321
  112OSM   C16S11651   3.455   4.842   9.290 -0.1743  1.0701 -0.0248
  112OSM   H16S11652   3.544   4.779   9.269 -1.8111 -1.3885 -0.0181
  112OSM   H16T11653   3.475   4.944   9.251  2.4539 -0.0382 -1.8623
  112OSM   C17S11654   3.341   4.778   9.210 -0.5701  0.1928  0.3377
  112OSM   H17S11655   3.253   4.845   9.217 -2.0375 -1.6961  0.9169
  112OSM   H17T11656   3.306   4.688   9.266 -0.2994 -0.7197 -0.9217
  112OSM   C18S11657   3.367   4.742   9.068 -0.4103 -0.4164  0.2975
  112OSM   H18S11658   3.383   4.826   8.997  1.1706 -0.5963  0.3983
  112OSM   H18T11659   3.289   4.678   9.023 -0.5929  1.6986 -2.6560
  112OSM   H18U11660   3.460   4.680   9.061  0.2050  0.6474 -1.5832
  112OSM    C1F11661   3.659   4.818  10.825  0.3745 -0.1088 -1.0817
  112OSM     OF11662   3.779   4.842  10.824  0.7119 -0.1461 -0.0646
  112OSM    C2F11663   3.555   4.917  10.850  0.3980  0.0559 -0.0279
  112OSM    H2F11664   3.556   4.947  10.957 -0.4478  0.5297 -0.1481
  112OSM    H2G11665   3.456   4.869  10.839  0.5517 -0.1463 -0.5679
  112OSM    C3F11666   3.565   5.042  10.761  0.2792  0.2511  0.7753
  112OSM    H3F11667   3.663   5.090  10.782  0.8637 -1.3913  1.9748
  112OSM    H3G11668   3.495   5.126  10.781 -1.1938 -0.7566  0.0279
  112OSM    C4F11669   3.584   5.021  10.602 -0.3687  0.3223 -0.9902
  112OSM    H4F11670   3.670   4.951  10.601 -1.1242 -0.6316 -1.6598
  112OSM    H4G11671   3.613   5.111  10.545 -0.4074  0.8600 -0.1675
  112OSM    C5F11672   3.468   4.957  10.531 -0.3562  0.3229  0.2169
  112OSM    H5F11673   3.379   5.022  10.550 -0.7038 -0.3882  1.1054
  112OSM    H5G11674   3.445   4.866  10.590 -1.6180 -0.2971 -1.1848
  112OSM    C6F11675   3.492   4.943  10.386 -0.3181  0.0856  0.8844
  112OSM    H6F11676   3.566   4.861  10.374  0.0269  0.1794  2.2069
  112OSM    H6G11677   3.536   5.038  10.349 -1.6259  0.7716  1.0520
  112OSM    C7F11678   3.368   4.900  10.308 -0.7099 -0.6352 -0.1284
  112OSM    H7F11679   3.297   4.983  10.330  1.8861  1.7839 -0.4060
  112OSM    H7G11680   3.341   4.800  10.350  0.7775 -1.6113 -1.4139
  112OSM    C8F11681   3.399   4.889  10.157  0.0135 -0.1415  0.3816
  112OSM    H8F11682   3.307   4.835  10.125  0.2062 -1.8729  2.4662
  112OSM    H8G11683   3.477   4.812  10.139  0.5148  0.5201 -0.3100
  112OSM    C9F11684   3.430   5.013  10.081  0.0938  0.0128  0.5156
  112OSM    H9F11685   3.531   5.048  10.104  0.3218 -0.1992 -0.1434
  112OSM   C10F11686   3.356   5.087   9.992  1.0758 -0.0630 -0.0592
  112OSM   H10F11687   3.403   5.182   9.964  0.5956  0.2705  0.2531
  112OSM   C11F11688   3.219   5.058   9.942  0.1912  0.1886 -0.1817
  112OSM   H11F11689   3.159   5.151   9.949 -0.2211 -0.1826  1.4783
  112OSM   H11G11690   3.162   4.972   9.983 -2.6708  1.3629 -1.3975
  112OSM   C12F11691   3.232   5.030   9.794 -0.5201 -0.1770 -0.4143
  112OSM   H12F11692   3.311   4.954   9.777 -1.3030 -0.7080 -1.8590
  112OSM   H12G11693   3.272   5.122   9.746 -0.9116 -0.8355 -2.0719
  112OSM   C13F11694   3.094   5.013   9.728  0.2727  0.0817  0.2407
  112OSM   H13F11695   3.027   5.097   9.757 -0.6532 -1.6916  3.6620
  112OSM   H13G11696   3.064   4.909   9.753  2.1560 -0.4942  0.2379
  112OSM   C14F11697   3.112   5.034   9.571 -0.6459  0.4294 -0.1659
  112OSM   H14F11698   3.191   4.960   9.551 -1.8966 -0.9392 -0.1929
  112OSM   H14G11699   3.150   5.139   9.576  1.7748 -0.4612  2.2630
  112OSM   C15F11700   2.988   5.007   9.488  0.0672  1.0783  0.2544
  112OSM   H15F11701   2.909   5.076   9.525  2.3678  2.9235  1.9933
  112OSM   H15G11702   2.942   4.908   9.510 -0.3474  0.8463 -1.4600
  112OSM   C16F11703   3.001   5.020   9.340  0.0265  0.3511  0.6600
  112OSM   H16F11704   2.909   4.992   9.284 -0.6331  1.1257  1.3126
  112OSM   H16G11705   3.078   4.946   9.312 -1.8319 -1.1210 -0.8039
  112OSM   C17F11706   3.050   5.158   9.289 -0.1743 -1.3535 -0.0330
  112OSM   H17F11707   3.150   5.184   9.331 -0.0097  1.4223 -1.8332
  112OSM   H17G11708   2.976   5.239   9.310  1.7871  0.9767 -1.4706
  112OSM   C18F11709   3.070   5.142   9.141  0.3807 -0.0997 -0.3441
  112OSM   H18F11710   3.161   5.080   9.126  0.5182 -0.6317  2.1850
  112OSM   H18G11711   3.072   5.236   9.082 -1.0582  0.1576 -0.0403
  112OSM   H18H11712   2.977   5.088   9.112 -1.7001  2.5065  0.9641
  113OSM      N11713   0.041   2.524  11.290  0.7693  0.0888 -0.1217
  113OSM    C1511714   0.123   2.549  11.415  0.5793  0.1313  0.3194
  113OSM   H15A11715   0.061   2.543  11.503  0.3418 -1.6324  0.0706
  113OSM   H15B11716   0.182   2.639  11.400 -1.3341  1.0974 -2.0716
  113OSM   H15C11717   0.189   2.465  11.430  0.1464 -0.5219 -1.2663
  113OSM    C1411718  -0.045   2.398  11.304  0.8307 -0.1044 -0.1012
  113OSM   H14A11719  -0.112   2.385  11.221  1.2878  2.5668 -0.9838
  113OSM   H14B11720  -0.101   2.407  11.396 -0.4251 -0.5816 -0.8013
  113OSM   H14C11721   0.017   2.311  11.321  0.0633 -0.9014 -1.2498
  113OSM    C1311722  -0.040   2.641  11.274  0.0163 -0.3737 -0.1031
  113OSM   H13A11723  -0.120   2.634  11.202 -0.0469  0.4917 -0.1286
  113OSM   H13B11724   0.024   2.722  11.241  1.4871 -1.5619 -0.2743
  113OSM   H13C11725  -0.089   2.675  11.364  0.7997 -0.7657  0.4809
  113OSM    C1211726   0.132   2.510  11.172  0.0435 -0.3106  0.5590
  113OSM   H12A11727   0.080   2.446  11.102 -1.4573  0.6789  0.7207
  113OSM   H12B11728   0.214   2.449  11.206  2.2138  0.5756 -2.6909
  113OSM    C1111729   0.190   2.638  11.106 -0.2490  1.1343 -0.3254
  113OSM   H11A11730   0.117   2.710  11.061 -1.3658 -0.5186 -1.2514
  113OSM   H11B11731   0.242   2.593  11.019 -1.3861 -0.8832 -0.0147
  113OSM      P11732   0.273   2.852  11.235  0.1969  0.2792 -0.1412
  113OSM    O1311733   0.149   2.872  11.321 -0.2275 -0.2696  0.5066
  113OSM    O1411734   0.402   2.903  11.297  0.0565  0.8611 -0.1525
  113OSM    O1111735   0.240   2.920  11.096 -0.0215  0.3652  0.1028
  113OSM    O1211736   0.282   2.703  11.196  0.3410  0.5034  0.0352
  113OSM    C1S11737   0.348   2.919  10.995  0.3529  0.1205 -0.1448
  113OSM    H1S11738   0.425   2.841  11.010 -0.9180 -0.6372  3.1507
  113OSM    H1T11739   0.388   3.022  10.999  1.0745 -0.0786 -1.5777
  113OSM     NF11740   0.390   2.895  10.757 -0.5473  0.2894  0.2905
  113OSM    HNF11741   0.396   2.972  10.695  0.4018  1.7271  2.0505
  113OSM    C2S11742   0.283   2.891  10.852 -0.8670 -0.3913 -0.7294
  113OSM    H2S11743   0.228   2.795  10.865 -0.3001 -0.7273 -0.7588
  113OSM    C3S11744   0.167   2.995  10.832 -0.1058  0.4152  0.4359
  113OSM    H3S11745   0.201   3.099  10.849  0.3369  1.1160 -3.8010
  113OSM     O311746   0.055   2.976  10.915  0.0460 -0.5294  0.1103
  113OSM    HO311747   0.087   2.926  10.991 -1.7449  0.5167  1.6352
  113OSM    C4S11748   0.119   2.977  10.692  0.1544  0.4744  0.4321
  113OSM    H4S11749   0.056   2.889  10.674  0.7676  0.8328 -6.2904
  113OSM    C5S11750   0.134   3.051  10.580 -0.0650  0.1635 -0.9092
  113OSM    H5S11751   0.195   3.142  10.591 -0.2718  0.0829  1.2068
  113OSM    C6S11752   0.069   3.033  10.449  0.7300 -0.1041  0.7076
  113OSM    H6S11753   0.008   3.126  10.445 -0.6809 -0.9738  1.2024
  113OSM    H6T11754   0.005   2.942  10.445  0.5387 -0.0187  1.6686
  113OSM    C7S11755   0.173   3.027  10.330 -0.0735  0.4609  0.7086
  113OSM    H7S11756   0.244   2.954  10.374 -0.5424  0.0888  0.8477
  113OSM    H7T11757   0.222   3.126  10.321 -0.5214  0.5979 -0.4053
  113OSM    C8S11758   0.125   2.978  10.198 -0.7417  0.2026 -1.2939
  113OSM    H8S11759   0.073   2.885  10.228  0.5017 -0.3744 -0.8477
  113OSM    H8T11760   0.217   2.950  10.142  0.4284 -0.3368  0.7941
  113OSM    C9S11761   0.030   3.077  10.120 -0.1431  0.1632  0.4187
  113OSM    H9S11762   0.078   3.177  10.109 -1.9817  1.0717  0.3895
  113OSM    H9T11763  -0.058   3.114  10.176 -0.2793 -0.6542  0.7483
  113OSM   C10S11764  -0.001   3.033   9.976  0.0087  0.2594 -0.3510
  113OSM   H10S11765  -0.089   3.083   9.930 -0.4746  1.2065  1.4904
  113OSM   H10T11766  -0.029   2.925   9.976 -1.7778  0.6832  0.8847
  113OSM   C11S11767   0.103   3.049   9.870 -0.1751  0.1800 -0.2016
  113OSM   H11S11768   0.188   2.980   9.887 -1.4245 -0.5580  3.9050
  113OSM   H11T11769   0.140   3.153   9.887 -0.2021  0.0946  0.3906
  113OSM   C12S11770   0.051   3.021   9.733  0.1363 -0.0881  0.4577
  113OSM   H12S11771  -0.049   3.067   9.717  1.4736  2.3117 -2.1462
  113OSM   H12T11772   0.038   2.911   9.731 -0.0387 -0.0887  1.3705
  113OSM   C13S11773   0.153   3.050   9.627 -0.0199  0.1440  0.4270
  113OSM   H13S11774   0.249   2.999   9.650 -0.2721 -0.9201 -0.7819
  113OSM   H13T11775   0.161   3.161   9.624 -0.3784  0.1446 -1.3221
  113OSM   C14S11776   0.107   3.021   9.486  0.0660  0.3630 -0.1554
  113OSM   H14S11777   0.005   3.059   9.465  0.6718  1.2313 -1.7690
  113OSM   H14T11778   0.106   2.911   9.471  0.1781  0.2061  0.8793
  113OSM   C15S11779   0.200   3.080   9.386 -0.3002  0.0169  0.1080
  113OSM   H15S11780   0.292   3.019   9.397 -1.2367 -1.4256  0.1437
  113OSM   H15T11781   0.228   3.184   9.411  1.7419 -0.1761 -1.1669
  113OSM   C16S11782   0.160   3.082   9.242  0.5170 -0.3047  0.3678
  113OSM   H16S11783   0.061   3.131   9.230  1.2903  1.2729  0.0659
  113OSM   H16T11784   0.143   2.976   9.214 -0.8728 -0.4092  1.5133
  113OSM   C17S11785   0.261   3.159   9.159  0.0676  0.1836 -0.3332
  113OSM   H17S11786   0.350   3.096   9.142  0.2117  0.4474 -0.5713
  113OSM   H17T11787   0.292   3.250   9.215  3.1229 -2.4545  2.7103
  113OSM   C18S11788   0.209   3.193   9.017 -0.6412  0.1427  0.4277
  113OSM   H18S11789   0.300   3.227   8.963  0.9408 -0.8073  2.3736
  113OSM   H18T11790   0.134   3.275   9.016 -0.3010  0.5731  2.9301
  113OSM   H18U11791   0.160   3.107   8.968  0.3717 -1.3305  1.8981
  113OSM    C1F11792   0.481   2.793  10.746 -0.4603 -0.1343 -0.3497
  113OSM     OF11793   0.463   2.688  10.804 -0.1117 -0.1560 -0.7438
  113OSM    C2F11794   0.606   2.810  10.663  1.1681  0.4511  0.3476
  113OSM    H2F11795   0.660   2.713  10.676 -1.8595 -1.3553  0.3189
  113OSM    H2G11796   0.671   2.896  10.692  1.5287  0.2336  0.1959
  113OSM    C3F11797   0.558   2.815  10.512  0.2389  0.4037 -0.0723
  113OSM    H3F11798   0.471   2.880  10.490 -0.7430 -0.7091  0.4303
  113OSM    H3G11799   0.532   2.713  10.477  0.8579  1.5109 -4.3413
  113OSM    C4F11800   0.666   2.870  10.421 -1.1121  0.3901 -0.2954
  113OSM    H4F11801   0.622   2.875  10.319  0.8190  0.5444 -1.1658
  113OSM    H4G11802   0.746   2.794  10.407 -0.6801  0.6245  0.8069
  113OSM    C5F11803   0.736   3.005  10.459  0.5636 -0.0090  0.0216
  113OSM    H5F11804   0.790   2.999  10.556  0.3806 -0.8116  0.0794
  113OSM    H5G11805   0.660   3.085  10.464 -0.6296 -0.9751 -1.6256
  113OSM    C6F11806   0.828   3.052  10.350 -0.4171  0.0449  0.7127
  113OSM    H6F11807   0.782   3.039  10.250  2.0298 -0.5654 -0.4049
  113OSM    H6G11808   0.924   2.996  10.351 -1.2020 -1.4675  3.6581
  113OSM    C7F11809   0.870   3.202  10.357 -0.5131 -0.2988 -0.3733
  113OSM    H7F11810   0.942   3.211  10.441 -0.7539  1.1170 -0.2987
  113OSM    H7G11811   0.783   3.258  10.396 -1.3655 -0.1489 -2.3535
  113OSM    C8F11812   0.923   3.263  10.228  0.4252  0.4748 -0.7346
  113OSM    H8F11813   0.840   3.258  10.155 -0.5627  0.3596  0.3600
  113OSM    H8G11814   1.015   3.219  10.184  1.4497  2.1839 -0.3649
  113OSM    C9F11815   0.935   3.404  10.266 -0.8369  0.7104  0.0739
  113OSM    H9F11816   0.976   3.420  10.366 -1.4306  1.6100  0.1863
  113OSM   C10F11817   0.904   3.509  10.192 -0.1760  0.3280 -0.2873
  113OSM   H10F11818   0.936   3.606  10.232  0.9754 -0.3367  0.4493
  113OSM   C11F11819   0.846   3.498  10.052 -0.4778  0.0959  0.3200
  113OSM   H11F11820   0.759   3.567  10.048  0.2692  1.0715  0.1959
  113OSM   H11G11821   0.803   3.399  10.028  1.0692 -0.3315 -0.8702
  113OSM   C12F11822   0.952   3.523   9.945  0.1338  0.2154 -0.3245
  113OSM   H12F11823   1.041   3.460   9.964 -1.9330 -2.8899 -0.0884
  113OSM   H12G11824   0.987   3.625   9.970  1.1140  0.2927 -1.8723
  113OSM   C13F11825   0.910   3.505   9.801 -0.1925  0.1054 -0.3046
  113OSM   H13F11826   0.868   3.602   9.766  0.2582  1.4439  2.5554
  113OSM   H13G11827   0.841   3.419   9.786 -0.3265  0.0171  0.7098
  113OSM   C14F11828   1.036   3.487   9.716  0.0125  0.2887 -0.0015
  113OSM   H14F11829   1.099   3.399   9.741 -0.4527 -0.6789 -2.0307
  113OSM   H14G11830   1.099   3.578   9.730  0.6306 -0.2137  0.5504
  113OSM   C15F11831   1.014   3.487   9.559  0.1845  0.5306  0.6975
  113OSM   H15F11832   0.941   3.565   9.527 -0.1514  1.1495  2.7686
  113OSM   H15G11833   0.969   3.394   9.519  0.6233  0.2414  0.8708
  113OSM   C16F11834   1.146   3.509   9.497  0.2891 -0.3304  0.0981
  113OSM   H16F11835   1.221   3.473   9.572 -1.8235  0.5651  2.8057
  113OSM   H16G11836   1.165   3.618   9.486  0.1242 -0.1674  1.2848
  113OSM   C17F11837   1.169   3.441   9.367  0.5694  0.2782  0.5571
  113OSM   H17F11838   1.106   3.481   9.284  2.7560  1.8312 -0.4621
  113OSM   H17G11839   1.145   3.333   9.380  0.1083  0.2517 -0.3846
  113OSM   C18F11840   1.313   3.447   9.325 -0.0306  0.3095 -0.0549
  113OSM   H18F11841   1.356   3.550   9.322 -1.6230  1.0065  0.0339
  113OSM   H18G11842   1.316   3.422   9.217  0.5728 -2.5851  0.5338
  113OSM   H18H11843   1.369   3.367   9.378  0.6329  1.0719  0.4185
  114OSM      N11844   1.515   3.799  11.172 -0.0335  0.4155  0.5134
  114OSM    C1511845   1.522   3.925  11.244 -0.0378 -0.7774 -0.2407
  114OSM   H15A11846   1.479   3.915  11.342  1.2385  2.4282  0.7803
  114OSM   H15B11847   1.469   4.008  11.200 -0.7864 -0.6573  0.8477
  114OSM   H15C11848   1.625   3.955  11.260 -0.7290  1.6133  0.1383
  114OSM    C1411849   1.589   3.697  11.239  0.3478 -0.6404  0.9901
  114OSM   H14A11850   1.688   3.735  11.258  0.3229 -0.7309  1.3145
  114OSM   H14B11851   1.616   3.611  11.180  0.0707  0.0343 -0.1454
  114OSM   H14C11852   1.546   3.657  11.330  0.1872 -0.5564  0.9522
  114OSM    C1311853   1.374   3.754  11.174  0.0563  0.2732  0.1985
  114OSM   H13A11854   1.352   3.682  11.252 -3.3334  1.7929  0.8112
  114OSM   H13B11855   1.345   3.698  11.087  2.3062  2.3653 -2.0331
  114OSM   H13C11856   1.313   3.842  11.184  0.2956  0.2740  2.0746
  114OSM    C1211857   1.573   3.827  11.029  0.2364 -0.1818 -0.2118
  114OSM   H12A11858   1.507   3.898  10.982  2.3045  1.6825 -0.4496
  114OSM   H12B11859   1.578   3.736  10.971  0.7713  0.0775 -0.5759
  114OSM    C1111860   1.718   3.878  11.011 -0.4077  0.5970 -0.2917
  114OSM   H11A11861   1.723   3.893  10.901 -0.7672  0.6924 -0.2969
  114OSM   H11B11862   1.778   3.790  11.043 -1.9268 -0.0826  0.8334
  114OSM      P11863   1.887   4.055  11.074  0.0757  0.3044  0.1877
  114OSM    O1311864   1.899   4.182  11.156 -0.6995  0.3025 -0.3254
  114OSM    O1411865   2.004   3.958  11.079  0.8593 -0.0439 -0.1936
  114OSM    O1111866   1.878   4.087  10.925 -0.1483 -0.0478 -0.0723
  114OSM    O1211867   1.746   3.990  11.096  0.4080 -0.1849 -0.4960
  114OSM    C1S11868   1.927   4.208  10.871 -0.3939 -0.1525 -0.0971
  114OSM    H1S11869   2.037   4.220  10.887 -0.1328  1.2634 -2.5422
  114OSM    H1T11870   1.889   4.299  10.922  1.6920  1.0504 -0.5496
  114OSM     NF11871   1.962   4.356  10.653  0.4792  0.3966 -0.6613
  114OSM    HNF11872   1.907   4.438  10.663  0.6560  0.4812 -0.3993
  114OSM    C2S11873   1.894   4.234  10.716  0.8736 -0.1417  0.6241
  114OSM    H2S11874   1.927   4.139  10.669  1.0911  0.4183 -0.3801
  114OSM    C3S11875   1.737   4.241  10.707  0.3015  0.1757  0.3576
  114OSM    H3S11876   1.709   4.344  10.736  1.2601  0.6711 -0.4371
  114OSM     O311877   1.654   4.153  10.793 -0.4323  0.8754  0.1962
  114OSM    HO311878   1.719   4.126  10.857 -1.1312  0.7170  0.8574
  114OSM    C4S11879   1.694   4.228  10.561 -0.6099  0.2984 -0.3107
  114OSM    H4S11880   1.710   4.128  10.519  0.4304  0.3195  0.0066
  114OSM    C5S11881   1.621   4.310  10.485  0.9517  0.2870  0.2897
  114OSM    H5S11882   1.566   4.396  10.526  1.3157  0.8825 -0.4619
  114OSM    C6S11883   1.566   4.271  10.342 -0.3850 -0.3746 -0.5939
  114OSM    H6S11884   1.536   4.371  10.304 -1.3412 -0.2955  0.3144
  114OSM    H6T11885   1.469   4.218  10.340 -0.0403 -0.9985 -1.2445
  114OSM    C7S11886   1.670   4.225  10.239 -0.8229  0.2623  0.2638
  114OSM    H7S11887   1.700   4.118  10.252  1.1265  0.6986 -0.2507
  114OSM    H7T11888   1.766   4.278  10.252 -0.0891 -1.1279  0.7647
  114OSM    C8S11889   1.619   4.236  10.095 -0.4037  0.1462 -0.1080
  114OSM    H8S11890   1.515   4.197  10.096  0.5419 -2.8056  3.1337
  114OSM    H8T11891   1.675   4.162  10.035 -0.0062 -0.0164  0.4508
  114OSM    C9S11892   1.628   4.379  10.043  0.1641 -0.2922  0.1012
  114OSM    H9S11893   1.724   4.422  10.079 -1.1515  0.9009  2.4391
  114OSM    H9T11894   1.549   4.441  10.091  1.2652 -0.0554  1.6948
  114OSM   C10S11895   1.621   4.382   9.892  0.2358  0.1626 -0.8077
  114OSM   H10S11896   1.623   4.487   9.856  2.2605  0.5528  0.3321
  114OSM   H10T11897   1.532   4.330   9.849  0.7639  0.7589 -2.7373
  114OSM   C11S11898   1.742   4.323   9.826  0.4265 -0.2313 -0.6331
  114OSM   H11S11899   1.790   4.241   9.884  0.4339  1.4746  1.9377
  114OSM   H11T11900   1.820   4.402   9.817 -0.2316  0.2869 -2.2700
  114OSM   C12S11901   1.716   4.266   9.684  0.1494  0.5537 -0.4816
  114OSM   H12S11902   1.633   4.196   9.706  1.0779 -0.6940 -0.8608
  114OSM   H12T11903   1.801   4.207   9.644 -0.6538 -1.0637  0.1479
  114OSM   C13S11904   1.673   4.371   9.582  0.0192  0.5046 -0.4978
  114OSM   H13S11905   1.758   4.439   9.560  0.5395 -0.0477 -0.2454
  114OSM   H13T11906   1.589   4.430   9.624  0.4638  1.2434 -0.6321
  114OSM   C14S11907   1.640   4.306   9.445  0.4017 -0.9761  0.4894
  114OSM   H14S11908   1.554   4.236   9.452 -0.7344  0.4275  0.9066
  114OSM   H14T11909   1.731   4.244   9.426  0.5914 -1.4705  2.7501
  114OSM   C15S11910   1.634   4.407   9.336 -0.1514 -0.3890  0.0245
  114OSM   H15S11911   1.701   4.491   9.364  0.5429 -1.0271  0.3202
  114OSM   H15T11912   1.534   4.456   9.332  0.1903  0.4036  0.9395
  114OSM   C16S11913   1.677   4.361   9.197  0.9894 -0.7968  0.0749
  114OSM   H16S11914   1.617   4.268   9.186 -1.2041  0.7549 -1.9451
  114OSM   H16T11915   1.786   4.337   9.202  1.1309 -0.0314  0.7577
  114OSM   C17S11916   1.647   4.450   9.081  0.4979  0.5275 -0.1400
  114OSM   H17S11917   1.661   4.558   9.105  0.6464  0.5573 -0.3524
  114OSM   H17T11918   1.540   4.443   9.053  0.1076  1.2409  1.0834
  114OSM   C18S11919   1.732   4.407   8.969  0.0068 -0.5250  0.4960
  114OSM   H18S11920   1.710   4.304   8.933  1.3408  0.0555 -2.2144
  114OSM   H18T11921   1.840   4.420   8.992  0.0081  1.6685 -0.5237
  114OSM   H18U11922   1.723   4.474   8.881 -0.4103 -0.1833  0.7942
  114OSM    C1F11923   2.093   4.352  10.618  0.0892 -0.3046  0.4891
  114OSM     OF11924   2.155   4.249  10.632  0.8943  0.2842  0.0063
  114OSM    C2F11925   2.158   4.473  10.572  0.1243 -0.2770  0.1917
  114OSM    H2F11926   2.237   4.507  10.643 -0.7449  0.8242  0.6559
  114OSM    H2G11927   2.087   4.558  10.562 -0.2145 -0.2464  2.3829
  114OSM    C3F11928   2.222   4.447  10.436 -0.0227  0.7536  0.8065
  114OSM    H3F11929   2.287   4.358  10.443  0.2204  0.7613 -0.9456
  114OSM    H3G11930   2.279   4.538  10.408  1.0535 -0.6291 -1.8860
  114OSM    C4F11931   2.117   4.423  10.324  1.0130  0.1691 -0.5073
  114OSM    H4F11932   2.054   4.514  10.332  2.6600  1.3963 -0.8932
  114OSM    H4G11933   2.054   4.333  10.339  1.1611  0.2263  0.5688
  114OSM    C5F11934   2.166   4.422  10.178  0.3710 -0.5684 -0.3501
  114OSM    H5F11935   2.207   4.321  10.158 -2.7768 -2.0510 -0.0132
  114OSM    H5G11936   2.257   4.484  10.165  0.1183 -0.5090 -2.2520
  114OSM    C6F11937   2.062   4.465  10.078  0.5545 -0.4525 -0.3985
  114OSM    H6F11938   1.997   4.550  10.111 -1.1694 -1.8301 -0.1061
  114OSM    H6G11939   2.002   4.372  10.072 -0.9905  0.4193  0.7416
  114OSM    C7F11940   2.130   4.505   9.946 -0.3216  0.5894  0.3988
  114OSM    H7F11941   2.205   4.587   9.945 -0.0937  0.3834 -0.6071
  114OSM    H7G11942   2.052   4.551   9.882 -1.0038 -0.0372  0.7682
  114OSM    C8F11943   2.190   4.383   9.863  1.1521  0.6312 -0.4496
  114OSM    H8F11944   2.102   4.330   9.819  0.5502  0.7334  0.6034
  114OSM    H8G11945   2.244   4.319   9.935  1.3090  2.0963  0.7946
  114OSM    C9F11946   2.291   4.425   9.765 -0.6221 -0.0234 -0.6109
  114OSM    H9F11947   2.397   4.430   9.796  0.0995  0.4662 -2.9468
  114OSM   C10F11948   2.264   4.476   9.644 -0.4474 -0.0939  0.2918
  114OSM   H10F11949   2.352   4.498   9.581  0.0843 -0.8081  0.7605
  114OSM   C11F11950   2.129   4.500   9.583  0.2069  0.1916 -0.5397
  114OSM   H11F11951   2.041   4.471   9.645  1.7981 -0.4535  1.5129
  114OSM   H11G11952   2.121   4.439   9.490 -1.7627  0.9518 -0.9216
  114OSM   C12F11953   2.109   4.649   9.543  0.0903  0.4531  1.3905
  114OSM   H12F11954   2.207   4.681   9.501 -0.7936  0.9703 -0.4049
  114OSM   H12G11955   2.074   4.705   9.632 -1.9700 -1.0084  1.5744
  114OSM   C13F11956   2.014   4.670   9.423 -0.9104 -0.1244  0.6788
  114OSM   H13F11957   1.982   4.776   9.418  1.1683  0.5714  1.1627
  114OSM   H13G11958   1.930   4.597   9.430 -1.4810  0.4040 -0.4689
  114OSM   C14F11959   2.089   4.639   9.294  0.0294  0.2967 -0.5960
  114OSM   H14F11960   2.156   4.552   9.303 -0.9141 -0.2344  2.0710
  114OSM   H14G11961   2.164   4.719   9.279  0.3383  0.1742  0.2540
  114OSM   C15F11962   1.993   4.629   9.172  0.6367 -0.0713 -0.0588
  114OSM   H15F11963   1.927   4.718   9.163  0.0694 -0.4229  0.5221
  114OSM   H15G11964   1.919   4.547   9.180  1.8508 -1.0694  1.5764
  114OSM   C16F11965   2.074   4.611   9.039  0.7244  0.0542 -0.4334
  114OSM   H16F11966   2.078   4.503   9.014  0.1675 -0.9952  3.3978
  114OSM   H16G11967   2.181   4.636   9.056  0.6948  0.3529 -0.6699
  114OSM   C17F11968   2.024   4.691   8.917 -0.0687  0.1387  0.3257
  114OSM   H17F11969   2.027   4.799   8.942 -0.5328 -0.3347  2.6556
  114OSM   H17G11970   1.915   4.673   8.908 -0.5965  2.2960  1.7546
  114OSM   C18F11971   2.100   4.685   8.785 -0.1873 -0.5340 -0.3353
  114OSM   H18F11972   2.088   4.583   8.742 -0.6564 -1.1945  1.2824
  114OSM   H18G11973   2.207   4.694   8.812  0.3999  0.4083 -2.7353
  114OSM   H18H11974   2.053   4.763   8.721 -3.2689  0.2066  2.5220
  115OSM      N11975   4.415   2.672  11.345 -0.1565 -0.4652 -0.0400
  115OSM    C1511976   4.519   2.680  11.453  0.0309 -0.4222 -0.6533
  115OSM   H15A11977   4.497   2.771  11.508 -1.6581 -1.1902  0.0199
  115OSM   H15B11978   4.620   2.680  11.414 -0.0212  1.0414 -0.8662
  115OSM   H15C11979   4.503   2.598  11.521  0.0660 -1.9397 -2.4060
  115OSM    C1411980   4.387   2.526  11.302 -0.5498  0.6853 -0.9942
  115OSM   H14A11981   4.481   2.474  11.298 -1.2235 -0.5352 -1.4881
  115OSM   H14B11982   4.337   2.529  11.206 -0.8021  1.5347 -0.8444
  115OSM   H14C11983   4.337   2.477  11.384  0.5816  1.0786 -0.0423
  115OSM    C1311984   4.288   2.721  11.403 -0.4106  0.3023 -0.5575
  115OSM   H13A11985   4.266   2.687  11.503  0.3271  2.4165  0.3830
  115OSM   H13B11986   4.205   2.683  11.345  0.5049 -3.0150  0.0635
  115OSM   H13C11987   4.286   2.829  11.406  1.4364  0.3343  1.3334
  115OSM    C1211988   4.436   2.770  11.235  0.0979  0.7464 -0.0824
  115OSM   H12A11989   4.446   2.871  11.272  2.0681  0.7192 -0.4271
  115OSM   H12B11990   4.350   2.781  11.170 -0.1490  2.5880  0.5118
  115OSM    C1111991   4.557   2.748  11.146 -0.4695  0.4942  0.4982
  115OSM   H11A11992   4.547   2.827  11.069 -1.6785  1.2644  1.4046
  115OSM   H11B11993   4.566   2.651  11.094  3.1965  0.4629  0.9213
  115OSM      P11994   4.729   2.910  11.271  0.3653 -0.0368  0.1755
  115OSM    O1311995   4.613   2.998  11.306  0.1033  0.1078 -0.4561
  115OSM    O1411996   4.832   2.885  11.373  0.5669  0.1975 -0.2794
  115OSM    O1111997   4.811   2.971  11.151  0.6468  0.4424  0.3125
  115OSM    O1211998   4.679   2.771  11.219 -0.4265 -0.1647 -0.0881
  115OSM    C1S11999   4.908   2.908  11.063  0.4329 -0.4832 -0.9566
  115OSM    H1S12000   4.934   2.811  11.110  2.2463  1.9297  3.6502
  115OSM    H1T12001   5.005   2.962  11.058  0.8645 -1.2197 -0.6504
  115OSM     NF12002   4.947   2.848  10.822  0.2594 -0.0555  0.1950
  115OSM    HNF12003   4.987   2.911  10.756 -0.0696  0.5482  0.5718
  115OSM    C2S12004   4.842   2.891  10.917 -0.2207  0.7917 -0.0707
  115OSM    H2S12005   4.765   2.812  10.920  0.3774  0.2174  0.3915
  115OSM    C3S12006   4.769   3.010  10.861  0.4970  0.5233  0.1352
  115OSM    H3S12007   4.829   3.104  10.867  0.7705  0.3075  0.9211
  115OSM     O312008   4.645   3.033  10.936 -0.0991  0.4077 -0.5278
  115OSM    HO312009   4.643   2.995  11.025 -0.4346  0.1209 -0.6535
  115OSM    C4S12010   4.730   2.994  10.715  0.6680 -0.4964 -0.5758
  115OSM    H4S12011   4.661   2.909  10.702 -1.5926  1.2344 -0.4758
  115OSM    C5S12012   4.754   3.076  10.614  0.5593  0.2277 -0.1311
  115OSM    H5S12013   4.805   3.171  10.637  0.5760  0.0048  0.8069
  115OSM    C6S12014   4.705   3.038  10.473 -0.2589 -0.0185 -0.2790
  115OSM    H6S12015   4.641   3.120  10.432 -4.3361 -1.5723  2.3380
  115OSM    H6T12016   4.638   2.950  10.473 -1.5469  0.9066  1.2021
  115OSM    C7S12017   4.824   2.990  10.387  0.0640  0.5150  0.0870
  115OSM    H7S12018   4.872   2.906  10.442  1.5080  0.2351 -1.5013
  115OSM    H7T12019   4.898   3.069  10.363 -0.4756  0.3705 -2.3976
  115OSM    C8S12020   4.790   2.923  10.254 -0.2171 -0.4857 -0.3162
  115OSM    H8S12021   4.711   2.972  10.194 -1.0347 -0.7288  0.5498
  115OSM    H8T12022   4.750   2.822  10.277  2.0038 -1.2554  0.4379
  115OSM    C9S12023   4.921   2.897  10.170  0.1139  0.3675  0.2830
  115OSM    H9S12024   4.981   2.817  10.219  0.2435  0.5924  0.4949
  115OSM    H9T12025   4.986   2.987  10.171  2.4742 -1.2502  1.4430
  115OSM   C10S12026   4.897   2.852  10.023 -1.0954  0.1678 -0.2119
  115OSM   H10S12027   4.830   2.928   9.976 -1.0711  0.6488  0.5116
  115OSM   H10T12028   4.859   2.748  10.011  1.5378 -0.6947 -1.8548
  115OSM   C11S12029   5.032   2.831   9.949  1.0064 -0.3478  0.7644
  115OSM   H11S12030   5.092   2.754  10.003  1.3613 -0.0343  0.8233
  115OSM   H11T12031   5.080   2.931   9.959 -0.5399  0.4365  0.5885
  115OSM   C12S12032   5.020   2.783   9.801  0.1048  0.2238 -0.0677
  115OSM   H12S12033   4.947   2.701   9.791  0.6444 -0.6080  2.1074
  115OSM   H12T12034   5.119   2.736   9.785  1.2479  1.5241  2.5004
  115OSM   C13S12035   4.995   2.890   9.702 -0.1480 -0.5992  0.4033
  115OSM   H13S12036   5.048   2.986   9.722 -0.3246 -1.0186  3.2907
  115OSM   H13T12037   4.888   2.911   9.726 -0.1823  2.3362 -1.8195
  115OSM   C14S12038   5.011   2.838   9.557  0.0062 -0.2876 -0.0416
  115OSM   H14S12039   4.940   2.754   9.548 -1.7227  1.1223 -0.1106
  115OSM   H14T12040   5.117   2.810   9.538  0.1284 -0.1306  0.3978
  115OSM   C15S12041   4.980   2.937   9.448  0.6162  0.2790  0.2398
  115OSM   H15S12042   5.029   2.894   9.358 -1.1688 -0.8561 -0.2627
  115OSM   H15T12043   5.028   3.034   9.472  2.1488  0.2531 -2.3418
  115OSM   C16S12044   4.829   2.965   9.437 -0.3797 -0.3257  0.0209
  115OSM   H16S12045   4.814   3.057   9.376  0.6105  1.6289  2.5103
  115OSM   H16T12046   4.796   2.991   9.540  1.4514  0.5830  0.4290
  115OSM   C17S12047   4.752   2.855   9.369  1.2185 -0.3683 -0.1149
  115OSM   H17S12048   4.777   2.762   9.424 -0.2868  0.7586  2.6433
  115OSM   H17T12049   4.786   2.844   9.263  3.2962 -0.3221  0.4942
  115OSM   C18S12050   4.598   2.883   9.375 -0.1206  0.0012  0.0780
  115OSM   H18S12051   4.573   2.908   9.480 -2.2837  3.3200 -1.0754
  115OSM   H18T12052   4.538   2.796   9.342  0.3549 -1.6881  3.2959
  115OSM   H18U12053   4.565   2.968   9.312 -0.3875 -0.4022 -0.3262
  115OSM    C1F12054   4.998   2.726  10.829  0.3974  0.1143  0.1078
  115OSM     OF12055   4.950   2.638  10.897  0.4109 -0.5265 -0.3305
  115OSM    C2F12056   5.114   2.699  10.743  0.9228  0.0113  0.1361
  115OSM    H2F12057   5.197   2.679  10.813  0.3621 -1.2022  0.4757
  115OSM    H2G12058   5.134   2.791  10.683 -0.4094 -0.3391 -0.9071
  115OSM    C3F12059   5.094   2.583  10.638  1.0082  0.4135 -0.2304
  115OSM    H3F12060   5.074   2.490  10.695  3.4172 -0.9488 -1.4551
  115OSM    H3G12061   5.193   2.573  10.588  0.1020  0.4333 -2.1449
  115OSM    C4F12062   4.991   2.605  10.529  0.3821  0.6034  0.2389
  115OSM    H4F12063   5.003   2.708  10.489 -1.1447  0.2427 -1.2916
  115OSM    H4G12064   4.891   2.597  10.578  0.1630  2.7564  0.2440
  115OSM    C5F12065   5.022   2.513  10.413 -0.1253  0.7359 -0.0183
  115OSM    H5F12066   5.132   2.508  10.396 -0.2061  1.5440 -0.8151
  115OSM    H5G12067   4.981   2.554  10.319  2.2420  1.4556 -0.7998
  115OSM    C6F12068   4.980   2.368  10.432  0.1520 -0.1002  0.1752
  115OSM    H6F12069   4.878   2.372  10.476  0.1983  0.8265  0.2287
  115OSM    H6G12070   5.040   2.321  10.513  1.5968  0.0496 -0.7778
  115OSM    C7F12071   4.976   2.285  10.302  0.3875 -0.1136 -0.0178
  115OSM    H7F12072   4.997   2.353  10.216  0.4348 -0.7790 -0.5403
  115OSM    H7G12073   4.874   2.247  10.280 -0.2676  0.6538  1.5520
  115OSM    C8F12074   5.068   2.165  10.297  0.8312 -0.3025  0.2341
  115OSM    H8F12075   5.013   2.090  10.236 -0.3578  2.0937 -1.8046
  115OSM    H8G12076   5.068   2.119  10.398 -0.6930 -2.3265 -0.6207
  115OSM    C9F12077   5.204   2.188  10.243  0.4189 -0.3225 -1.0988
  115OSM    H9F12078   5.268   2.242  10.314 -0.7312  0.4747 -0.6437
  115OSM   C10F12079   5.252   2.128  10.135 -0.3331  0.8647 -0.4752
  115OSM   H10F12080   5.361   2.136  10.124 -0.0177 -0.0701  1.4861
  115OSM   C11F12081   5.174   2.044  10.032 -0.1135  0.6095 -1.0389
  115OSM   H11F12082   5.066   2.035  10.058  0.3069 -0.2689  0.5872
  115OSM   H11G12083   5.206   1.938  10.046 -1.7253  0.3808  1.6397
  115OSM   C12F12084   5.198   2.075   9.888  0.0260 -0.0163 -0.8781
  115OSM   H12F12085   5.216   1.981   9.833 -1.1850 -1.5150  1.1527
  115OSM   H12G12086   5.291   2.133   9.871  1.2272 -1.7605 -0.4268
  115OSM   C13F12087   5.081   2.149   9.821  0.1630 -0.5978 -0.1725
  115OSM   H13F12088   5.079   2.255   9.855  0.7048  0.2521 -2.5554
  115OSM   H13G12089   4.981   2.103   9.832 -0.1626 -0.4607 -2.1819
  115OSM   C14F12090   5.101   2.158   9.669  0.2900  0.4226  0.4524
  115OSM   H14F12091   5.093   2.056   9.625  0.3444  0.4280  0.4301
  115OSM   H14G12092   5.205   2.198   9.658 -0.0928  1.2447 -0.2582
  115OSM   C15F12093   5.019   2.247   9.586 -0.5047 -0.1160  0.9472
  115OSM   H15F12094   5.024   2.353   9.619 -1.0836  0.7624 -1.5626
  115OSM   H15G12095   4.910   2.229   9.580 -0.1006 -2.6471 -0.0466
  115OSM   C16F12096   5.061   2.247   9.433 -0.1325 -0.2095 -0.3672
  115OSM   H16F12097   5.067   2.139   9.408 -0.9399 -0.9438  2.2757
  115OSM   H16G12098   5.166   2.282   9.423  0.7353 -2.5533 -0.2732
  115OSM   C17F12099   4.970   2.319   9.339  0.0711  0.0768 -0.2026
  115OSM   H17F12100   4.871   2.275   9.365  0.7964  0.0671  2.9152
  115OSM   H17G12101   5.000   2.295   9.234 -0.4521 -4.1958  0.4140
  115OSM   C18F12102   4.964   2.468   9.381  0.2551  0.0663  0.5180
  115OSM   H18F12103   5.064   2.513   9.397  0.3935  0.4129 -1.1516
  115OSM   H18G12104   4.910   2.479   9.478 -0.3107  2.6065 -0.0019
  115OSM   H18H12105   4.908   2.528   9.306  0.2425  1.0361  1.2815
  116OSM      N12106   1.768   0.595  11.484 -0.1919  0.3287 -0.9072
  116OSM    C1512107   1.883   0.652  11.559  0.2324 -0.4482  0.4083
  116OSM   H15A12108   1.976   0.603  11.533  0.1981  0.5331 -1.7405
  116OSM   H15B12109   1.875   0.655  11.667 -1.6332  2.2234  0.3046
  116OSM   H15C12110   1.897   0.751  11.520 -0.0486 -1.0231 -1.2095
  116OSM    C1412111   1.696   0.487  11.560 -0.4868  0.3896 -0.6759
  116OSM   H14A12112   1.617   0.444  11.500  0.7135  1.8438 -3.5071
  116OSM   H14B12113   1.647   0.532  11.645  1.3172 -1.0742  1.2422
  116OSM   H14C12114   1.767   0.414  11.596  0.4559 -0.2916 -3.6417
  116OSM    C1312115   1.677   0.711  11.462  0.1815  0.7004  0.9469
  116OSM   H13A12116   1.588   0.678  11.411  0.8399 -0.2588  0.3799
  116OSM   H13B12117   1.725   0.786  11.402  1.7050 -0.0082  1.2297
  116OSM   H13C12118   1.653   0.759  11.556 -0.5652  0.3150  0.9578
  116OSM    C1212119   1.817   0.533  11.354  0.1853 -0.2237  0.2132
  116OSM   H12A12120   1.742   0.472  11.306  1.1842 -1.2208 -0.1274
  116OSM   H12B12121   1.893   0.459  11.375  3.3057  3.1453  2.0401
  116OSM    C1112122   1.900   0.619  11.242  0.4978 -0.2075 -0.3450
  116OSM   H11A12123   1.927   0.549  11.160  0.0985 -1.6580  0.7201
  116OSM   H11B12124   1.993   0.660  11.286  0.6708 -0.2292 -0.6853
  116OSM      P12125   1.720   0.684  11.070 -0.0653 -0.0782  0.0355
  116OSM    O1312126   1.646   0.558  11.093  0.3974  0.0385 -0.2294
  116OSM    O1412127   1.638   0.805  11.044  0.3627 -0.3997  0.2740
  116OSM    O1112128   1.831   0.662  10.961  0.6317 -0.2701  0.3168
  116OSM    O1212129   1.813   0.717  11.189 -0.8754 -0.0305  0.0856
  116OSM    C1S12130   1.846   0.553  10.874  0.1871  0.6482  0.1523
  116OSM    H1S12131   1.823   0.455  10.921  1.3875 -0.4587 -1.4743
  116OSM    H1T12132   1.951   0.545  10.841 -0.5230 -2.0421 -1.8115
  116OSM     NF12133   1.789   0.451  10.659  0.0032  0.3055  0.1198
  116OSM    HNF12134   1.850   0.463  10.580  0.0687 -1.7543 -0.1921
  116OSM    C2S12135   1.764   0.568  10.740 -0.3801 -0.7133  0.6565
  116OSM    H2S12136   1.656   0.574  10.764 -1.1925 -2.1288 -2.1920
  116OSM    C3S12137   1.803   0.698  10.665  0.2525 -0.3268  0.9476
  116OSM    H3S12138   1.914   0.698  10.658  0.3249  0.7935  1.8089
  116OSM     O312139   1.753   0.809  10.740  0.2182  0.2414 -0.6050
  116OSM    HO312140   1.693   0.776  10.807  0.4352  0.7338 -0.1670
  116OSM    C4S12141   1.752   0.704  10.521  0.4164  0.2348 -0.0384
  116OSM    H4S12142   1.828   0.670  10.450 -1.1859  0.6004 -2.0144
  116OSM    C5S12143   1.621   0.733  10.478  0.4496  0.1617 -1.1442
  116OSM    H5S12144   1.539   0.753  10.548  0.8167 -0.7315 -0.4352
  116OSM    C6S12145   1.576   0.729  10.331 -0.1128 -0.1928 -0.5649
  116OSM    H6S12146   1.531   0.830  10.319 -0.4351 -0.1960  0.5061
  116OSM    H6T12147   1.489   0.661  10.317  0.9104 -2.2358  2.0093
  116OSM    C7S12148   1.685   0.711  10.228  0.2192 -0.4007 -0.9303
  116OSM    H7S12149   1.722   0.608  10.246  0.7658 -0.0736 -0.1408
  116OSM    H7T12150   1.774   0.778  10.240  1.4998 -2.0628 -0.7747
  116OSM    C8S12151   1.626   0.723  10.088  0.6359 -0.2401  0.4378
  116OSM    H8S12152   1.578   0.823  10.084 -1.1549 -1.0484  0.8836
  116OSM    H8T12153   1.542   0.651  10.086 -1.7421  2.3251  1.8154
  116OSM    C9S12154   1.715   0.686   9.971 -0.3070 -0.1671  0.0815
  116OSM    H9S12155   1.723   0.576   9.969  0.0008 -0.1461  0.1205
  116OSM    H9T12156   1.816   0.729   9.986 -0.3826  0.4907 -1.1381
  116OSM   C10S12157   1.641   0.728   9.833  0.5428  0.4445 -1.0068
  116OSM   H10S12158   1.643   0.837   9.815 -0.9146  0.4999 -1.0000
  116OSM   H10T12159   1.536   0.691   9.833  0.7770 -0.2377 -1.0838
  116OSM   C11S12160   1.702   0.660   9.712  0.0257 -0.4689  0.6238
  116OSM   H11S12161   1.710   0.552   9.736  2.4146 -0.0526  2.0002
  116OSM   H11T12162   1.804   0.703   9.707 -0.3225  0.7869  3.1070
  116OSM   C12S12163   1.643   0.696   9.575  0.2822  0.0931  1.3705
  116OSM   H12S12164   1.641   0.807   9.569 -2.1925 -0.0104 -1.4570
  116OSM   H12T12165   1.538   0.662   9.568  0.8132 -1.3036 -0.7170
  116OSM   C13S12166   1.721   0.650   9.453 -0.6356  0.3151 -0.0833
  116OSM   H13S12167   1.714   0.540   9.450 -0.3647  0.2330  1.5617
  116OSM   H13T12168   1.827   0.673   9.478 -1.3538  4.6954 -0.1641
  116OSM   C14S12169   1.688   0.730   9.324 -0.1113 -0.7879 -0.2489
  116OSM   H14S12170   1.703   0.840   9.335 -1.5195 -0.6003  0.0122
  116OSM   H14T12171   1.578   0.730   9.309 -0.3769 -0.7434  1.4615
  116OSM   C15S12172   1.744   0.683   9.190  0.2222 -0.4871 -1.0138
  116OSM   H15S12173   1.702   0.746   9.109  0.8120  0.6130 -0.4919
  116OSM   H15T12174   1.716   0.576   9.178 -1.7374 -0.0257 -0.8558
  116OSM   C16S12175   1.899   0.694   9.184 -0.5637  0.2370  0.1994
  116OSM   H16S12176   1.949   0.612   9.240 -1.8711  0.1794  1.3477
  116OSM   H16T12177   1.921   0.793   9.227 -2.6489  0.3373  1.1967
  116OSM   C17S12178   1.959   0.687   9.046 -0.8367 -0.5154  0.2669
  116OSM   H17S12179   1.912   0.602   8.992  0.0134 -0.0339 -1.2928
  116OSM   H17T12180   2.069   0.671   9.055 -0.0315  3.6918 -0.3293
  116OSM   C18S12181   1.939   0.813   8.960  0.5302 -0.0759  0.4971
  116OSM   H18S12182   1.947   0.908   9.018  1.0381  1.4675 -1.9406
  116OSM   H18T12183   1.839   0.806   8.913  1.4781  2.2154 -2.1733
  116OSM   H18U12184   2.020   0.818   8.883  1.8420 -2.2552  1.6300
  116OSM    C1F12185   1.768   0.325  10.694  0.4071  0.6020 -0.1123
  116OSM     OF12186   1.702   0.291  10.797 -0.6766 -0.6019  0.2924
  116OSM    C2F12187   1.821   0.217  10.599  0.0611 -0.4859 -0.0419
  116OSM    H2F12188   1.927   0.231  10.569  0.0865  0.4662  0.4468
  116OSM    H2G12189   1.759   0.230  10.508  0.1030  0.2559  0.0296
  116OSM    C3F12190   1.783   0.073  10.642 -0.0015 -0.0531  0.2485
  116OSM    H3F12191   1.674   0.082  10.660 -0.2944 -0.0805 -1.3805
  116OSM    H3G12192   1.826   0.044  10.741  0.7948  0.1442 -0.0281
  116OSM    C4F12193   1.824  -0.028  10.540 -0.9592 -0.0119 -0.2174
  116OSM    H4F12194   1.756  -0.030  10.452 -0.4917  2.3501 -0.6903
  116OSM    H4G12195   1.820  -0.127  10.591  1.9513 -1.3155 -2.2015
  116OSM    C5F12196   1.963  -0.019  10.486  0.3804 -0.2531  0.3670
  116OSM    H5F12197   2.038  -0.034  10.566  1.9089  0.7520 -0.8184
  116OSM    H5G12198   1.986   0.080  10.442 -1.1494 -0.3176 -0.6620
  116OSM    C6F12199   1.989  -0.123  10.366  0.2325  0.2593  0.4930
  116OSM    H6F12200   2.078  -0.102  10.303  0.6761  1.5053  1.5045
  116OSM    H6G12201   1.907  -0.107  10.293  3.3237 -0.4474 -3.5304
  116OSM    C7F12202   1.984  -0.271  10.405  0.5578  0.2091  0.2127
  116OSM    H7F12203   1.889  -0.289  10.460  0.2569  1.0500 -0.0254
  116OSM    H7G12204   2.073  -0.300  10.465  1.2931 -0.2478 -1.0658
  116OSM    C8F12205   1.976  -0.366  10.280 -0.5266  0.5998 -0.0895
  116OSM    H8F12206   1.985  -0.469  10.322  0.1183  1.5420  2.2801
  116OSM    H8G12207   2.067  -0.345  10.220  0.3981  0.2528  1.1358
  116OSM    C9F12208   1.866  -0.353  10.184  0.6284  0.1851  0.1907
  116OSM    H9F12209   1.774  -0.343  10.244 -0.5332 -0.2357 -1.4324
  116OSM   C10F12210   1.853  -0.357  10.048  0.4589 -0.3830 -0.6155
  116OSM   H10F12211   1.749  -0.353  10.014  0.2950  0.0493 -0.0720
  116OSM   C11F12212   1.966  -0.386   9.953  0.3414 -0.2465  0.9196
  116OSM   H11F12213   1.925  -0.474   9.899 -1.4015 -0.7796  2.9608
  116OSM   H11G12214   2.067  -0.411   9.991  1.0466 -0.1059 -0.7926
  116OSM   C12F12215   1.989  -0.265   9.859 -1.1253  0.0844 -0.1053
  116OSM   H12F12216   2.097  -0.272   9.833 -1.2793 -1.6718 -0.4401
  116OSM   H12G12217   1.983  -0.173   9.920 -0.5534  1.5578 -2.1587
  116OSM   C13F12218   1.899  -0.258   9.744 -0.2667  0.1199  0.0552
  116OSM   H13F12219   1.795  -0.244   9.779 -0.6889  0.1729 -1.1818
  116OSM   H13G12220   1.892  -0.340   9.669 -3.0877  2.1382 -2.0960
  116OSM   C14F12221   1.923  -0.136   9.656  0.1151  0.0946 -0.3192
  116OSM   H14F12222   2.028  -0.133   9.620 -0.3236 -0.7953 -1.7703
  116OSM   H14G12223   1.919  -0.042   9.716  1.8368  1.6929 -2.5497
  116OSM   C15F12224   1.820  -0.122   9.540 -0.2335  0.0334  0.2731
  116OSM   H15F12225   1.857  -0.033   9.485 -2.6354  0.7618 -0.2825
  116OSM   H15G12226   1.720  -0.098   9.584  0.4783 -0.3154  2.1390
  116OSM   C16F12227   1.810  -0.236   9.437  0.2770 -0.2862  0.2293
  116OSM   H16F12228   1.778  -0.332   9.482 -2.0046  0.1235 -0.3761
  116OSM   H16G12229   1.912  -0.244   9.394  0.0364 -2.2489 -0.0719
  116OSM   C17F12230   1.700  -0.196   9.332 -0.2272  1.0240  0.1835
  116OSM   H17F12231   1.695  -0.086   9.318  0.0403  0.9124 -0.8225
  116OSM   H17G12232   1.601  -0.227   9.371  0.0041  2.9541  2.5579
  116OSM   C18F12233   1.738  -0.245   9.191  0.3942 -0.4098 -0.0693
  116OSM   H18F12234   1.778  -0.347   9.206  1.4115 -0.0615 -0.3015
  116OSM   H18G12235   1.809  -0.171   9.147  1.0489 -0.6018  0.6613
  116OSM   H18H12236   1.654  -0.241   9.118  1.1351 -3.1081 -1.1528
  117OSM      N12237   1.034   1.883  11.249  0.3126 -0.4118 -0.2598
  117OSM    C1512238   1.125   1.935  11.142 -0.0867  0.0201  0.7250
  117OSM   H15A12239   1.150   1.855  11.073  2.6040  1.3534  0.0040
  117OSM   H15B12240   1.222   1.971  11.175  0.8693 -0.8057 -1.0015
  117OSM   H15C12241   1.086   2.015  11.081 -0.6004 -0.3871  0.5143
  117OSM    C1412242   0.924   1.808  11.187  0.2709 -0.1659 -0.4574
  117OSM   H14A12243   0.858   1.867  11.125  1.5916 -0.4731 -2.2146
  117OSM   H14B12244   0.873   1.770  11.275 -0.4232  0.6758 -0.4696
  117OSM   H14C12245   0.952   1.725  11.125 -1.9358 -1.1280 -0.2744
  117OSM    C1312246   1.113   1.788  11.335  0.4076 -0.7241 -0.1978
  117OSM   H13A12247   1.203   1.839  11.368 -1.2093  2.0442  0.2045
  117OSM   H13B12248   1.152   1.708  11.273 -2.4462 -1.1038 -1.6665
  117OSM   H13C12249   1.062   1.753  11.423  0.3546  2.5418  1.2063
  117OSM    C1212250   0.981   1.994  11.338 -0.4896  0.2435  0.2087
  117OSM   H12A12251   1.064   2.042  11.388  1.4518  1.5108 -3.7722
  117OSM   H12B12252   0.915   1.952  11.412  0.4839  0.5727  1.2922
  117OSM    C1112253   0.911   2.116  11.270 -0.3729  0.1164 -0.6905
  117OSM   H11A12254   0.979   2.141  11.185  3.1120 -2.8707  0.9295
  117OSM   H11B12255   0.902   2.202  11.340  1.9991  0.8508 -1.1864
  117OSM      P12256   0.654   2.079  11.277 -0.1846 -0.1570 -0.3532
  117OSM    O1312257   0.618   1.947  11.319  0.3581  0.4321  0.4831
  117OSM    O1412258   0.657   2.185  11.384 -0.0383  0.1466 -0.5215
  117OSM    O1112259   0.545   2.119  11.166 -0.1086  0.0171  0.0751
  117OSM    O1212260   0.789   2.083  11.203 -0.1407  0.1111 -0.1697
  117OSM    C1S12261   0.590   2.152  11.029 -0.1667  0.6524 -0.1482
  117OSM    H1S12262   0.651   2.067  10.993 -1.3482 -0.0809 -0.4635
  117OSM    H1T12263   0.643   2.249  11.038  0.4486  0.2573  0.6702
  117OSM     NF12264   0.515   2.187  10.795  0.3637  0.2511 -0.1564
  117OSM    HNF12265   0.523   2.281  10.764 -0.1396 -0.1290 -1.5190
  117OSM    C2S12266   0.469   2.168  10.931  0.0868 -0.0374 -0.4003
  117OSM    H2S12267   0.408   2.075  10.933  0.8838 -0.6245 -1.7816
  117OSM    C3S12268   0.377   2.289  10.969  0.0969  0.2654 -0.4746
  117OSM    H3S12269   0.426   2.387  10.948 -0.6329  0.5151 -1.0536
  117OSM     O312270   0.338   2.283  11.107  0.9513 -0.1171 -0.3100
  117OSM    HO312271   0.405   2.227  11.148  1.1280 -0.6068 -1.2362
  117OSM    C4S12272   0.247   2.295  10.897  0.0770  0.3448  0.3361
  117OSM    H4S12273   0.176   2.213  10.914 -1.8926  2.1965  1.5756
  117OSM    C5S12274   0.206   2.395  10.817  0.4537 -0.1527  0.3808
  117OSM    H5S12275   0.271   2.479  10.788 -2.0919  1.0795 -2.2344
  117OSM    C6S12276   0.070   2.396  10.746 -0.1850  0.3506 -0.7842
  117OSM    H6S12277   0.020   2.492  10.771  2.6842  1.6176  0.5770
  117OSM    H6T12278  -0.008   2.328  10.786 -0.2498  0.6879 -0.3305
  117OSM    C7S12279   0.078   2.371  10.593  0.2113 -0.9685 -0.8147
  117OSM    H7S12280  -0.021   2.349  10.547  0.5098  0.0503 -1.9800
  117OSM    H7T12281   0.136   2.277  10.577 -0.4179 -1.6758  0.8273
  117OSM    C8S12282   0.123   2.505  10.521 -0.2386  0.4584 -0.0237
  117OSM    H8S12283   0.193   2.551  10.594 -0.2956  0.6826 -0.1104
  117OSM    H8T12284   0.041   2.580  10.521 -1.2117 -0.5686  0.8895
  117OSM    C9S12285   0.172   2.498  10.376 -0.4525 -0.2172 -0.2709
  117OSM    H9S12286   0.098   2.436  10.321  0.1004 -1.7543  0.6627
  117OSM    H9T12287   0.273   2.452  10.375  0.3731  1.5063 -0.2528
  117OSM   C10S12288   0.213   2.637  10.315  0.1171 -0.2391 -0.0725
  117OSM   H10S12289   0.300   2.672  10.376 -0.7669 -0.7180  1.5142
  117OSM   H10T12290   0.127   2.706  10.323 -1.3738 -1.5205 -3.3671
  117OSM   C11S12291   0.268   2.628  10.176  0.6293  0.2381  0.5081
  117OSM   H11S12292   0.341   2.546  10.163 -1.1761 -1.1507 -1.5019
  117OSM   H11T12293   0.315   2.725  10.148  0.6568 -0.1347 -0.8070
  117OSM   C12S12294   0.168   2.606  10.071  0.4069  0.3991  0.2663
  117OSM   H12S12295   0.084   2.677  10.086  0.2702  0.5527 -1.0974
  117OSM   H12T12296   0.118   2.508  10.080  2.6126 -0.8506 -0.4468
  117OSM   C13S12297   0.217   2.634   9.927 -0.0461 -0.1758  0.0321
  117OSM   H13S12298   0.312   2.578   9.915  0.0181  0.1690 -1.2141
  117OSM   H13T12299   0.242   2.743   9.925  3.5200 -0.8506 -0.5068
  117OSM   C14S12300   0.112   2.597   9.820 -0.1834  0.1945  0.4701
  117OSM   H14S12301   0.018   2.656   9.830  0.7034  2.0535 -1.2590
  117OSM   H14T12302   0.098   2.487   9.825  0.1030  0.1565  0.4676
  117OSM   C15S12303   0.170   2.619   9.682  0.0067  0.6213  0.0850
  117OSM   H15S12304   0.266   2.562   9.680 -0.7979 -0.8085  0.7498
  117OSM   H15T12305   0.189   2.729   9.680  0.6267  0.5294  0.6248
  117OSM   C16S12306   0.077   2.568   9.574 -0.0738 -0.1190 -0.2698
  117OSM   H16S12307  -0.028   2.601   9.581  0.7185  2.4530  0.6895
  117OSM   H16T12308   0.073   2.458   9.588 -0.9156  0.0516  1.0356
  117OSM   C17S12309   0.138   2.594   9.427  0.1457 -0.1821 -0.5534
  117OSM   H17S12310   0.243   2.556   9.428 -0.2686 -1.3188  0.0127
  117OSM   H17T12311   0.153   2.703   9.408 -1.9539  0.3162  0.4490
  117OSM   C18S12312   0.045   2.533   9.322 -0.2473  0.3252 -0.2239
  117OSM   H18S12313   0.005   2.434   9.353  0.6630 -0.5846 -1.7932
  117OSM   H18T12314   0.093   2.530   9.221 -0.1727  0.2937 -0.1872
  117OSM   H18U12315  -0.042   2.600   9.305  1.0760  1.9675 -0.8383
  117OSM    C1F12316   0.583   2.088  10.737 -0.0924  0.3488 -0.7836
  117OSM     OF12317   0.586   1.977  10.780  0.1205 -0.2779  0.3289
  117OSM    C2F12318   0.655   2.125  10.604  0.6270 -0.3355  0.1709
  117OSM    H2F12319   0.761   2.097  10.622  0.5728 -1.2873 -0.8992
  117OSM    H2G12320   0.642   2.235  10.588  1.0396 -0.4281 -0.8446
  117OSM    C3F12321   0.601   2.045  10.484 -0.3508 -0.0955 -0.8421
  117OSM    H3F12322   0.593   1.934  10.493 -0.6161  0.0551  1.1511
  117OSM    H3G12323   0.673   2.060  10.401 -0.2767 -4.1571 -1.7424
  117OSM    C4F12324   0.457   2.088  10.445 -0.5916  0.4117 -0.0656
  117OSM    H4F12325   0.442   2.198  10.454 -0.1957  0.7203 -2.5801
  117OSM    H4G12326   0.382   2.028  10.501  1.9243 -4.4615 -1.2788
  117OSM    C5F12327   0.429   2.060  10.302 -0.1506  0.4669 -0.1534
  117OSM    H5F12328   0.407   1.954  10.278 -1.5708  0.8590 -0.7162
  117OSM    H5G12329   0.522   2.080  10.243  0.4927  1.2431  1.0873
  117OSM    C6F12330   0.311   2.143  10.246  0.3211 -0.8832  0.4940
  117OSM    H6F12331   0.345   2.248  10.248 -0.2094 -0.7115  0.8163
  117OSM    H6G12332   0.224   2.139  10.315 -1.1884 -0.4906 -1.3287
  117OSM    C7F12333   0.268   2.119  10.095  0.5006  0.0605 -0.1917
  117OSM    H7F12334   0.358   2.146  10.037 -0.4137 -1.0122 -2.1968
  117OSM    H7G12335   0.202   2.203  10.064  0.7964  0.9194  1.3976
  117OSM    C8F12336   0.212   1.984  10.076  0.1570 -0.5771  0.1478
  117OSM    H8F12337   0.294   1.913  10.100  0.6790 -1.9853 -4.7567
  117OSM    H8G12338   0.209   1.953   9.970  1.9065 -0.7514  0.1236
  117OSM    C9F12339   0.086   1.946  10.147  0.3485  0.4635 -0.8578
  117OSM    H9F12340   0.087   1.963  10.256  0.4410  1.2758 -0.9781
  117OSM   C10F12341  -0.027   1.901  10.087 -0.3884 -0.4080 -0.5357
  117OSM   H10F12342  -0.113   1.864  10.143  1.0722 -2.4710  0.4591
  117OSM   C11F12343  -0.040   1.869   9.940 -0.4236 -0.2434  0.6127
  117OSM   H11F12344  -0.131   1.807   9.928  1.6735 -3.9172  2.1920
  117OSM   H11G12345   0.040   1.797   9.911 -1.7324 -1.6528  0.3974
  117OSM   C12F12346  -0.046   1.984   9.830 -0.4463 -0.4111  0.2248
  117OSM   H12F12347   0.021   2.064   9.867 -1.7188  1.0834 -0.6163
  117OSM   H12G12348  -0.143   2.036   9.814 -0.2803 -0.3062 -0.4674
  117OSM   C13F12349   0.027   1.948   9.698  0.7190 -0.0279  0.6916
  117OSM   H13F12350  -0.042   1.891   9.631 -0.1841  0.2958  1.3279
  117OSM   H13G12351   0.127   1.903   9.717  1.2333  1.5522  1.8367
  117OSM   C14F12352   0.062   2.078   9.625  0.4573 -0.3564 -0.3135
  117OSM   H14F12353   0.133   2.133   9.690  1.9218 -1.1010 -1.2377
  117OSM   H14G12354  -0.029   2.140   9.607  0.3270 -0.4273  0.0998
  117OSM   C15F12355   0.112   2.065   9.485 -0.3981  0.6559 -0.0591
  117OSM   H15F12356   0.220   2.040   9.486  0.0083  2.3117  0.5783
  117OSM   H15G12357   0.101   2.164   9.435 -1.9240  0.6383  0.1939
  117OSM   C16F12358   0.046   1.958   9.399 -0.7448 -0.3888  0.3006
  117OSM   H16F12359   0.068   1.859   9.444 -0.0328 -1.2385 -1.8189
  117OSM   H16G12360   0.099   1.956   9.301 -0.8189 -1.8932  0.2759
  117OSM   C17F12361  -0.100   1.985   9.367 -0.2074  0.4332  0.1677
  117OSM   H17F12362  -0.159   1.982   9.461 -1.6020 -1.8142 -0.7223
  117OSM   H17G12363  -0.130   1.904   9.298  0.2511  1.7508 -1.6562
  117OSM   C18F12364  -0.129   2.120   9.303  0.2648 -0.2050 -0.0297
  117OSM   H18F12365  -0.224   2.112   9.246  0.5208  0.4349 -0.5483
  117OSM   H18G12366  -0.049   2.143   9.230  0.3640  0.1315  0.1821
  117OSM   H18H12367  -0.133   2.205   9.375  0.3620  0.6577 -1.0199
  118OSM      N12368   0.337   3.251  11.401  0.4614 -0.3308 -0.3027
  118OSM    C1512369   0.466   3.200  11.360 -0.2738  0.2650  0.5977
  118OSM   H15A12370   0.468   3.094  11.337 -1.6301  0.3991 -0.2987
  118OSM   H15B12371   0.537   3.233  11.434  0.5027 -1.2224  0.5483
  118OSM   H15C12372   0.493   3.228  11.259  0.2790  0.1720  0.7169
  118OSM    C1412373   0.294   3.187  11.529  0.3112  0.4771 -0.0306
  118OSM   H14A12374   0.255   3.086  11.521 -0.3574  0.6703  0.6108
  118OSM   H14B12375   0.216   3.243  11.579  1.9568 -0.0173  3.3373
  118OSM   H14C12376   0.375   3.188  11.600 -0.0217  0.4691  0.3557
  118OSM    C1312377   0.344   3.404  11.416 -0.5257 -0.0683 -0.4678
  118OSM   H13A12378   0.368   3.456  11.325  1.9111 -0.9196 -0.3984
  118OSM   H13B12379   0.422   3.410  11.491  1.1452 -2.6841 -1.8328
  118OSM   H13C12380   0.261   3.448  11.469  0.3232  2.5447 -1.1815
  118OSM    C1212381   0.230   3.222  11.289  0.3776 -0.2879 -0.0247
  118OSM   H12A12382   0.140   3.275  11.320  1.0461 -0.8713  3.3635
  118OSM   H12B12383   0.220   3.115  11.284 -0.6322 -0.2096 -0.0286
  118OSM    C1112384   0.265   3.273  11.148 -0.5651 -0.0837  0.3061
  118OSM   H11A12385   0.198   3.227  11.073  1.0327  0.3268 -1.4538
  118OSM   H11B12386   0.369   3.240  11.130 -0.8531 -1.2239  0.6893
  118OSM      P12387   0.127   3.509  11.119 -0.0970  0.3763  0.0738
  118OSM    O1312388   0.053   3.498  11.245  0.4233  0.6490 -0.1929
  118OSM    O1412389   0.159   3.637  11.056 -0.2304  0.6278 -0.1900
  118OSM    O1112390   0.037   3.418  11.020 -0.2108  0.5407  0.3000
  118OSM    O1212391   0.260   3.420  11.139 -0.0540  0.0885 -0.6338
  118OSM    C1S12392  -0.012   3.464  10.896  0.2210  0.4677  0.0429
  118OSM    H1S12393   0.075   3.516  10.850  1.6783  0.8389  2.9441
  118OSM    H1T12394  -0.090   3.542  10.913 -1.2499 -1.2008  1.3715
  118OSM     NF12395  -0.091   3.406  10.677 -0.1807 -0.3288 -0.4874
  118OSM    HNF12396  -0.179   3.453  10.670 -0.6049 -0.7286  1.6520
  118OSM    C2S12397  -0.060   3.350  10.809  0.4778  0.0888  0.5429
  118OSM    H2S12398   0.021   3.275  10.805 -0.8355 -1.3534  0.0916
  118OSM    C3S12399  -0.181   3.273  10.869  0.9433  0.1604 -0.2594
  118OSM    H3S12400  -0.271   3.338  10.865  1.8516  1.4701  0.0488
  118OSM     O312401  -0.165   3.236  11.007  0.2172  0.7968 -0.3350
  118OSM    HO312402  -0.086   3.283  11.035 -1.5790  2.8116  1.7312
  118OSM    C4S12403  -0.224   3.155  10.786 -0.4068 -0.5507  0.1172
  118OSM    H4S12404  -0.150   3.084  10.744 -1.2558 -0.1133 -2.2772
  118OSM    C5S12405  -0.354   3.113  10.768  0.1619  0.2156 -0.0473
  118OSM    H5S12406  -0.434   3.179  10.805  2.1030  2.0056  1.1960
  118OSM    C6S12407  -0.399   3.000  10.685  0.2061 -0.8773 -0.3398
  118OSM    H6S12408  -0.463   2.930  10.744  0.1148  0.9351  1.8252
  118OSM    H6T12409  -0.304   2.953  10.652  0.7069 -1.2848  1.5445
  118OSM    C7S12410  -0.475   3.042  10.556 -0.0591  0.2350  0.2003
  118OSM    H7S12411  -0.569   3.097  10.579 -1.0458 -0.7617 -1.2942
  118OSM    H7T12412  -0.512   2.947  10.513  0.2993 -0.7070  1.9067
  118OSM    C8S12413  -0.385   3.107  10.455  0.5723  0.2751  0.1899
  118OSM    H8S12414  -0.308   3.036  10.418 -1.8837 -1.6302 -1.5620
  118OSM    H8T12415  -0.332   3.193  10.502 -1.1135  1.3274  0.2765
  118OSM    C9S12416  -0.471   3.162  10.343 -0.8065 -0.5616  0.3577
  118OSM    H9S12417  -0.553   3.231  10.375  0.9302  1.6233  0.3064
  118OSM    H9T12418  -0.526   3.072  10.307  2.1950 -1.4899 -2.3486
  118OSM   C10S12419  -0.386   3.230  10.234  0.3727 -0.5573 -0.4941
  118OSM   H10S12420  -0.351   3.143  10.175  0.5584 -1.4258  0.8567
  118OSM   H10T12421  -0.290   3.268  10.275  0.9523 -2.5842  0.1154
  118OSM   C11S12422  -0.454   3.341  10.156  0.0698 -0.5378 -0.5532
  118OSM   H11S12423  -0.478   3.416  10.234  1.6346  0.2833 -0.8113
  118OSM   H11T12424  -0.557   3.304  10.135 -0.0412 -0.0465 -0.9132
  118OSM   C12S12425  -0.386   3.403  10.040 -0.3238 -0.0654 -0.3481
  118OSM   H12S12426  -0.278   3.400  10.068 -0.1159 -1.0049 -1.1724
  118OSM   H12T12427  -0.413   3.509  10.024 -0.9600 -0.3326 -1.1043
  118OSM   C13S12428  -0.417   3.335   9.908  0.4900  0.0949  0.0063
  118OSM   H13S12429  -0.522   3.354   9.880  0.5707 -0.4451 -0.6842
  118OSM   H13T12430  -0.401   3.225   9.910  0.6480  0.0859 -1.0781
  118OSM   C14S12431  -0.328   3.404   9.803  0.2033 -0.1292 -0.0994
  118OSM   H14S12432  -0.224   3.395   9.840 -0.3822  0.9066  1.9425
  118OSM   H14T12433  -0.353   3.512   9.805 -0.3029 -0.2557  0.7549
  118OSM   C15S12434  -0.331   3.328   9.669  0.0931 -0.2274 -0.8451
  118OSM   H15S12435  -0.436   3.346   9.640 -0.1549 -0.8230 -0.3377
  118OSM   H15T12436  -0.304   3.223   9.694  1.3298  0.5303  1.3169
  118OSM   C16S12437  -0.227   3.372   9.568  0.6180  0.4780  0.4384
  118OSM   H16S12438  -0.120   3.368   9.596  1.8176  0.2756 -3.6141
  118OSM   H16T12439  -0.251   3.477   9.540  1.5820  0.8188  0.8586
  118OSM   C17S12440  -0.252   3.283   9.450  0.5883  0.7442  0.1065
  118OSM   H17S12441  -0.359   3.286   9.420  0.9100 -1.9281 -1.7495
  118OSM   H17T12442  -0.221   3.178   9.473  1.1967  1.2202  1.5751
  118OSM   C18S12443  -0.161   3.316   9.334  0.8436 -0.0514 -0.5009
  118OSM   H18S12444  -0.193   3.264   9.240  1.0899 -0.3928 -0.3977
  118OSM   H18T12445  -0.056   3.286   9.354  0.0534 -1.9528  1.1304
  118OSM   H18U12446  -0.160   3.426   9.318 -0.4586  0.1200  0.3998
  118OSM    C1F12447   0.013   3.423  10.594  0.3385  0.0687  0.0543
  118OSM     OF12448   0.124   3.389  10.628 -0.9936  0.9050  0.1977
  118OSM    C2F12449  -0.016   3.488  10.459 -0.0713 -0.2784 -0.4700
  118OSM    H2F12450  -0.070   3.585  10.470  0.4455 -0.0008 -0.3099
  118OSM    H2G12451  -0.085   3.423  10.402 -2.1984  1.2386  0.2595
  118OSM    C3F12452   0.104   3.512  10.378 -0.3251 -0.4925  0.4791
  118OSM    H3F12453   0.150   3.415  10.350  0.6060 -0.1105  0.6661
  118OSM    H3G12454   0.184   3.567  10.433  0.5451  0.3034 -1.4738
  118OSM    C4F12455   0.072   3.590  10.251  0.1617 -0.8565 -0.1224
  118OSM    H4F12456   0.162   3.600  10.186 -2.0601  3.7630 -2.9577
  118OSM    H4G12457   0.022   3.685  10.276  1.3305 -0.4889  0.9143
  118OSM    C5F12458  -0.013   3.510  10.153 -0.2928 -0.3366 -0.2745
  118OSM    H5F12459  -0.120   3.520  10.182 -0.5523  0.9392 -1.5398
  118OSM    H5G12460   0.014   3.402  10.153  2.5826  0.1891  3.3142
  118OSM    C6F12461   0.012   3.557  10.008 -0.2842 -0.8020  0.5998
  118OSM    H6F12462   0.022   3.667  10.012  1.4678 -0.9201  0.6133
  118OSM    H6G12463  -0.077   3.530   9.947 -0.1692 -0.4021  0.2485
  118OSM    C7F12464   0.137   3.500   9.934 -0.3066 -0.0442  0.2888
  118OSM    H7F12465   0.143   3.391   9.956 -1.0649  0.4652  3.5229
  118OSM    H7G12466   0.229   3.540   9.981  1.5388 -2.3511 -1.1281
  118OSM    C8F12467   0.130   3.533   9.787 -0.1645 -0.9607  0.2272
  118OSM    H8F12468   0.106   3.641   9.775 -0.7348 -1.2389 -1.5784
  118OSM    H8G12469   0.042   3.479   9.744 -0.1745 -1.8064  1.2778
  118OSM    C9F12470   0.259   3.523   9.706  0.8141 -0.4307 -0.5077
  118OSM    H9F12471   0.344   3.530   9.776 -0.4191 -0.2029  1.0316
  118OSM   C10F12472   0.263   3.499   9.577 -0.2584 -0.2621 -0.2335
  118OSM   H10F12473   0.360   3.497   9.525 -0.7293 -0.4510 -1.1285
  118OSM   C11F12474   0.160   3.478   9.468 -1.0572 -0.6201 -0.9503
  118OSM   H11F12475   0.057   3.491   9.508 -0.3693  1.0052  0.3862
  118OSM   H11G12476   0.153   3.369   9.445  0.1067 -0.7340 -0.8072
  118OSM   C12F12477   0.190   3.563   9.342 -0.2621  0.6171  0.3130
  118OSM   H12F12478   0.297   3.546   9.317 -0.9317 -0.0685 -2.3603
  118OSM   H12G12479   0.163   3.668   9.366 -1.6783 -0.1518  2.3979
  118OSM   C13F12480   0.116   3.521   9.213 -0.3189 -0.1548 -0.1697
  118OSM   H13F12481   0.006   3.513   9.221 -0.2681  0.2811  1.0354
  118OSM   H13G12482   0.154   3.422   9.177  1.2222  0.3507 -0.0413
  118OSM   C14F12483   0.149   3.630   9.107 -0.1317  0.2925 -0.2771
  118OSM   H14F12484   0.250   3.674   9.126  1.5152 -2.6298 -1.6132
  118OSM   H14G12485   0.073   3.711   9.112  0.0593  0.6400 -2.2605
  118OSM   C15F12486   0.159   3.565   8.965  0.1121 -0.3981 -0.2054
  118OSM   H15F12487   0.067   3.503   8.953  0.6010 -1.2016  0.1103
  118OSM   H15G12488   0.248   3.500   8.957  2.3442  2.5075 -0.6417
  118OSM   C16F12489   0.149   3.664   8.851 -0.0153 -0.3326  0.3225
  118OSM   H16F12490   0.220   3.747   8.873 -2.4120  1.3082  2.4727
  118OSM   H16G12491   0.045   3.703   8.859  0.3828  1.4051 -2.0449
  118OSM   C17F12492   0.157   3.598   8.711 -0.1084 -0.2313 -0.0037
  118OSM   H17F12493   0.255   3.547   8.701 -0.9410 -1.4577 -2.8855
  118OSM   H17G12494   0.141   3.669   8.627 -2.1323  1.3880  1.6504
  118OSM   C18F12495   0.053   3.491   8.697 -0.5213 -0.4311  0.3916
  118OSM   H18F12496   0.062   3.470   8.589 -0.4726  2.0338 -0.1292
  118OSM   H18G12497  -0.045   3.535   8.725 -0.2210  1.9721 -1.9674
  118OSM   H18H12498   0.079   3.399   8.755  1.6159  0.8449  1.5876
  119OSM      N12499   0.650   2.546  11.191  0.3332 -0.0660 -0.3230
  119OSM    C1512500   0.511   2.516  11.234  0.1904 -0.4072 -0.1557
  119OSM   H15A12501   0.451   2.602  11.208  0.5869 -0.0312  0.1439
  119OSM   H15B12502   0.506   2.507  11.342  1.5333  0.7178  0.0326
  119OSM   H15C12503   0.470   2.424  11.197  0.8810 -0.7487 -0.1010
  119OSM    C1412504   0.692   2.674  11.254 -0.5850 -0.1281 -0.8719
  119OSM   H14A12505   0.684   2.660  11.361 -1.2457 -0.3226 -0.9428
  119OSM   H14B12506   0.643   2.765  11.223 -1.8177  0.7049  3.0218
  119OSM   H14C12507   0.797   2.691  11.236 -0.4131 -1.1494 -0.9467
  119OSM    C1312508   0.744   2.443  11.247  0.5670  0.1586  0.0463
  119OSM   H13A12509   0.710   2.345  11.218 -0.7367  0.5241  0.2635
  119OSM   H13B12510   0.748   2.436  11.355  3.4459 -0.8532 -0.0410
  119OSM   H13C12511   0.840   2.458  11.200 -0.3518 -1.3832 -2.5460
  119OSM    C1212512   0.669   2.556  11.041 -0.0156 -0.2944  0.4576
  119OSM   H12A12513   0.593   2.618  10.997 -0.9271 -0.7658  1.3410
  119OSM   H12B12514   0.655   2.456  11.004 -0.7417 -0.5302  1.3190
  119OSM    C1112515   0.822   2.592  10.998  0.8228 -0.2112 -1.0201
  119OSM   H11A12516   0.862   2.686  11.041 -0.3628 -0.0142 -0.2888
  119OSM   H11B12517   0.815   2.609  10.888 -2.7715  1.3400 -0.6870
  119OSM      P12518   1.042   2.449  10.964  0.0602 -0.3514  0.4618
  119OSM    O1312519   1.150   2.511  11.049  0.2109 -0.1223  0.5170
  119OSM    O1412520   1.049   2.308  10.922  1.0727  0.3783  0.0072
  119OSM    O1112521   1.031   2.541  10.831 -0.2552 -0.2703 -0.2195
  119OSM    O1212522   0.906   2.480  11.034 -0.1682  0.2753 -0.2830
  119OSM    C1S12523   0.976   2.464  10.718  0.2279  0.5138  0.0991
  119OSM    H1S12524   0.872   2.429  10.736  0.2056 -0.9962 -2.4619
  119OSM    H1T12525   1.042   2.379  10.686 -1.0282 -0.1728 -0.7731
  119OSM     NF12526   0.936   2.479  10.472 -0.1962 -0.5041 -0.1561
  119OSM    HNF12527   1.009   2.422  10.436 -0.9251 -1.7316  0.2734
  119OSM    C2S12528   0.976   2.560  10.592  0.6629  0.1897 -0.1682
  119OSM    H2S12529   0.894   2.632  10.610  3.8536  4.2754 -0.2702
  119OSM    C3S12530   1.112   2.633  10.568 -0.1600  0.0915  0.0535
  119OSM    H3S12531   1.178   2.546  10.548 -1.6278 -0.7121 -1.5813
  119OSM     O312532   1.167   2.706  10.681 -0.9872 -0.0079 -0.3348
  119OSM    HO312533   1.126   2.662  10.755  0.5953  0.6127  0.9691
  119OSM    C4S12534   1.099   2.734  10.461 -0.0658 -0.1149 -0.4080
  119OSM    H4S12535   1.073   2.835  10.495  3.4609  1.7406 -2.5798
  119OSM    C5S12536   1.131   2.715  10.331 -0.3154 -0.4760 -1.1140
  119OSM    H5S12537   1.152   2.613  10.296 -2.5410 -1.9423  1.4109
  119OSM    C6S12538   1.116   2.814  10.226 -0.5518 -0.1285 -0.1380
  119OSM    H6S12539   1.204   2.807  10.159 -1.8112 -1.4638 -1.7291
  119OSM    H6T12540   1.107   2.924  10.241  0.1600 -0.1907  0.8930
  119OSM    C7S12541   0.985   2.786  10.153  0.6842 -0.2578 -0.1739
  119OSM    H7S12542   0.898   2.788  10.222  1.1213 -0.1820  0.3865
  119OSM    H7T12543   0.987   2.688  10.101 -1.5937  0.7880 -2.4525
  119OSM    C8S12544   0.956   2.887  10.039 -0.0882 -0.2423 -0.6759
  119OSM    H8S12545   0.925   2.984  10.084  1.7141 -0.2727  0.7338
  119OSM    H8T12546   0.869   2.855   9.977 -0.6340  2.8124 -1.6437
  119OSM    C9S12547   1.063   2.903   9.925  0.0197 -0.5148 -0.9756
  119OSM    H9S12548   1.090   2.802   9.888 -1.6704 -1.4031  0.1271
  119OSM    H9T12549   1.154   2.951   9.968  0.2936 -1.4918 -0.4366
  119OSM   C10S12550   0.999   2.974   9.808  0.2700  0.3148 -0.5931
  119OSM   H10S12551   0.958   3.072   9.838  1.3518  0.8425 -0.8098
  119OSM   H10T12552   0.911   2.916   9.771 -1.8139  0.5876  3.4172
  119OSM   C11S12553   1.089   2.996   9.695  0.1048  0.3878 -0.0921
  119OSM   H11S12554   1.131   2.903   9.651 -0.9757 -1.9075  3.2865
  119OSM   H11T12555   1.181   3.055   9.716  0.5549 -0.2538 -0.2119
  119OSM   C12S12556   1.034   3.091   9.583  0.1006 -0.5065  0.0061
  119OSM   H12S12557   1.109   3.151   9.527  0.8010 -0.6955  0.7403
  119OSM   H12T12558   0.987   3.176   9.637 -0.1609 -0.5318 -0.1757
  119OSM   C13S12559   0.937   3.025   9.485  0.3731 -0.4681 -0.6645
  119OSM   H13S12560   0.850   2.992   9.547  0.4216 -0.9734 -0.8607
  119OSM   H13T12561   0.989   2.933   9.451  2.3396  0.8862 -1.4715
  119OSM   C14S12562   0.898   3.114   9.367 -0.3896  0.0866  0.1040
  119OSM   H14S12563   0.983   3.155   9.308  0.8071 -0.5879  1.2909
  119OSM   H14T12564   0.843   3.206   9.396  0.1861  0.8002 -1.0017
  119OSM   C15S12565   0.807   3.023   9.281 -0.8311  0.5217 -0.9162
  119OSM   H15S12566   0.723   2.974   9.333 -1.0348  0.3522 -1.4019
  119OSM   H15T12567   0.856   2.941   9.224 -1.7012  0.8327 -2.1580
  119OSM   C16S12568   0.740   3.116   9.171  0.9432  0.2812 -0.2375
  119OSM   H16S12569   0.830   3.155   9.120  2.2612 -0.4569  1.4267
  119OSM   H16T12570   0.691   3.200   9.225  1.1954 -0.0692  0.5407
  119OSM   C17S12571   0.644   3.038   9.084  0.4528 -0.1407 -0.4034
  119OSM   H17S12572   0.562   3.098   9.039 -1.3335 -1.0670  1.4750
  119OSM   H17T12573   0.580   2.972   9.146 -1.3674 -0.6845 -2.6990
  119OSM   C18S12574   0.701   2.958   8.969 -0.4317  1.0942 -0.1152
  119OSM   H18S12575   0.629   2.888   8.922  0.0487 -0.2744  1.0949
  119OSM   H18T12576   0.797   2.906   8.994  0.4170  1.7799 -1.8284
  119OSM   H18U12577   0.744   3.020   8.888  0.3692 -1.1663 -1.5342
  119OSM    C1F12578   0.816   2.447  10.434  0.3389 -0.0691  0.7536
  119OSM     OF12579   0.719   2.466  10.507 -0.2251  0.1940 -0.1123
  119OSM    C2F12580   0.799   2.375  10.304 -0.1975  0.0463 -0.5056
  119OSM    H2F12581   0.790   2.267  10.330 -1.3952 -0.5412 -3.0115
  119OSM    H2G12582   0.893   2.378  10.245 -0.7360  0.5147 -1.3525
  119OSM    C3F12583   0.675   2.411  10.220  0.0389 -0.0689  0.0462
  119OSM    H3F12584   0.651   2.519  10.208  0.7998 -0.0360 -1.2585
  119OSM    H3G12585   0.587   2.372  10.276 -0.4082 -0.5410 -0.9551
  119OSM    C4F12586   0.672   2.347  10.083  0.2051 -0.0504  0.3505
  119OSM    H4F12587   0.684   2.238  10.102  0.6050 -0.1853 -0.6406
  119OSM    H4G12588   0.765   2.371  10.028  0.9695 -0.2755  1.4969
  119OSM    C5F12589   0.548   2.365   9.989 -0.4550 -0.0292 -0.3600
  119OSM    H5F12590   0.541   2.472   9.961 -1.5926  0.2267  0.8018
  119OSM    H5G12591   0.455   2.344  10.046 -0.6463 -1.1163 -1.0429
  119OSM    C6F12592   0.545   2.269   9.867  0.5119 -0.4360 -0.5231
  119OSM    H6F12593   0.542   2.161   9.893 -2.4445  0.0115  1.4976
  119OSM    H6G12594   0.642   2.285   9.814  0.8531  2.5968  0.7998
  119OSM    C7F12595   0.426   2.298   9.777  0.2540  0.0161 -0.3739
  119OSM    H7F12596   0.415   2.405   9.747  1.4082 -0.1135 -1.3306
  119OSM    H7G12597   0.337   2.264   9.833 -0.5591  0.6905 -1.2294
  119OSM    C8F12598   0.432   2.216   9.647 -1.0009  0.7937  0.4158
  119OSM    H8F12599   0.328   2.209   9.610 -1.2801 -0.1280  1.3373
  119OSM    H8G12600   0.457   2.110   9.673  1.2398  1.1758  0.0348
  119OSM    C9F12601   0.529   2.273   9.549 -0.4435  0.8593 -0.3239
  119OSM    H9F12602   0.607   2.329   9.603  0.0855  2.3404 -2.4802
  119OSM   C10F12603   0.521   2.275   9.410 -0.6687 -0.2434 -0.7823
  119OSM   H10F12604   0.600   2.329   9.356 -0.5463 -0.1323 -0.4938
  119OSM   C11F12605   0.413   2.211   9.335  0.5105  0.4352  0.7929
  119OSM   H11F12606   0.314   2.250   9.370 -0.1783  0.1521 -0.7560
  119OSM   H11G12607   0.411   2.101   9.347  0.9795  0.3901  0.4899
  119OSM   C12F12608   0.405   2.242   9.185 -1.1896 -0.2400 -0.3693
  119OSM   H12F12609   0.504   2.225   9.138 -1.2183  0.2900 -0.6285
  119OSM   H12G12610   0.380   2.350   9.176  1.7699  0.5101 -0.5103
  119OSM   C13F12611   0.313   2.161   9.099  0.2339 -0.2039  0.4987
  119OSM   H13F12612   0.220   2.160   9.160  0.6555  1.7627  1.2392
  119OSM   H13G12613   0.355   2.058   9.104  0.2073 -0.2238  0.2854
  119OSM   C14F12614   0.285   2.192   8.948  0.5720 -0.7286  0.2559
  119OSM   H14F12615   0.233   2.107   8.901 -0.1960 -2.2902  3.6298
  119OSM   H14G12616   0.381   2.188   8.892  1.0097 -2.7010  1.0709
  119OSM   C15F12617   0.193   2.314   8.923  0.2339 -0.1846  0.2819
  119OSM   H15F12618   0.194   2.316   8.812  1.2264 -2.8220  0.1705
  119OSM   H15G12619   0.228   2.409   8.968 -0.1874  0.9863 -1.7295
  119OSM   C16F12620   0.052   2.285   8.972 -0.1520 -0.5102 -0.1157
  119OSM   H16F12621   0.058   2.311   9.080  0.3758 -1.0938 -0.0032
  119OSM   H16G12622   0.028   2.178   8.959 -0.1848 -0.4323 -0.7400
  119OSM   C17F12623  -0.060   2.368   8.907  0.4989 -0.4211 -0.2485
  119OSM   H17F12624  -0.041   2.373   8.798  1.4956  1.8653 -0.0257
  119OSM   H17G12625  -0.050   2.473   8.941 -0.6678 -0.2245 -0.4672
  119OSM   C18F12626  -0.203   2.322   8.930 -0.2391  0.4034  0.1049
  119OSM   H18F12627  -0.269   2.387   8.869  2.8210  3.8358  0.0629
  119OSM   H18G12628  -0.222   2.328   9.040 -0.3783  1.3707  0.0347
  119OSM   H18H12629  -0.214   2.217   8.897  0.4557  0.2928  0.2155
  120OSM      N12630   6.017   5.819  11.072  0.1752  0.3987  0.1936
  120OSM    C1512631   6.126   5.717  11.040 -0.2029 -0.2286  0.1591
  120OSM   H15A12632   6.214   5.772  11.010 -0.3193  1.4626  2.6004
  120OSM   H15B12633   6.083   5.659  10.960  0.2853 -0.4251  0.0341
  120OSM   H15C12634   6.147   5.653  11.124  0.7258 -0.9961 -0.6382
  120OSM    C1412635   5.901   5.741  11.130  0.9623  0.2209 -0.2160
  120OSM   H14A12636   5.871   5.668  11.057 -3.0060  2.0267 -0.6677
  120OSM   H14B12637   5.821   5.810  11.155  2.7729  2.4980 -0.3859
  120OSM   H14C12638   5.923   5.692  11.224  0.2475 -0.9831 -0.6542
  120OSM    C1312639   6.055   5.918  11.177 -0.4373 -0.0178 -0.2667
  120OSM   H13A12640   6.137   5.976  11.136 -0.0244 -1.6071 -1.7860
  120OSM   H13B12641   6.096   5.867  11.263 -1.9485  0.0451  0.5261
  120OSM   H13C12642   5.977   5.990  11.199  1.1217  1.2815  1.3867
  120OSM    C1212643   5.973   5.895  10.946  0.2161  0.7957  0.1746
  120OSM   H12A12644   6.045   5.969  10.915 -1.6749  1.8495 -1.9662
  120OSM   H12B12645   5.889   5.959  10.968 -1.2632 -1.0568  0.1063
  120OSM    C1112646   5.935   5.816  10.817 -0.4828  0.6324  0.5505
  120OSM   H11A12647   6.019   5.749  10.789 -1.8421 -0.7320 -0.4633
  120OSM   H11B12648   5.919   5.888  10.734  0.2566  0.8893  0.6220
  120OSM      P12649   5.673   5.772  10.802 -0.3156  0.2701 -0.0113
  120OSM    O1312650   5.592   5.705  10.900  0.0815  0.1979 -0.2489
  120OSM    O1412651   5.653   5.915  10.797  0.1619 -0.4173 -0.6589
  120OSM    O1112652   5.659   5.710  10.653 -0.1336 -0.3101  0.1681
  120OSM    O1212653   5.821   5.738  10.833  0.7344 -0.2890  0.3097
  120OSM    C1S12654   5.681   5.573  10.635  0.5218 -0.0689  0.1604
  120OSM    H1S12655   5.597   5.516  10.681  1.5136 -0.6041  1.3549
  120OSM    H1T12656   5.772   5.539  10.687  1.6014  0.1278 -1.5198
  120OSM     NF12657   5.694   5.393  10.460  0.3198 -0.5978  0.0107
  120OSM    HNF12658   5.780   5.368  10.415 -0.6614 -2.8521 -0.7411
  120OSM    C2S12659   5.688   5.540  10.482 -0.2831  0.1543 -0.3774
  120OSM    H2S12660   5.586   5.557  10.442 -0.6299  0.8016  0.7403
  120OSM    C3S12661   5.794   5.620  10.409 -0.6285 -0.1969  0.0197
  120OSM    H3S12662   5.896   5.578  10.424  0.4505  2.1237 -0.4472
  120OSM     O312663   5.808   5.757  10.452 -0.2276  0.4652  0.4185
  120OSM    HO312664   5.744   5.771  10.522 -1.9544 -4.1982  0.1184
  120OSM    C4S12665   5.783   5.601  10.257  0.4407 -0.5908  0.4168
  120OSM    H4S12666   5.835   5.513  10.217 -0.5271 -0.4098 -1.3867
  120OSM    C5S12667   5.733   5.687  10.173 -0.6947  0.1786  0.2766
  120OSM    H5S12668   5.682   5.779  10.206 -0.4408  0.3783  0.1207
  120OSM    C6S12669   5.723   5.666  10.024 -0.2924 -0.9299 -0.2371
  120OSM    H6S12670   5.625   5.700   9.981  0.2353  1.4791  0.3186
  120OSM    H6T12671   5.737   5.557  10.005  0.7062 -0.7845 -0.3757
  120OSM    C7S12672   5.841   5.738   9.962  0.3757  0.2583  0.5840
  120OSM    H7S12673   5.932   5.695  10.008  0.7685  0.3866 -0.0598
  120OSM    H7T12674   5.830   5.848   9.980  0.4911  0.1048  1.6181
  120OSM    C8S12675   5.859   5.700   9.812 -0.1094  0.0803  0.6454
  120OSM    H8S12676   5.882   5.591   9.809 -1.0796 -0.1248 -1.8487
  120OSM    H8T12677   5.945   5.749   9.761  0.0634 -1.9761 -1.1840
  120OSM    C9S12678   5.734   5.730   9.729  0.5845 -0.2740 -1.0395
  120OSM    H9S12679   5.706   5.835   9.750  0.4548  0.0700 -2.7858
  120OSM    H9T12680   5.651   5.666   9.768 -0.2178  2.0493  1.3240
  120OSM   C10S12681   5.740   5.703   9.575  0.6089 -0.3265  0.1319
  120OSM   H10S12682   5.658   5.635   9.545 -1.3912  2.1713 -0.4425
  120OSM   H10T12683   5.838   5.655   9.555  1.3229  1.0274  0.1998
  120OSM   C11S12684   5.714   5.832   9.498  0.5513  0.8625  0.0920
  120OSM   H11S12685   5.782   5.904   9.549  1.2973 -0.2952  0.7959
  120OSM   H11T12686   5.611   5.871   9.513 -0.8599 -2.1279 -0.9476
  120OSM   C12S12687   5.748   5.811   9.352 -0.0580  0.0497 -1.4378
  120OSM   H12S12688   5.682   5.728   9.320  0.1186  0.4264 -2.8413
  120OSM   H12T12689   5.858   5.795   9.346  0.0397 -1.6908  2.1988
  120OSM   C13S12690   5.717   5.934   9.267  0.1062  0.4277  0.2303
  120OSM   H13S12691   5.767   6.027   9.301 -0.1854  1.8546 -2.8842
  120OSM   H13T12692   5.610   5.960   9.283  0.3578  1.1428  0.8138
  120OSM   C14S12693   5.756   5.909   9.119 -0.0332 -0.3401  0.5115
  120OSM   H14S12694   5.858   5.864   9.123 -0.0646 -0.3905  3.7911
  120OSM   H14T12695   5.756   6.009   9.072  0.6658 -1.0970 -1.2021
  120OSM   C15S12696   5.648   5.828   9.045  0.0474  0.6969  0.0841
  120OSM   H15S12697   5.556   5.889   9.056  1.3872  2.4173  3.0962
  120OSM   H15T12698   5.635   5.728   9.091 -0.4862  0.6564 -0.1572
  120OSM   C16S12699   5.675   5.822   8.894 -0.3680 -0.1492  1.0724
  120OSM   H16S12700   5.759   5.754   8.868 -0.3080  0.5141 -0.6107
  120OSM   H16T12701   5.700   5.921   8.849 -0.0688  0.4589  2.5036
  120OSM   C17S12702   5.548   5.777   8.824  0.4278 -0.2871  0.1165
  120OSM   H17S12703   5.470   5.853   8.848  1.5702  0.5584  1.2482
  120OSM   H17T12704   5.515   5.683   8.872  2.4420 -0.6373  0.9119
  120OSM   C18S12705   5.571   5.765   8.670  0.9340  0.3036 -0.2088
  120OSM   H18S12706   5.474   5.760   8.616 -0.5033  0.6430  2.1904
  120OSM   H18T12707   5.640   5.684   8.638  0.9732  0.3479 -0.2360
  120OSM   H18U12708   5.602   5.865   8.632  0.5935  1.1253  1.5444
  120OSM    C1F12709   5.595   5.304  10.479 -0.5338  0.3454 -0.0198
  120OSM     OF12710   5.482   5.349  10.502 -0.3530 -0.3742 -0.0976
  120OSM    C2F12711   5.628   5.155  10.467 -0.1557 -0.5062 -0.5253
  120OSM    H2F12712   5.627   5.119  10.572 -0.1792  1.2022  0.1004
  120OSM    H2G12713   5.731   5.139  10.427  1.5353 -0.2622  3.2965
  120OSM    C3F12714   5.529   5.065  10.402  0.1837 -0.1931  0.6871
  120OSM    H3F12715   5.428   5.088  10.444 -0.7955  1.8835 -2.4467
  120OSM    H3G12716   5.555   4.958  10.419 -2.0736 -0.7480  1.0528
  120OSM    C4F12717   5.508   5.106  10.253 -0.3921  0.5667  0.1293
  120OSM    H4F12718   5.462   5.207  10.254  1.1319  1.3776 -2.7626
  120OSM    H4G12719   5.432   5.039  10.207 -1.7050 -0.0395  2.9300
  120OSM    C5F12720   5.634   5.095  10.167 -0.7834  0.0890 -0.0369
  120OSM    H5F12721   5.674   4.991  10.171  0.9737  0.5248 -2.8535
  120OSM    H5G12722   5.715   5.160  10.206  0.0556 -1.2147  0.4715
  120OSM    C6F12723   5.606   5.140  10.029  0.5189 -0.6372  0.0116
  120OSM    H6F12724   5.548   5.235  10.031  1.6857  0.2002 -2.2520
  120OSM    H6G12725   5.545   5.073   9.965 -2.1659  0.4282  1.3120
  120OSM    C7F12726   5.741   5.173   9.961  0.8542  0.2286  0.7991
  120OSM    H7F12727   5.788   5.090   9.904 -0.9104 -2.0469  2.5024
  120OSM    H7G12728   5.814   5.215  10.033 -1.2625  3.5931  1.1924
  120OSM    C8F12729   5.718   5.297   9.864  0.1892  0.0412  0.1117
  120OSM    H8F12730   5.815   5.342   9.834 -0.5711  0.7219 -1.4413
  120OSM    H8G12731   5.668   5.383   9.914  0.9233  2.2928 -2.7299
  120OSM    C9F12732   5.632   5.266   9.742 -0.2724  0.2817  0.5370
  120OSM    H9F12733   5.531   5.246   9.779  0.9750 -1.7637  3.2601
  120OSM   C10F12734   5.673   5.243   9.615 -0.4900 -0.8885 -0.1381
  120OSM   H10F12735   5.602   5.236   9.531  0.0756  0.0297 -0.7009
  120OSM   C11F12736   5.814   5.240   9.573 -0.6286 -0.5323 -0.6758
  120OSM   H11F12737   5.832   5.141   9.526 -1.6445  0.0668 -2.4259
  120OSM   H11G12738   5.889   5.224   9.654 -0.2158  2.4504 -0.3534
  120OSM   C12F12739   5.868   5.353   9.482  0.1212  0.6165  0.5542
  120OSM   H12F12740   5.969   5.314   9.458 -0.2197 -0.2637  0.5213
  120OSM   H12G12741   5.897   5.447   9.535  1.1973  0.4478  0.2883
  120OSM   C13F12742   5.780   5.378   9.364 -0.8528 -0.0298  0.0017
  120OSM   H13F12743   5.689   5.436   9.391 -1.0320  0.5079 -1.6736
  120OSM   H13G12744   5.758   5.276   9.327 -0.3967 -0.1182 -0.0249
  120OSM   C14F12745   5.844   5.445   9.244 -0.7951 -0.6523  0.4957
  120OSM   H14F12746   5.869   5.553   9.258 -1.3323 -0.4426 -0.0890
  120OSM   H14G12747   5.759   5.450   9.172 -1.4759  1.7673  1.3569
  120OSM   C15F12748   5.958   5.372   9.180 -0.1342 -0.2439 -0.2629
  120OSM   H15F12749   5.933   5.264   9.172 -0.4698 -0.1826 -0.0246
  120OSM   H15G12750   6.048   5.380   9.244 -0.5526  1.3712  0.1461
  120OSM   C16F12751   5.982   5.420   9.030 -0.7088  0.6630  0.6936
  120OSM   H16F12752   6.027   5.522   9.035 -0.9074  0.8506 -0.9300
  120OSM   H16G12753   5.887   5.433   8.974 -0.0880  3.2617  0.1167
  120OSM   C17F12754   6.077   5.319   8.960 -0.1522  0.0928  0.1103
  120OSM   H17F12755   6.055   5.215   8.994  1.6113  0.6535  3.3347
  120OSM   H17G12756   6.179   5.341   8.997  0.2141  0.0760 -0.8603
  120OSM   C18F12757   6.074   5.327   8.806 -0.1799 -0.2247  0.3184
  120OSM   H18F12758   6.010   5.242   8.778  0.4280 -0.7375  0.4584
  120OSM   H18G12759   6.176   5.313   8.765 -0.3841  1.6847 -0.9766
  120OSM   H18H12760   6.033   5.428   8.783  1.5621 -0.0134 -2.3064
  121OSM      N12761   5.679   0.934  11.268 -0.6022  0.5118 -0.1428
  121OSM    C1512762   5.542   0.981  11.298 -0.3179 -0.1819  0.4248
  121OSM   H15A12763   5.508   1.022  11.204 -0.3647 -0.1312  0.4641
  121OSM   H15B12764   5.514   1.048  11.378 -2.3893 -2.3982  1.6675
  121OSM   H15C12765   5.481   0.892  11.302 -0.0127 -0.3613  1.5130
  121OSM    C1412766   5.745   0.897  11.402 -0.1615 -0.5495 -0.3999
  121OSM   H14A12767   5.831   0.839  11.370 -0.9816 -2.3810  0.5783
  121OSM   H14B12768   5.680   0.845  11.470  0.1141  1.1059  1.2176
  121OSM   H14C12769   5.766   0.994  11.445  0.6064 -0.4628 -0.9405
  121OSM    C1312770   5.681   0.804  11.190  0.2342 -0.1453 -0.4038
  121OSM   H13A12771   5.599   0.740  11.220  0.4289 -0.3168 -0.2396
  121OSM   H13B12772   5.771   0.748  11.209  0.8559  0.4401 -1.4824
  121OSM   H13C12773   5.679   0.824  11.083  1.4721  0.1001 -0.3994
  121OSM    C1212774   5.762   1.037  11.197 -0.6101 -0.2467 -0.2924
  121OSM   H12A12775   5.856   0.994  11.167  0.1677  1.2849 -0.1503
  121OSM   H12B12776   5.791   1.113  11.268 -1.2407 -1.2057  1.0180
  121OSM    C1112777   5.694   1.105  11.072  0.0334 -0.2534  0.5497
  121OSM   H11A12778   5.668   1.020  11.004  1.8154  0.6502 -1.3791
  121OSM   H11B12779   5.779   1.161  11.028  0.0942 -0.8124 -0.0778
  121OSM      P12780   5.623   1.324  11.176  0.2680  0.2161  0.2456
  121OSM    O1312781   5.500   1.418  11.173  0.4782  0.2296  0.0744
  121OSM    O1412782   5.673   1.297  11.310 -0.2353 -0.0247 -0.0866
  121OSM    O1112783   5.730   1.400  11.089  0.1665  0.1364 -0.4471
  121OSM    O1212784   5.583   1.186  11.101 -0.3265  0.9845 -0.0067
  121OSM    C1S12785   5.699   1.436  10.950 -0.4443  0.2515 -0.3840
  121OSM    H1S12786   5.608   1.500  10.952 -0.5905  0.0341 -0.0962
  121OSM    H1T12787   5.672   1.347  10.889 -0.3689 -1.3376  1.7853
  121OSM     NF12788   5.779   1.558  10.748  0.8335  0.3913  0.0275
  121OSM    HNF12789   5.811   1.503  10.671  3.9305  1.1168  0.6778
  121OSM    C2S12790   5.821   1.521  10.881 -0.3644  0.6688  0.1365
  121OSM    H2S12791   5.822   1.610  10.949 -2.1208  1.8081 -1.2494
  121OSM    C3S12792   5.954   1.440  10.880 -0.0692  0.4254 -0.3278
  121OSM    H3S12793   5.936   1.341  10.831 -1.5047  1.0978 -1.2303
  121OSM     O312794   5.992   1.401  11.010  0.5302  0.5763 -0.9456
  121OSM    HO312795   5.914   1.405  11.065  0.4629 -2.9698 -0.5403
  121OSM    C4S12796   6.071   1.515  10.818  0.1135  0.9812 -0.8776
  121OSM    H4S12797   6.095   1.605  10.877 -1.8805  1.3472 -0.5572
  121OSM    C5S12798   6.139   1.486  10.701  0.6068  0.0371  0.5310
  121OSM    H5S12799   6.088   1.408  10.643 -2.8979  0.6374  2.5026
  121OSM    C6S12800   6.255   1.565  10.654  0.1752 -0.1638 -0.2075
  121OSM    H6S12801   6.347   1.509  10.681 -1.3401 -1.6316  2.3435
  121OSM    H6T12802   6.251   1.658  10.714 -0.1994 -1.0169  1.1469
  121OSM    C7S12803   6.246   1.605  10.509 -0.4624 -0.0290  0.6662
  121OSM    H7S12804   6.145   1.649  10.498 -0.9207 -0.4796  2.5991
  121OSM    H7T12805   6.249   1.517  10.441  4.8493 -1.2990  2.0526
  121OSM    C8S12806   6.358   1.704  10.464 -0.0701  0.2604 -0.3780
  121OSM    H8S12807   6.456   1.659  10.492 -0.4392  0.0458  0.5925
  121OSM    H8T12808   6.351   1.799  10.522  0.6368  0.4123 -0.5232
  121OSM    C9S12809   6.356   1.747  10.318  0.1000 -0.5873 -0.3380
  121OSM    H9S12810   6.435   1.824  10.303 -0.5598 -0.1075 -1.4113
  121OSM    H9T12811   6.260   1.797  10.294 -0.7919 -1.9169  0.3579
  121OSM   C10S12812   6.384   1.634  10.225 -0.3332 -0.2504  0.5691
  121OSM   H10S12813   6.303   1.559  10.240  0.7216 -1.7594 -0.9222
  121OSM   H10T12814   6.477   1.582  10.254 -0.6225 -0.6249  0.8454
  121OSM   C11S12815   6.395   1.662  10.080  0.0593 -0.3709  0.0163
  121OSM   H11S12816   6.396   1.565  10.025 -0.7898  0.1326 -0.9119
  121OSM   H11T12817   6.492   1.706  10.050 -0.4628  0.1456 -0.9722
  121OSM   C12S12818   6.287   1.751  10.025  0.2618 -0.5374 -0.4753
  121OSM   H12S12819   6.282   1.846  10.081  0.4454  0.3485 -1.8984
  121OSM   H12T12820   6.195   1.696  10.053  0.5628 -0.9475 -0.2866
  121OSM   C13S12821   6.302   1.777   9.875  0.2664  0.5806  0.1023
  121OSM   H13S12822   6.318   1.682   9.821  0.9506  1.1579 -0.7317
  121OSM   H13T12823   6.393   1.838   9.857 -0.7733  1.9143 -0.8483
  121OSM   C14S12824   6.189   1.853   9.809  0.5424 -0.2419 -0.6776
  121OSM   H14S12825   6.221   1.959   9.813 -0.9964  0.2010  0.3629
  121OSM   H14T12826   6.094   1.846   9.865  0.0385  1.3837 -1.2736
  121OSM   C15S12827   6.169   1.827   9.663  0.2149  0.0288 -0.0682
  121OSM   H15S12828   6.149   1.719   9.644 -1.5875  0.0524  1.3888
  121OSM   H15T12829   6.256   1.856   9.602 -1.4187  2.5865 -1.3515
  121OSM   C16S12830   6.060   1.905   9.591  0.1976 -1.1877 -0.3025
  121OSM   H16S12831   6.054   2.002   9.646 -0.9647 -1.4800  0.1236
  121OSM   H16T12832   5.963   1.851   9.592  0.1727 -1.1812 -1.1672
  121OSM   C17S12833   6.110   1.941   9.452  0.1104 -0.2049 -0.1367
  121OSM   H17S12834   6.215   1.979   9.451  0.0546  0.1204  1.9790
  121OSM   H17T12835   6.051   2.024   9.410  0.3565  1.2664  2.2431
  121OSM   C18S12836   6.116   1.818   9.364 -0.2688 -0.5183  0.1329
  121OSM   H18S12837   6.127   1.850   9.258  0.6179  0.3199  0.4662
  121OSM   H18T12838   6.018   1.765   9.367 -0.5470  0.0037  0.4602
  121OSM   H18U12839   6.196   1.747   9.393  0.2467 -0.1318 -0.3426
  121OSM    C1F12840   5.683   1.647  10.728 -1.0056 -0.8675  0.0924
  121OSM     OF12841   5.653   1.726  10.812  0.8679 -0.1617  0.3040
  121OSM    C2F12842   5.612   1.647  10.596 -0.6739  0.3074 -0.5369
  121OSM    H2F12843   5.603   1.538  10.575 -1.9316  0.3786 -0.4456
  121OSM    H2G12844   5.681   1.706  10.532  0.7324 -1.4411 -0.6869
  121OSM    C3F12845   5.473   1.699  10.598 -0.0285  0.0660  0.5370
  121OSM    H3F12846   5.467   1.809  10.609  1.6967  0.1802  0.5631
  121OSM    H3G12847   5.423   1.647  10.683 -1.8958  0.2804 -0.3660
  121OSM    C4F12848   5.391   1.664  10.474  0.2702  0.3495 -0.0256
  121OSM    H4F12849   5.413   1.729  10.388  1.2019 -0.8128 -0.6958
  121OSM    H4G12850   5.290   1.709  10.486 -0.4582 -1.1685 -0.1241
  121OSM    C5F12851   5.388   1.516  10.430 -0.2318 -0.1676  0.2602
  121OSM    H5F12852   5.349   1.451  10.511 -0.4018 -0.3278  0.0514
  121OSM    H5G12853   5.487   1.482  10.393  0.3070  1.1757  0.3915
  121OSM    C6F12854   5.297   1.496  10.305 -0.7033 -0.6892  0.1298
  121OSM    H6F12855   5.203   1.555  10.317 -0.5488 -0.4055 -0.0528
  121OSM    H6G12856   5.250   1.397  10.287  0.1597 -0.8839 -1.1113
  121OSM    C7F12857   5.375   1.521  10.171 -0.0915  0.1578  0.6000
  121OSM    H7F12858   5.382   1.422  10.121 -2.3544  0.2951 -0.1003
  121OSM    H7G12859   5.479   1.551  10.197  0.9695 -3.2439  0.6520
  121OSM    C8F12860   5.309   1.613  10.070  0.3377  0.8593  0.2088
  121OSM    H8F12861   5.310   1.708  10.128  0.0181  1.2476 -0.4132
  121OSM    H8G12862   5.200   1.599  10.050  0.4003 -0.1132  0.5114
  121OSM    C9F12863   5.386   1.637   9.945  0.0185 -0.2821 -0.2881
  121OSM    H9F12864   5.492   1.663   9.961 -0.0114 -0.8086  0.9020
  121OSM   C10F12865   5.339   1.636   9.819 -0.3910 -0.5525 -0.1266
  121OSM   H10F12866   5.404   1.677   9.740 -0.9411 -1.1635 -0.9065
  121OSM   C11F12867   5.198   1.605   9.771 -0.0627  0.1366 -0.0567
  121OSM   H11F12868   5.136   1.570   9.856  1.4156 -0.1126  0.9520
  121OSM   H11G12869   5.205   1.522   9.698 -1.0576  1.5605 -1.8875
  121OSM   C12F12870   5.127   1.710   9.681 -0.0627  1.3301 -0.1079
  121OSM   H12F12871   5.099   1.799   9.741 -0.6012  0.9242  0.2551
  121OSM   H12G12872   5.034   1.659   9.650  1.3795  0.1014 -2.7550
  121OSM   C13F12873   5.196   1.752   9.557 -0.0204  0.7532 -0.0828
  121OSM   H13F12874   5.252   1.665   9.517 -1.1746 -0.4699  0.8491
  121OSM   H13G12875   5.273   1.827   9.586  1.0339 -0.4132  0.1840
  121OSM   C14F12876   5.097   1.817   9.452  0.1158 -0.2143  0.4635
  121OSM   H14F12877   5.058   1.910   9.499  3.7581  0.3968  2.6984
  121OSM   H14G12878   5.019   1.739   9.440 -0.1074 -0.2285  1.9176
  121OSM   C15F12879   5.160   1.848   9.319  0.1938 -0.4227  0.6484
  121OSM   H15F12880   5.246   1.915   9.337  1.5030 -0.7679 -3.3207
  121OSM   H15G12881   5.083   1.906   9.264  0.6224 -1.6498 -1.3314
  121OSM   C16F12882   5.193   1.729   9.224 -0.2173 -0.2736  0.0573
  121OSM   H16F12883   5.103   1.672   9.193 -0.8428 -0.1327  1.5375
  121OSM   H16G12884   5.256   1.654   9.277  1.3274  2.1803  1.8647
  121OSM   C17F12885   5.276   1.766   9.096  0.0339  0.1528 -0.2005
  121OSM   H17F12886   5.366   1.826   9.121  0.5053 -0.9252  0.8209
  121OSM   H17G12887   5.205   1.824   9.034 -0.0137 -2.5976 -2.9673
  121OSM   C18F12888   5.300   1.641   9.011 -0.7240 -0.5252 -0.0354
  121OSM   H18F12889   5.359   1.567   9.069  2.3052  1.2747 -0.5746
  121OSM   H18G12890   5.364   1.672   8.925 -0.3948  0.2983  0.4894
  121OSM   H18H12891   5.203   1.595   8.983 -0.9607 -0.9116  1.3373
  122OSM      N12892   0.652   6.056  11.248 -0.5247  0.3427  0.1814
  122OSM    C1512893   0.793   6.042  11.199 -0.5375  0.0877  0.0684
  122OSM   H15A12894   0.804   5.953  11.139 -0.3058 -0.3144  0.6977
  122OSM   H15B12895   0.857   6.041  11.286  0.6139  1.6968 -0.7087
  122OSM   H15C12896   0.826   6.133  11.150 -1.2777  0.0280 -0.5606
  122OSM    C1412897   0.646   5.993  11.385  0.6466  0.5524  0.2416
  122OSM   H14A12898   0.722   6.041  11.445  0.4614  1.5218 -0.2810
  122OSM   H14B12899   0.673   5.889  11.372  0.7157  0.4666  1.0358
  122OSM   H14C12900   0.552   6.001  11.437  0.9920  0.5722  0.8719
  122OSM    C1312901   0.623   6.204  11.278  0.6233 -0.2258 -0.2222
  122OSM   H13A12902   0.707   6.243  11.334 -1.7069  0.1063  3.3155
  122OSM   H13B12903   0.539   6.220  11.343 -1.7595 -2.1725 -2.6320
  122OSM   H13C12904   0.612   6.268  11.191  1.0733  0.7621  0.4244
  122OSM    C1212905   0.549   5.991  11.153  0.2936 -0.5841  0.2126
  122OSM   H12A12906   0.455   5.978  11.205  0.1298 -1.0034 -0.1695
  122OSM   H12B12907   0.578   5.892  11.120 -0.9153 -0.8195 -0.1938
  122OSM    C1112908   0.518   6.059  11.018 -0.1097  0.1925  1.0187
  122OSM   H11A12909   0.427   6.004  10.986  0.1373 -0.2031  0.9916
  122OSM   H11B12910   0.601   6.036  10.948 -0.7866  0.0384  0.2554
  122OSM      P12911   0.361   6.276  10.987  0.6584 -0.1941 -0.2251
  122OSM    O1312912   0.263   6.252  11.096  0.2636  0.2362  0.1783
  122OSM    O1412913   0.393   6.421  10.959  0.5762  0.4099 -0.2867
  122OSM    O1112914   0.303   6.211  10.856 -0.5246  0.4538 -0.4728
  122OSM    O1212915   0.495   6.201  11.022 -0.1807  0.1677  0.4536
  122OSM    C1S12916   0.389   6.233  10.741 -0.3893 -0.1789  0.3295
  122OSM    H1S12917   0.485   6.180  10.756 -0.2667 -0.1176 -0.2390
  122OSM    H1T12918   0.408   6.340  10.720  0.0108  0.5186  3.6917
  122OSM     NF12919   0.416   6.183  10.489 -0.0091 -0.3318 -0.9536
  122OSM    HNF12920   0.403   6.261  10.428  1.3006 -0.0523 -0.9067
  122OSM    C2S12921   0.328   6.170  10.606  0.2109  0.2848 -0.2090
  122OSM    H2S12922   0.293   6.065  10.620 -2.0662  0.9078 -0.7845
  122OSM    C3S12923   0.187   6.243  10.582  0.4931  0.4502  0.3173
  122OSM    H3S12924   0.209   6.350  10.562 -0.9731  0.4158 -1.8021
  122OSM     O312925   0.103   6.244  10.700 -0.5282  0.1067  0.1675
  122OSM    HO312926   0.171   6.216  10.762 -0.6092  1.6092  0.9755
  122OSM    C4S12927   0.118   6.195  10.456 -0.7191  0.4080  0.4200
  122OSM    H4S12928   0.174   6.220  10.365 -0.0007 -4.5528 -0.8299
  122OSM    C5S12929   0.009   6.117  10.439  0.4476 -0.0407 -0.2790
  122OSM    H5S12930  -0.043   6.087  10.531  1.5524  0.6131  0.5950
  122OSM    C6S12931  -0.048   6.100  10.301 -0.1363  0.7149 -0.2766
  122OSM    H6S12932   0.015   6.128  10.214 -3.0135 -0.2668 -2.8651
  122OSM    H6T12933  -0.135   6.167  10.285  0.3045  1.6991  1.2422
  122OSM    C7S12934  -0.085   5.947  10.289  0.0919  0.7894 -0.3830
  122OSM    H7S12935  -0.134   5.908  10.382  1.1732 -0.5730 -0.3468
  122OSM    H7T12936   0.005   5.884  10.276 -0.6606 -0.8441  1.6017
  122OSM    C8S12937  -0.188   5.934  10.180  0.4867 -0.1537  0.2800
  122OSM    H8S12938  -0.278   5.995  10.201  0.0351 -0.1543 -1.4984
  122OSM    H8T12939  -0.226   5.830  10.171 -1.6578  0.5111  1.1096
  122OSM    C9S12940  -0.124   5.971  10.045 -0.3463 -0.1737  0.5749
  122OSM    H9S12941  -0.019   5.933  10.039 -0.7786 -1.1375 -3.2736
  122OSM    H9T12942  -0.128   6.081  10.033 -0.4190 -0.1679  0.6509
  122OSM   C10S12943  -0.187   5.901   9.920  0.5054 -0.7141 -0.2657
  122OSM   H10S12944  -0.295   5.924   9.919  0.3507 -1.3789  0.3600
  122OSM   H10T12945  -0.174   5.792   9.936 -1.0587 -0.6339  1.9729
  122OSM   C11S12946  -0.121   5.963   9.796  0.1976 -0.9148  0.3292
  122OSM   H11S12947  -0.011   5.956   9.794  0.0794 -3.0695 -0.7449
  122OSM   H11T12948  -0.159   6.067   9.786  1.5363 -0.4732 -0.4283
  122OSM   C12S12949  -0.167   5.884   9.667 -0.5435 -0.2451 -0.5390
  122OSM   H12S12950  -0.272   5.905   9.639 -1.6047 -1.4632  2.2369
  122OSM   H12T12951  -0.154   5.775   9.684 -2.0423 -0.5053 -0.9482
  122OSM   C13S12952  -0.064   5.928   9.556  0.1425  0.6238 -0.2654
  122OSM   H13S12953   0.033   5.880   9.578 -0.9373 -2.3793 -1.4500
  122OSM   H13T12954  -0.052   6.038   9.560  0.6294  0.5225  1.4878
  122OSM   C14S12955  -0.110   5.880   9.418 -0.2471  0.0725  0.2047
  122OSM   H14S12956  -0.215   5.912   9.399 -1.0271 -2.0619  0.5701
  122OSM   H14T12957  -0.119   5.769   9.424 -2.0040  0.2555  2.3600
  122OSM   C15S12958  -0.023   5.919   9.297  0.3710  0.3575  0.3448
  122OSM   H15S12959   0.080   5.882   9.315  1.2173  1.1898 -2.3395
  122OSM   H15T12960  -0.032   6.030   9.288 -1.2549  0.2469  0.3892
  122OSM   C16S12961  -0.079   5.853   9.171  0.4049 -0.4765 -0.0624
  122OSM   H16S12962  -0.172   5.903   9.137  0.4758 -1.9705 -2.7476
  122OSM   H16T12963  -0.106   5.747   9.188 -1.0395  0.0090  0.7961
  122OSM   C17S12964   0.026   5.866   9.057  0.4533  0.2513 -0.2796
  122OSM   H17S12965   0.126   5.832   9.092  0.3283 -1.5806 -1.5358
  122OSM   H17T12966   0.037   5.967   9.012 -1.2741  1.2545  1.4265
  122OSM   C18S12967  -0.008   5.781   8.931  0.5720  0.2692 -0.4372
  122OSM   H18S12968  -0.097   5.824   8.880  0.2112  2.1496  1.6408
  122OSM   H18T12969  -0.031   5.677   8.966  2.8383 -0.4613 -0.9417
  122OSM   H18U12970   0.063   5.785   8.846  0.8312 -2.6287 -0.4571
  122OSM    C1F12971   0.528   6.117  10.480 -0.2239  0.6171  0.1107
  122OSM     OF12972   0.548   6.015  10.551 -0.1607 -0.1642 -0.1788
  122OSM    C2F12973   0.625   6.164  10.370 -0.4908  0.1259 -0.9577
  122OSM    H2F12974   0.676   6.255  10.409 -1.4383  0.6959 -1.0279
  122OSM    H2G12975   0.564   6.190  10.282  0.8994  0.6250 -1.8084
  122OSM    C3F12976   0.718   6.059  10.320  0.1110 -0.2958  0.4240
  122OSM    H3F12977   0.665   5.964  10.296  0.6235 -0.4289 -0.2047
  122OSM    H3G12978   0.790   6.029  10.399  0.6321 -1.3560 -0.4346
  122OSM    C4F12979   0.807   6.112  10.203  0.3190  0.3683 -0.4216
  122OSM    H4F12980   0.896   6.148  10.259 -0.5246 -1.0502  1.9626
  122OSM    H4G12981   0.752   6.193  10.151  0.4632  0.1034 -1.0008
  122OSM    C5F12982   0.841   6.006  10.097  0.1464 -0.2393 -0.0436
  122OSM    H5F12983   0.754   5.975  10.035  1.2180  2.0614 -2.9770
  122OSM    H5G12984   0.905   5.926  10.138 -1.9558 -0.7901  2.3785
  122OSM    C6F12985   0.934   6.081   9.997 -0.3003 -0.1917  0.2115
  122OSM    H6F12986   1.030   6.100  10.049 -0.6859 -0.7778  1.1621
  122OSM    H6G12987   0.887   6.174   9.959  0.3197 -0.5257 -1.4825
  122OSM    C7F12988   0.953   6.011   9.856  0.3000  0.1489 -0.0690
  122OSM    H7F12989   0.852   5.990   9.814  0.3851  0.8502 -0.6521
  122OSM    H7G12990   1.012   5.917   9.859  0.2706  0.1531  0.7900
  122OSM    C8F12991   1.001   6.118   9.758 -0.1914  0.0118 -0.1670
  122OSM    H8F12992   1.100   6.153   9.794 -0.1487  1.2181 -1.4003
  122OSM    H8G12993   0.939   6.210   9.763  0.5644  0.5424 -0.3825
  122OSM    C9F12994   1.020   6.045   9.629 -0.1290 -0.8282 -0.0125
  122OSM    H9F12995   0.963   5.952   9.615 -0.7910 -0.3849 -0.2535
  122OSM   C10F12996   1.105   6.086   9.530 -0.6615  0.2321  0.8546
  122OSM   H10F12997   1.115   6.025   9.439  1.1264 -0.5380  1.5214
  122OSM   C11F12998   1.192   6.210   9.539 -0.6381 -0.0960 -0.7804
  122OSM   H11F12999   1.287   6.195   9.594 -1.0488 -0.0759 -0.0551
  122OSM   H11G13000   1.144   6.302   9.579 -0.0065  0.4178 -1.1890
  122OSM   C12F13001   1.228   6.249   9.399 -0.4003  0.4009  0.6301
  122OSM   H12F13002   1.138   6.280   9.343 -1.7463 -0.0034  2.4916
  122OSM   H12G13003   1.279   6.164   9.349  1.9398  1.7555  0.5535
  122OSM   C13F13004   1.332   6.364   9.393  0.0371 -0.1156 -0.0592
  122OSM   H13F13005   1.412   6.319   9.331  2.4571  1.4825  1.7045
  122OSM   H13G13006   1.376   6.398   9.489  0.4899 -0.4020 -0.1638
  122OSM   C14F13007   1.280   6.485   9.320  0.5087  0.3042  0.0753
  122OSM   H14F13008   1.361   6.561   9.318  0.5900  0.2067 -1.0424
  122OSM   H14G13009   1.198   6.535   9.375 -2.3186 -1.7597 -1.9273
  122OSM   C15F13010   1.229   6.464   9.176 -0.1348 -0.4431  0.1301
  122OSM   H15F13011   1.174   6.555   9.144 -0.4691 -0.1932  1.3904
  122OSM   H15G13012   1.161   6.377   9.178  0.6591 -1.0757  1.7593
  122OSM   C16F13013   1.355   6.456   9.086 -0.1122  0.1141  0.1188
  122OSM   H16F13014   1.417   6.369   9.117  0.5477  0.0431 -1.3165
  122OSM   H16G13015   1.425   6.541   9.101  1.5564 -1.3590  1.1464
  122OSM   C17F13016   1.317   6.448   8.935 -0.7751 -1.3311  0.0717
  122OSM   H17F13017   1.273   6.346   8.921  1.2826 -2.2410 -0.0515
  122OSM   H17G13018   1.415   6.451   8.884 -0.3729 -0.9051  0.8640
  122OSM   C18F13019   1.218   6.543   8.873  0.3833 -0.3298  0.0500
  122OSM   H18F13020   1.211   6.527   8.763 -0.9232 -1.8913  0.3178
  122OSM   H18G13021   1.263   6.644   8.884 -2.1173  0.7409  1.2205
  122OSM   H18H13022   1.120   6.539   8.924 -0.8664 -0.2874 -2.2480
  123OSM      N13023   1.713   4.177   6.413 -0.5870 -0.4843  0.0832
  123OSM    C1513024   1.623   4.244   6.320  0.5504 -0.0846  0.7387
  123OSM   H15A13025   1.649   4.346   6.297 -0.4689  0.5750  2.3077
  123OSM   H15B13026   1.521   4.241   6.354  0.9773  1.4729  2.2820
  123OSM   H15C13027   1.625   4.186   6.229  1.6963  2.5133 -1.0080
  123OSM    C1413028   1.763   4.266   6.521 -0.1795  0.0581 -0.7246
  123OSM   H14A13029   1.839   4.329   6.478 -0.0970  1.3283  1.1438
  123OSM   H14B13030   1.812   4.206   6.597 -0.8756 -0.4743 -0.6833
  123OSM   H14C13031   1.688   4.334   6.557  1.0995  1.0196  0.2343
  123OSM    C1313032   1.649   4.064   6.485 -0.1143 -0.1274 -0.5367
  123OSM   H13A13033   1.563   4.103   6.537  1.0764 -0.9054  2.2412
  123OSM   H13B13034   1.708   4.014   6.561 -1.9947  2.7888  3.2060
  123OSM   H13C13035   1.617   3.982   6.422  2.4856 -3.8132  2.4856
  123OSM    C1213036   1.826   4.129   6.331 -0.4513  0.3986 -0.0176
  123OSM   H12A13037   1.786   4.099   6.235  0.8183 -1.8171  0.0617
  123OSM   H12B13038   1.873   4.034   6.354  0.3699  0.8941  0.4216
  123OSM    C1113039   1.932   4.235   6.305 -0.1559 -0.3591 -0.1092
  123OSM   H11A13040   2.000   4.179   6.237  1.2607  0.1390  0.8457
  123OSM   H11B13041   1.998   4.259   6.391  0.0370  1.4424 -0.7044
  123OSM      P13042   1.939   4.498   6.271 -0.5238  0.2920 -0.3717
  123OSM    O1313043   2.086   4.496   6.246  0.1414 -0.4080 -0.4385
  123OSM    O1413044   1.849   4.596   6.219 -0.2023 -0.3546  0.2587
  123OSM    O1113045   1.922   4.488   6.432 -0.1962 -0.1397  0.2001
  123OSM    O1213046   1.886   4.353   6.240  0.0915 -0.2599 -0.0750
  123OSM    C1S13047   1.846   4.588   6.503  0.1280 -0.0567  0.0850
  123OSM    H1S13048   1.739   4.569   6.484 -0.0861 -1.0799  2.0635
  123OSM    H1T13049   1.865   4.690   6.462 -1.3582 -0.6001 -2.1583
  123OSM     NF13050   1.750   4.661   6.729 -0.4674  0.0441 -0.5309
  123OSM    HNF13051   1.778   4.752   6.758  1.5039 -0.6426 -0.1614
  123OSM    C2S13052   1.856   4.584   6.657  0.1049 -0.0593  0.0322
  123OSM    H2S13053   1.861   4.478   6.689  1.6792 -0.4290 -1.3252
  123OSM    C3S13054   1.996   4.635   6.691  0.1479 -0.3426  0.1168
  123OSM    H3S13055   2.012   4.741   6.661  2.1965 -0.3282  1.0294
  123OSM     O313056   2.094   4.565   6.623  0.2973  0.1026 -0.2369
  123OSM    HO313057   2.036   4.527   6.557 -1.0048 -1.0874  1.5057
  123OSM    C4S13058   2.017   4.625   6.837 -0.5024  0.1582 -0.1992
  123OSM    H4S13059   1.999   4.530   6.889  2.4884  0.1296  1.0092
  123OSM    C5S13060   2.049   4.730   6.915 -0.0863 -0.2092  0.0316
  123OSM    H5S13061   2.072   4.824   6.863  2.4363 -1.1492 -0.7246
  123OSM    C6S13062   2.046   4.734   7.063  0.1189  0.0465  0.3108
  123OSM    H6S13063   2.135   4.786   7.106 -0.0136  0.2780  0.3062
  123OSM    H6T13064   2.048   4.628   7.097  0.0532 -0.0799 -0.0796
  123OSM    C7S13065   1.917   4.801   7.121  0.8272 -0.2964 -0.1699
  123OSM    H7S13066   1.830   4.747   7.077 -0.4456  0.5859  1.1679
  123OSM    H7T13067   1.892   4.905   7.092  0.0059 -1.0156 -2.2055
  123OSM    C8S13068   1.917   4.794   7.275  0.1956 -0.0641  0.0093
  123OSM    H8S13069   1.822   4.836   7.315 -0.5076 -2.6368  1.2764
  123OSM    H8T13070   2.006   4.855   7.301 -0.2217  0.0639  1.2002
  123OSM    C9S13071   1.921   4.660   7.357 -0.1896 -0.4330  0.1576
  123OSM    H9S13072   1.997   4.588   7.320 -1.0170 -1.0520 -0.3427
  123OSM    H9T13073   1.825   4.609   7.373  0.7748 -3.1879 -2.0612
  123OSM   C10S13074   1.956   4.710   7.495  0.4802 -0.0384 -0.3597
  123OSM   H10S13075   1.868   4.767   7.534  0.2511  1.3756 -2.7242
  123OSM   H10T13076   2.037   4.786   7.500  0.1149  0.2862  1.2320
  123OSM   C11S13077   2.003   4.600   7.594 -0.5605  0.0290  0.0122
  123OSM   H11S13078   2.106   4.564   7.572 -0.6029  0.3154 -0.6976
  123OSM   H11T13079   1.945   4.506   7.579 -0.2766 -0.2486  0.5975
  123OSM   C12S13080   1.993   4.638   7.741 -0.5251  0.4480 -0.3228
  123OSM   H12S13081   1.885   4.653   7.764 -0.3776 -0.5836  1.1366
  123OSM   H12T13082   2.058   4.724   7.767  0.0514 -0.4934  1.4585
  123OSM   C13S13083   2.039   4.518   7.828  0.2171 -1.4522 -0.1732
  123OSM   H13S13084   2.130   4.470   7.787  1.1263 -0.9912  1.2299
  123OSM   H13T13085   1.958   4.442   7.816  0.2535 -1.4516 -0.4354
  123OSM   C14S13086   2.053   4.557   7.979  0.1946  1.2947 -0.6371
  123OSM   H14S13087   1.962   4.612   8.013 -1.2564 -1.6241  0.5864
  123OSM   H14T13088   2.134   4.632   7.966 -1.6177  2.8826 -4.3207
  123OSM   C15S13089   2.088   4.445   8.073  0.7646  0.2071 -0.6652
  123OSM   H15S13090   2.175   4.385   8.039  1.0082 -0.1910  0.6135
  123OSM   H15T13091   2.002   4.375   8.080  2.1414 -1.4966  0.2381
  123OSM   C16S13092   2.136   4.486   8.215 -0.0080  0.0500 -0.0164
  123OSM   H16S13093   2.225   4.549   8.198  0.7418 -0.2776  2.2778
  123OSM   H16T13094   2.165   4.395   8.273  4.0107  1.3871  0.3245
  123OSM   C17S13095   2.035   4.576   8.285  0.2653 -0.0289  0.2676
  123OSM   H17S13096   1.967   4.505   8.336  0.0031 -0.6958 -0.9749
  123OSM   H17T13097   1.977   4.642   8.218 -0.9967  0.5260  1.8388
  123OSM   C18S13098   2.109   4.661   8.388  0.4072 -0.5702  0.1894
  123OSM   H18S13099   2.057   4.714   8.470 -2.4776  0.9035 -2.4038
  123OSM   H18T13100   2.154   4.750   8.340 -0.9184  0.4329  0.7449
  123OSM   H18U13101   2.191   4.598   8.431  1.5461  0.4583 -0.4216
  123OSM    C1F13102   1.628   4.622   6.720 -0.4517 -0.1064 -0.2527
  123OSM     OF13103   1.601   4.526   6.653 -0.2423 -0.0585 -0.1269
  123OSM    C2F13104   1.528   4.719   6.774 -0.8613 -0.0074  0.3396
  123OSM    H2F13105   1.468   4.759   6.690  2.1351  4.0676 -0.1535
  123OSM    H2G13106   1.575   4.813   6.808 -0.7470 -0.4980  1.6052
  123OSM    C3F13107   1.451   4.667   6.900  0.2319 -0.4232  0.4169
  123OSM    H3F13108   1.412   4.567   6.872  1.4547 -0.3462 -1.7559
  123OSM    H3G13109   1.369   4.733   6.935  0.5382  0.6171 -0.7462
  123OSM    C4F13110   1.550   4.653   7.018 -0.2570  0.4582 -0.1681
  123OSM    H4F13111   1.597   4.752   7.039  0.0805 -0.0856  1.8553
  123OSM    H4G13112   1.635   4.586   6.994 -0.5675  0.9463 -3.0841
  123OSM    C5F13113   1.472   4.604   7.140  0.0888  0.3643 -0.2802
  123OSM    H5F13114   1.441   4.498   7.130  1.6930 -0.0262 -1.4727
  123OSM    H5G13115   1.378   4.663   7.148  0.5878  0.9489  2.2849
  123OSM    C6F13116   1.555   4.610   7.270  0.2100  0.2763 -0.5154
  123OSM    H6F13117   1.591   4.714   7.284  0.4947  0.2109 -0.7459
  123OSM    H6G13118   1.652   4.558   7.255 -0.8399 -1.2686 -2.5924
  123OSM    C7F13119   1.480   4.552   7.385 -0.3563 -0.3166  0.5426
  123OSM    H7F13120   1.481   4.442   7.375 -0.7904 -0.1249 -2.2502
  123OSM    H7G13121   1.372   4.576   7.377 -0.9234 -1.3888  3.4560
  123OSM    C8F13122   1.517   4.593   7.530  0.3974 -0.2847  0.1668
  123OSM    H8F13123   1.428   4.595   7.597  1.1592  0.2678  1.1817
  123OSM    H8G13124   1.552   4.698   7.521  1.4518 -0.4211  2.1969
  123OSM    C9F13125   1.627   4.515   7.592 -0.2623 -0.2020 -0.3472
  123OSM    H9F13126   1.730   4.533   7.557  0.9674 -3.2943  1.3017
  123OSM   C10F13127   1.615   4.422   7.687 -0.9375 -0.0742 -0.0692
  123OSM   H10F13128   1.709   4.379   7.722  0.3565  2.1391 -0.6601
  123OSM   C11F13129   1.494   4.384   7.758 -0.7990 -0.5428  0.3615
  123OSM   H11F13130   1.474   4.276   7.738 -1.8097 -0.3641  0.3292
  123OSM   H11G13131   1.403   4.444   7.735  1.5132  3.8994  1.7708
  123OSM   C12F13132   1.503   4.418   7.909  0.3808 -0.2035  0.3996
  123OSM   H12F13133   1.400   4.400   7.947  0.1667 -0.8443 -0.4661
  123OSM   H12G13134   1.515   4.528   7.922 -1.9517  0.2817 -1.0619
  123OSM   C13F13135   1.608   4.347   7.988  0.7530  0.0454  0.5068
  123OSM   H13F13136   1.709   4.385   7.961  1.9844 -1.8740  2.1227
  123OSM   H13G13137   1.614   4.239   7.963  0.5546 -0.0441  0.8314
  123OSM   C14F13138   1.596   4.377   8.138 -1.3542  0.5427  1.1721
  123OSM   H14F13139   1.511   4.318   8.180 -2.6253  1.0087 -0.6069
  123OSM   H14G13140   1.581   4.486   8.149 -0.8550  0.8787 -0.9750
  123OSM   C15F13141   1.721   4.329   8.220 -0.4107 -0.2357 -0.1480
  123OSM   H15F13142   1.817   4.381   8.203 -0.0179 -0.3508  1.5762
  123OSM   H15G13143   1.738   4.225   8.184 -0.1287 -0.0461 -0.5738
  123OSM   C16F13144   1.698   4.328   8.367 -0.6778  0.4193 -0.0536
  123OSM   H16F13145   1.599   4.278   8.369 -0.4899 -0.2130 -2.6640
  123OSM   H16G13146   1.689   4.423   8.423 -2.6424  0.5678 -0.5262
  123OSM   C17F13147   1.805   4.252   8.443 -0.0039  0.1604 -0.6392
  123OSM   H17F13148   1.905   4.298   8.426  0.5117 -0.6181  0.2630
  123OSM   H17G13149   1.811   4.144   8.418 -1.6612 -0.6476  2.0605
  123OSM   C18F13150   1.779   4.272   8.591 -0.5558 -0.9297 -0.3698
  123OSM   H18F13151   1.856   4.221   8.654 -0.9374 -1.2425 -0.1512
  123OSM   H18G13152   1.684   4.225   8.625 -0.0863 -0.5453  1.6172
  123OSM   H18H13153   1.774   4.382   8.604 -0.4437 -0.8320 -1.1342
  124OSM      N13154   5.472   3.332   6.283  0.2250  0.0668  0.2522
  124OSM    C1513155   5.454   3.206   6.203 -0.5002  0.6968  0.3590
  124OSM   H15A13156   5.449   3.228   6.097 -1.0776 -1.9525 -0.2254
  124OSM   H15B13157   5.361   3.159   6.231 -0.1189 -0.1210  0.2558
  124OSM   H15C13158   5.531   3.132   6.219 -0.4125  0.1583 -2.1295
  124OSM    C1413159   5.494   3.293   6.422 -0.2311  0.2890  0.3793
  124OSM   H14A13160   5.578   3.226   6.433 -1.6145 -1.6499 -0.3286
  124OSM   H14B13161   5.410   3.230   6.450 -0.4274  0.0303 -0.7288
  124OSM   H14C13162   5.518   3.374   6.488 -0.3118 -0.1459  0.9494
  124OSM    C1313163   5.585   3.415   6.224  1.0081 -0.5031 -0.1960
  124OSM   H13A13164   5.678   3.362   6.212  2.0702  1.4725 -1.1272
  124OSM   H13B13165   5.599   3.499   6.290 -0.5138 -0.0023 -0.4548
  124OSM   H13C13166   5.558   3.443   6.123  0.9116  0.0299 -0.0241
  124OSM    C1213167   5.345   3.417   6.273  0.6616  0.7525  0.1844
  124OSM   H12A13168   5.318   3.416   6.168  0.3237  3.9373  0.1401
  124OSM   H12B13169   5.365   3.518   6.305  1.0331  0.2867  1.4781
  124OSM    C1113170   5.216   3.369   6.354 -0.2424  0.0770  0.1487
  124OSM   H11A13171   5.156   3.462   6.356  1.2393  1.0973  3.9632
  124OSM   H11B13172   5.246   3.345   6.458  1.9554  0.2512 -0.3914
  124OSM      P13173   5.135   3.115   6.336 -0.0466  0.1956  0.2069
  124OSM    O1313174   5.005   3.099   6.403 -0.3188 -0.5513  0.2836
  124OSM    O1413175   5.189   3.026   6.229 -0.3564 -0.0979 -0.2508
  124OSM    O1113176   5.242   3.116   6.452  0.5925 -0.5194 -0.2511
  124OSM    O1213177   5.151   3.259   6.281  0.4576 -0.3048  0.2440
  124OSM    C1S13178   5.281   2.992   6.522 -0.4420 -0.2574  0.7162
  124OSM    H1S13179   5.363   2.935   6.475 -1.9079 -0.5364 -1.6692
  124OSM    H1T13180   5.194   2.924   6.530 -1.2091  0.7570  1.3515
  124OSM     NF13181   5.387   2.907   6.725  0.2892  0.0713  0.4948
  124OSM    HNF13182   5.331   2.841   6.774  0.7765  0.4794  1.6440
  124OSM    C2S13183   5.328   3.028   6.662 -0.9393 -0.1641  0.4633
  124OSM    H2S13184   5.403   3.109   6.658 -0.3216 -0.7547 -2.4037
  124OSM    C3S13185   5.215   3.081   6.746  0.2459  0.0381 -0.4044
  124OSM    H3S13186   5.136   3.003   6.739 -1.1880  1.5099 -1.2602
  124OSM     O313187   5.155   3.200   6.697 -0.1892 -0.0861  0.1793
  124OSM    HO313188   5.168   3.201   6.602  1.0020  1.8751  0.3093
  124OSM    C4S13189   5.257   3.107   6.888 -0.3291  0.1082  0.3317
  124OSM    H4S13190   5.349   3.167   6.896 -1.2977  2.4169 -3.3577
  124OSM    C5S13191   5.201   3.064   7.000  0.4068  0.7116 -0.2263
  124OSM    H5S13192   5.118   2.991   7.000  1.2144 -0.2360 -0.8005
  124OSM    C6S13193   5.248   3.090   7.147  0.0230  0.2426  0.1672
  124OSM    H6S13194   5.357   3.096   7.165  0.0913  1.0519 -0.4828
  124OSM    H6T13195   5.220   3.011   7.220 -3.1830 -0.3195 -1.4514
  124OSM    C7S13196   5.210   3.242   7.184 -0.8115  0.5498  0.4358
  124OSM    H7S13197   5.107   3.249   7.143 -0.6051  0.8325 -0.0345
  124OSM    H7T13198   5.289   3.299   7.132 -0.7895 -1.1856 -1.6001
  124OSM    C8S13199   5.215   3.266   7.337  0.0088  1.0771 -0.3952
  124OSM    H8S13200   5.310   3.215   7.365 -1.1169 -1.2214 -0.5276
  124OSM    H8T13201   5.142   3.201   7.388 -0.1044  2.6631  1.5892
  124OSM    C9S13202   5.185   3.405   7.380 -0.1689 -0.6758  0.1556
  124OSM    H9S13203   5.076   3.429   7.378  0.2281  1.2845 -0.3706
  124OSM    H9T13204   5.229   3.474   7.305  0.3518  2.6756  3.2640
  124OSM   C10S13205   5.222   3.433   7.525  0.1793 -0.0687 -0.5012
  124OSM   H10S13206   5.243   3.542   7.529  1.6152 -0.3631  0.5799
  124OSM   H10T13207   5.318   3.381   7.543  1.1745  1.3300 -1.5360
  124OSM   C11S13208   5.122   3.382   7.628 -0.2956  0.5183 -0.2923
  124OSM   H11S13209   5.108   3.274   7.612  1.0146  0.5385 -1.9144
  124OSM   H11T13210   5.021   3.425   7.611 -0.7971 -0.9824 -1.2368
  124OSM   C12S13211   5.155   3.419   7.777  0.4879  0.1879 -0.4100
  124OSM   H12S13212   5.263   3.399   7.792  0.7724  1.4185 -0.7142
  124OSM   H12T13213   5.093   3.343   7.830 -1.4387  0.4095 -2.2186
  124OSM   C13S13214   5.100   3.560   7.801 -0.0132 -0.0504 -0.3740
  124OSM   H13S13215   4.996   3.576   7.766  1.6754  3.1351 -4.7931
  124OSM   H13T13216   5.165   3.624   7.738  2.0214 -2.9589 -1.4450
  124OSM   C14S13217   5.120   3.611   7.946 -0.1713 -0.5752 -0.1678
  124OSM   H14S13218   5.140   3.720   7.946 -0.2857 -0.5496  0.3653
  124OSM   H14T13219   5.211   3.562   7.986  0.3386 -2.3430 -3.1618
  124OSM   C15S13220   4.994   3.595   8.037 -0.1909 -0.1428  0.2106
  124OSM   H15S13221   4.966   3.489   8.053 -0.0486 -0.5739 -2.0096
  124OSM   H15T13222   4.910   3.660   8.004  1.5098  0.1673 -4.2442
  124OSM   C16S13223   5.032   3.629   8.182  0.6317  0.0752 -0.3110
  124OSM   H16S13224   5.052   3.738   8.189 -0.7890  0.2739  1.5621
  124OSM   H16T13225   5.127   3.579   8.210  1.0255  1.6091  1.3650
  124OSM   C17S13226   4.937   3.586   8.299 -0.3886 -0.8405 -0.8223
  124OSM   H17S13227   4.831   3.597   8.269 -0.5236  1.9681  0.4479
  124OSM   H17T13228   4.956   3.655   8.383  1.8884 -1.8243 -0.4498
  124OSM   C18S13229   4.982   3.445   8.341  0.4882  0.7122  0.4916
  124OSM   H18S13230   4.986   3.372   8.258 -1.6999 -1.2716  2.0011
  124OSM   H18T13231   4.911   3.388   8.404  0.7080 -0.6575 -0.4572
  124OSM   H18U13232   5.077   3.453   8.398  1.3864  2.1764 -1.0945
  124OSM    C1F13233   5.500   2.856   6.682 -0.0038 -0.0980 -0.1512
  124OSM     OF13234   5.564   2.905   6.587 -0.0040 -0.4395 -0.4034
  124OSM    C2F13235   5.526   2.724   6.746  0.1822  0.2444 -0.5036
  124OSM    H2F13236   5.456   2.649   6.703  1.1394 -0.5468 -0.6965
  124OSM    H2G13237   5.510   2.740   6.855  0.1867  2.9163 -0.8153
  124OSM    C3F13238   5.667   2.673   6.707  0.1107  0.3207 -0.3456
  124OSM    H3F13239   5.679   2.689   6.598 -0.5977  2.1200 -0.2138
  124OSM    H3G13240   5.677   2.566   6.732 -0.4775  0.0679 -1.1400
  124OSM    C4F13241   5.776   2.738   6.790 -0.3420 -0.1031 -0.2035
  124OSM    H4F13242   5.743   2.737   6.896  0.4427  0.7231  0.0586
  124OSM    H4G13243   5.780   2.845   6.761  0.5193 -0.7655 -2.8722
  124OSM    C5F13244   5.917   2.676   6.775 -0.9743 -0.7260 -0.2824
  124OSM    H5F13245   5.974   2.717   6.689 -1.9274  1.4107  0.0598
  124OSM    H5G13246   5.908   2.566   6.762 -2.2669 -0.3851 -3.2090
  124OSM    C6F13247   5.994   2.709   6.909  0.0359 -0.3516 -0.1765
  124OSM    H6F13248   5.924   2.679   6.990 -1.1431  0.6366 -0.7971
  124OSM    H6G13249   6.015   2.816   6.926 -0.0911 -0.1755 -1.0718
  124OSM    C7F13250   6.133   2.640   6.914  0.6587 -0.0440  0.6661
  124OSM    H7F13251   6.197   2.665   6.827 -0.7663 -0.9936 -0.7169
  124OSM    H7G13252   6.116   2.530   6.910  2.5462 -0.3389 -0.1932
  124OSM    C8F13253   6.210   2.662   7.051 -0.3390  1.0929  0.2031
  124OSM    H8F13254   6.141   2.639   7.135  0.1639 -2.6020 -0.2059
  124OSM    H8G13255   6.214   2.771   7.068 -1.2481  1.4486 -1.5942
  124OSM    C9F13256   6.345   2.601   7.047  0.2627 -0.2644  0.0391
  124OSM    H9F13257   6.416   2.627   6.967  0.6999  1.8576  1.0320
  124OSM   C10F13258   6.396   2.513   7.131 -0.2207  0.4409 -0.1977
  124OSM   H10F13259   6.496   2.469   7.122 -0.2867  0.3015 -0.2629
  124OSM   C11F13260   6.319   2.456   7.247 -0.3102 -0.6659 -0.3236
  124OSM   H11F13261   6.308   2.346   7.240  0.4815 -0.7049 -1.0229
  124OSM   H11G13262   6.217   2.500   7.242 -0.6703 -1.5370 -0.6979
  124OSM   C12F13263   6.358   2.505   7.389 -0.0444  0.5132 -0.1900
  124OSM   H12F13264   6.373   2.614   7.373  3.8976  0.0317 -0.8453
  124OSM   H12G13265   6.460   2.473   7.418  0.5343 -0.6200 -3.1151
  124OSM   C13F13266   6.258   2.482   7.503  0.0471 -0.0284 -0.2056
  124OSM   H13F13267   6.200   2.388   7.491  2.0204 -1.4113  0.6229
  124OSM   H13G13268   6.190   2.570   7.496 -0.5420 -0.4816 -0.2792
  124OSM   C14F13269   6.303   2.477   7.643  0.2917  1.0019 -0.8894
  124OSM   H14F13270   6.373   2.559   7.669  2.8288 -1.1673 -0.3239
  124OSM   H14G13271   6.363   2.384   7.658  0.3591  0.7336 -2.5593
  124OSM   C15F13272   6.187   2.496   7.737  0.2225 -1.2265 -0.4550
  124OSM   H15F13273   6.112   2.416   7.719 -1.7582  0.6463 -0.9142
  124OSM   H15G13274   6.142   2.595   7.712 -0.4041 -0.7776  2.1395
  124OSM   C16F13275   6.232   2.483   7.882  0.1395  0.0561 -0.2353
  124OSM   H16F13276   6.320   2.545   7.908  1.5269 -2.2480  0.8619
  124OSM   H16G13277   6.248   2.376   7.906 -2.3026 -0.0492  1.3021
  124OSM   C17F13278   6.124   2.538   7.986 -0.7395  0.5563  0.4703
  124OSM   H17F13279   6.031   2.480   7.972 -1.8427  2.1764  0.7978
  124OSM   H17G13280   6.109   2.643   7.953 -0.6968 -0.0559 -1.6161
  124OSM   C18F13281   6.154   2.537   8.130 -0.2956 -0.1693 -0.5696
  124OSM   H18F13282   6.088   2.607   8.184 -0.2233 -1.6082  1.4839
  124OSM   H18G13283   6.259   2.564   8.155 -0.4204  0.1893 -0.4358
  124OSM   H18H13284   6.130   2.435   8.166 -2.7129 -0.0482 -1.6225
  125OSM      N13285   4.643   3.818   6.498 -0.3665 -0.5566 -0.6831
  125OSM    C1513286   4.647   3.941   6.415 -0.4937 -0.0431  0.0330
  125OSM   H15A13287   4.726   4.008   6.445 -0.0688 -0.5268  0.0083
  125OSM   H15B13288   4.552   3.990   6.401 -0.0105  0.7373 -0.6045
  125OSM   H15C13289   4.680   3.915   6.315 -0.7760 -1.1895  0.2326
  125OSM    C1413290   4.770   3.744   6.493  0.0373 -0.3022  0.5939
  125OSM   H14A13291   4.861   3.802   6.503  0.8364 -1.5257  0.6353
  125OSM   H14B13292   4.769   3.694   6.398 -2.7754  1.3526 -0.3623
  125OSM   H14C13293   4.781   3.671   6.572  2.2874  1.7996  2.4068
  125OSM    C1313294   4.634   3.879   6.642 -0.3911 -0.4731  0.4179
  125OSM   H13A13295   4.571   3.967   6.637 -0.7438 -0.7617 -0.4735
  125OSM   H13B13296   4.732   3.919   6.665 -0.6516 -0.0067  0.7464
  125OSM   H13C13297   4.611   3.804   6.716  1.7660  0.1633  1.8244
  125OSM    C1213298   4.517   3.743   6.466 -0.6043 -0.1922  0.0008
  125OSM   H12A13299   4.493   3.717   6.364 -0.8539  0.3362 -0.0787
  125OSM   H12B13300   4.441   3.819   6.480  0.7155  1.5726 -1.7453
  125OSM    C1113301   4.481   3.610   6.545 -0.9636  0.1615 -0.1751
  125OSM   H11A13302   4.381   3.573   6.513  0.2351 -2.1319 -1.4736
  125OSM   H11B13303   4.489   3.645   6.651 -2.2663  1.1848 -0.3820
  125OSM      P13304   4.570   3.375   6.598  0.7365 -0.0052  0.3978
  125OSM    O1313305   4.435   3.311   6.577 -0.5254  0.0336  0.2598
  125OSM    O1413306   4.685   3.295   6.556 -0.1515 -0.4095  0.1305
  125OSM    O1113307   4.591   3.420   6.745 -0.6807 -0.1497  0.2296
  125OSM    O1213308   4.576   3.510   6.513  0.7704  0.5498  0.2850
  125OSM    C1S13309   4.706   3.498   6.784  0.2943  0.1941  0.4508
  125OSM    H1S13310   4.700   3.599   6.739  0.2743 -0.4444 -1.0503
  125OSM    H1T13311   4.804   3.470   6.738 -0.3765  0.9877 -1.5465
  125OSM     NF13312   4.863   3.567   6.958  0.3680 -0.1520 -0.5085
  125OSM    HNF13313   4.947   3.514   6.955  1.4774  1.5809 -1.5392
  125OSM    C2S13314   4.745   3.485   6.938 -0.3798  0.3431  0.2204
  125OSM    H2S13315   4.659   3.515   7.001 -0.9429  2.8532 -1.5941
  125OSM    C3S13316   4.775   3.339   6.966  0.3921  0.6327 -0.3482
  125OSM    H3S13317   4.864   3.314   6.904  0.4696  0.9796 -0.3811
  125OSM     O313318   4.680   3.238   6.926 -0.4348  0.3270  0.1568
  125OSM    HO313319   4.621   3.275   6.860 -0.0295 -0.8479 -0.9131
  125OSM    C4S13320   4.808   3.322   7.108 -0.1190 -0.1289 -0.1503
  125OSM    H4S13321   4.913   3.295   7.126  0.5498  2.6964  0.5864
  125OSM    C5S13322   4.722   3.323   7.211 -0.0527  0.2907 -0.2739
  125OSM    H5S13323   4.614   3.334   7.195 -0.2734 -1.2201 -0.0227
  125OSM    C6S13324   4.742   3.295   7.355 -0.3363  0.5862  0.5752
  125OSM    H6S13325   4.851   3.284   7.376  0.0336  1.7096 -0.6459
  125OSM    H6T13326   4.685   3.204   7.381  0.7729  0.1591  1.6274
  125OSM    C7S13327   4.699   3.413   7.449  0.1361 -0.1137  0.4664
  125OSM    H7S13328   4.597   3.454   7.429 -0.4080 -1.3178  0.6809
  125OSM    H7T13329   4.767   3.500   7.441  0.1045  0.1423  2.4383
  125OSM    C8S13330   4.698   3.368   7.596 -0.6628  0.4809  0.1778
  125OSM    H8S13331   4.805   3.377   7.626 -0.9868  0.3805  1.4087
  125OSM    H8T13332   4.666   3.262   7.601 -0.0801  0.3519  1.4277
  125OSM    C9S13333   4.620   3.457   7.693 -0.1637  0.2631 -0.6006
  125OSM    H9S13334   4.511   3.445   7.679 -0.1342 -0.2001 -0.4402
  125OSM    H9T13335   4.654   3.560   7.668 -1.5685  1.3672  1.7511
  125OSM   C10S13336   4.652   3.422   7.835  0.0765 -0.0613 -0.4307
  125OSM   H10S13337   4.755   3.387   7.855 -0.1317 -1.3446 -1.4584
  125OSM   H10T13338   4.601   3.326   7.854  3.4091 -2.0066 -0.6364
  125OSM   C11S13339   4.616   3.526   7.941  0.5320  0.0254 -0.4683
  125OSM   H11S13340   4.517   3.568   7.914  0.2973  1.4141  2.2109
  125OSM   H11T13341   4.694   3.605   7.939  0.7247 -0.1492  0.0078
  125OSM   C12S13342   4.618   3.463   8.082 -1.0406 -0.0569  0.4596
  125OSM   H12S13343   4.721   3.431   8.108 -1.8220 -2.6929  0.5896
  125OSM   H12T13344   4.557   3.370   8.077 -0.8430 -0.3033  2.0025
  125OSM   C13S13345   4.549   3.554   8.193 -0.3757 -0.5454  0.9139
  125OSM   H13S13346   4.443   3.576   8.165 -0.3639 -0.3637  1.0127
  125OSM   H13T13347   4.595   3.655   8.191  1.3390 -1.2985  0.1653
  125OSM   C14S13348   4.541   3.497   8.338  0.3199  0.1286  0.4732
  125OSM   H14S13349   4.639   3.525   8.381  0.6527 -1.1685  0.5994
  125OSM   H14T13350   4.541   3.387   8.327  1.0397  0.3500 -2.6210
  125OSM   C15S13351   4.438   3.559   8.430 -0.1236  0.1647 -0.0717
  125OSM   H15S13352   4.453   3.500   8.523  0.2014 -0.0023 -0.2266
  125OSM   H15T13353   4.335   3.539   8.394 -0.2848  0.5367  0.1716
  125OSM   C16S13354   4.442   3.710   8.447  0.8082  0.0787  0.2794
  125OSM   H16S13355   4.416   3.760   8.350 -2.8515  1.6598  1.8639
  125OSM   H16T13356   4.549   3.724   8.470  1.6347 -5.2923  0.7941
  125OSM   C17S13357   4.349   3.752   8.566  0.2574  0.9384  0.0876
  125OSM   H17S13358   4.367   3.680   8.649  0.3340  0.0450 -0.6947
  125OSM   H17T13359   4.241   3.742   8.541  0.4386  0.7630 -0.6340
  125OSM   C18S13360   4.375   3.895   8.611  0.6310 -0.3747  0.1537
  125OSM   H18S13361   4.316   3.930   8.698 -2.0687 -1.0809 -1.2880
  125OSM   H18T13362   4.364   3.962   8.523 -1.4762  0.1817  0.7963
  125OSM   H18U13363   4.483   3.911   8.630  0.3148  3.4378 -0.4305
  125OSM    C1F13364   4.869   3.702   6.934 -0.1837  0.6635  0.0691
  125OSM     OF13365   4.770   3.771   6.899  0.3139  0.4049  0.0742
  125OSM    C2F13366   5.012   3.750   6.917  0.3923 -0.3237 -0.3123
  125OSM    H2F13367   5.017   3.810   6.823 -1.4530  0.0385 -0.2147
  125OSM    H2G13368   5.076   3.661   6.900 -0.3013 -1.1232  1.1034
  125OSM    C3F13369   5.069   3.844   7.032  0.7095  0.6899  0.2629
  125OSM    H3F13370   5.006   3.935   7.040  1.1572  1.0184  0.0660
  125OSM    H3G13371   5.169   3.876   6.997  0.4570  1.0790 -0.1077
  125OSM    C4F13372   5.075   3.784   7.177  0.0065 -0.0006 -0.4880
  125OSM    H4F13373   5.129   3.687   7.171  0.3853  0.0626  1.4231
  125OSM    H4G13374   4.975   3.757   7.216 -0.3643  0.7742 -0.8659
  125OSM    C5F13375   5.150   3.861   7.284 -0.1216 -0.3554 -0.0242
  125OSM    H5F13376   5.167   3.965   7.250 -0.4900 -0.3117 -0.0845
  125OSM    H5G13377   5.254   3.824   7.291 -0.8811 -2.3951  1.7803
  125OSM    C6F13378   5.069   3.862   7.413 -0.6387  0.1374  0.3393
  125OSM    H6F13379   5.029   3.762   7.441  0.1110 -0.3451 -0.3036
  125OSM    H6G13380   4.982   3.929   7.397  0.7406  2.2672  1.3161
  125OSM    C7F13381   5.154   3.911   7.533  0.0982 -0.0439  0.6480
  125OSM    H7F13382   5.210   3.996   7.488 -0.5036 -1.3290 -2.8572
  125OSM    H7G13383   5.231   3.834   7.555 -1.7121 -1.6249  1.6923
  125OSM    C8F13384   5.069   3.947   7.656 -0.0564 -0.8285  0.0488
  125OSM    H8F13385   5.132   3.925   7.744 -1.5851 -1.0999  1.1163
  125OSM    H8G13386   4.986   3.874   7.662 -1.4196  0.7738  1.9788
  125OSM    C9F13387   5.005   4.081   7.665  0.3761  0.6732  0.4019
  125OSM    H9F13388   4.963   4.117   7.570 -1.9222 -2.2044  0.1654
  125OSM   C10F13389   4.979   4.144   7.779 -0.2506  0.1472  0.5732
  125OSM   H10F13390   4.937   4.245   7.767 -0.3321 -0.0206 -0.7517
  125OSM   C11F13391   5.004   4.099   7.915  0.2862 -0.5923 -1.1844
  125OSM   H11F13392   4.992   3.991   7.934 -0.2886 -0.3151  0.1134
  125OSM   H11G13393   4.928   4.151   7.976 -1.0024 -1.2420 -2.1984
  125OSM   C12F13394   5.144   4.152   7.964 -0.4936  1.2165  1.3559
  125OSM   H12F13395   5.146   4.260   7.934  0.6449  0.6183 -1.0057
  125OSM   H12G13396   5.218   4.102   7.898 -0.7646  2.1891  0.2564
  125OSM   C13F13397   5.180   4.138   8.114  1.0653 -0.5566  0.8941
  125OSM   H13F13398   5.116   4.205   8.174 -0.7487  0.0986 -1.6230
  125OSM   H13G13399   5.288   4.163   8.121  0.8022  0.6153  1.0045
  125OSM   C14F13400   5.177   3.994   8.167  0.9109 -0.3130 -0.6156
  125OSM   H14F13401   5.193   3.910   8.097 -0.8092 -1.4891  0.3198
  125OSM   H14G13402   5.080   3.974   8.218  1.9726 -1.5032  1.0366
  125OSM   C15F13403   5.277   3.974   8.281  0.9486 -0.7484  0.1072
  125OSM   H15F13404   5.238   4.015   8.376  1.2305  1.6019 -0.7271
  125OSM   H15G13405   5.368   4.033   8.256  1.0918 -1.4509 -1.1430
  125OSM   C16F13406   5.305   3.828   8.314  0.1209  0.2989 -0.2016
  125OSM   H16F13407   5.210   3.774   8.332 -0.0644  0.4725 -0.6372
  125OSM   H16G13408   5.361   3.834   8.410  0.1724  4.3183 -0.3083
  125OSM   C17F13409   5.390   3.758   8.211 -0.5737 -0.3965  0.6701
  125OSM   H17F13410   5.470   3.826   8.179 -0.9142 -1.0552 -1.7706
  125OSM   H17G13411   5.342   3.742   8.112  1.7891 -1.0830 -0.4384
  125OSM   C18F13412   5.446   3.624   8.266 -0.6043  0.1208  0.0892
  125OSM   H18F13413   5.504   3.652   8.357 -0.3836 -0.7061  0.2041
  125OSM   H18G13414   5.513   3.570   8.196 -0.9831  1.4953 -1.3801
  125OSM   H18H13415   5.366   3.560   8.308 -0.3622  1.2793  2.5391
  126OSM      N13416   2.629   3.163   6.576  0.1276  0.1032 -0.1473
  126OSM    C1513417   2.526   3.158   6.692 -0.0550  0.8448  0.5021
  126OSM   H15A13418   2.448   3.085   6.676 -0.6693  1.5133  0.3666
  126OSM   H15B13419   2.478   3.254   6.677 -0.7525  0.7175  1.7172
  126OSM   H15C13420   2.580   3.152   6.786 -0.5651 -0.1985  0.7487
  126OSM    C1413421   2.705   3.031   6.585 -0.2626 -0.5716 -0.2290
  126OSM   H14A13422   2.753   3.037   6.682 -2.0041  1.8197  0.5987
  126OSM   H14B13423   2.782   3.012   6.512  0.4356 -0.3805  0.4483
  126OSM   H14C13424   2.631   2.952   6.578 -1.9221  0.8946 -0.0001
  126OSM    C1313425   2.568   3.181   6.439  0.3371 -0.0073 -0.1686
  126OSM   H13A13426   2.639   3.173   6.358 -0.1927  1.7230 -0.8419
  126OSM   H13B13427   2.541   3.285   6.430  0.8769  0.2628  1.1210
  126OSM   H13C13428   2.486   3.111   6.428  0.4346 -0.1840  0.1851
  126OSM    C1213429   2.722   3.278   6.600  0.2724 -0.3943  0.0564
  126OSM   H12A13430   2.792   3.292   6.519 -0.5925 -0.5058 -0.7364
  126OSM   H12B13431   2.779   3.252   6.688 -0.5563  2.5711  1.6020
  126OSM    C1113432   2.662   3.416   6.633  0.0113 -0.1569 -0.0371
  126OSM   H11A13433   2.748   3.486   6.639  0.0569 -0.0949 -1.2647
  126OSM   H11B13434   2.608   3.393   6.727  1.0678 -2.8135 -0.0011
  126OSM      P13435   2.437   3.528   6.546 -0.2460 -0.4450 -0.4118
  126OSM    O1313436   2.426   3.641   6.451 -0.2636 -0.3382 -0.2183
  126OSM    O1413437   2.324   3.434   6.555  0.3882  0.0783  0.0648
  126OSM    O1113438   2.459   3.595   6.684  0.0393  0.0440 -0.1626
  126OSM    O1213439   2.574   3.457   6.529  0.7674  0.0294  0.1380
  126OSM    C1S13440   2.401   3.540   6.808  0.4086 -0.3642  0.2213
  126OSM    H1S13441   2.379   3.432   6.800 -0.2376 -0.1360 -1.7037
  126OSM    H1T13442   2.299   3.581   6.824  0.3732 -1.0990  2.0723
  126OSM     NF13443   2.422   3.534   7.054 -0.0633  0.4349  0.2748
  126OSM    HNF13444   2.404   3.599   7.127 -0.6495  1.1367 -0.4669
  126OSM    C2S13445   2.473   3.601   6.927 -0.0228  0.1627  0.0060
  126OSM    H2S13446   2.581   3.576   6.915 -0.0413  0.3379 -0.5610
  126OSM    C3S13447   2.469   3.759   6.922  0.5932  1.0094  0.0379
  126OSM    H3S13448   2.364   3.789   6.938  0.5880  2.1282 -1.8335
  126OSM     O313449   2.500   3.822   6.797  0.1491  0.3588  0.5428
  126OSM    HO313450   2.486   3.750   6.736 -0.5401  1.5051 -0.7211
  126OSM    C4S13451   2.552   3.821   7.029 -0.3636 -0.7290  0.3111
  126OSM    H4S13452   2.494   3.861   7.113 -0.6532  2.4399 -1.2462
  126OSM    C5S13453   2.684   3.855   7.022  0.5299  0.5019 -0.0203
  126OSM    H5S13454   2.743   3.829   6.932 -0.1059 -2.0431  0.2130
  126OSM    C6S13455   2.766   3.913   7.129 -0.4154 -0.3129 -0.9626
  126OSM    H6S13456   2.782   4.022   7.118  0.4578 -0.4668 -1.3001
  126OSM    H6T13457   2.865   3.862   7.130 -0.5766 -0.7904 -3.3450
  126OSM    C7S13458   2.713   3.888   7.277  0.3443  0.2905 -0.5340
  126OSM    H7S13459   2.711   3.777   7.291  1.8986  0.2313 -0.5981
  126OSM    H7T13460   2.611   3.928   7.295  0.9431  0.7765  2.2070
  126OSM    C8S13461   2.809   3.947   7.380 -0.0857 -0.2612 -0.7319
  126OSM    H8S13462   2.818   4.058   7.376  0.8482 -0.2737  0.3982
  126OSM    H8T13463   2.911   3.912   7.352  0.6882 -0.1368  1.7084
  126OSM    C9S13464   2.782   3.890   7.521 -0.3258 -0.2603  0.3259
  126OSM    H9S13465   2.804   3.781   7.513 -0.2001 -0.1359 -1.4958
  126OSM    H9T13466   2.675   3.900   7.549  0.2827 -1.4672  3.4656
  126OSM   C10S13467   2.876   3.958   7.619  0.0755 -0.3236  0.1305
  126OSM   H10S13468   2.845   4.064   7.635 -2.1427 -0.8521 -0.3017
  126OSM   H10T13469   2.978   3.953   7.576  0.9278  1.5126  1.7963
  126OSM   C11S13470   2.874   3.894   7.757 -0.0451 -0.2241 -0.3615
  126OSM   H11S13471   2.925   3.797   7.777  1.5542  0.9079  1.3368
  126OSM   H11T13472   2.766   3.875   7.777  0.1973 -0.8845  0.3892
  126OSM   C12S13473   2.916   4.002   7.856 -0.2913 -0.4494 -0.1700
  126OSM   H12S13474   2.980   4.080   7.810 -0.3840 -0.2421  0.0525
  126OSM   H12T13475   2.978   3.944   7.927  0.0312 -1.3382 -1.1465
  126OSM   C13S13476   2.805   4.077   7.931  0.0151  0.8175 -0.1491
  126OSM   H13S13477   2.730   4.019   7.989 -0.7836  1.4343 -0.5479
  126OSM   H13T13478   2.745   4.134   7.858 -2.5727 -2.5553 -0.9140
  126OSM   C14S13479   2.858   4.178   8.038 -0.1658  0.6523  0.3045
  126OSM   H14S13480   2.775   4.244   8.071 -0.7381  0.7343 -1.1959
  126OSM   H14T13481   2.924   4.244   7.978 -0.5815 -0.9501 -2.0855
  126OSM   C15S13482   2.944   4.113   8.148  0.2857  0.2398 -0.5373
  126OSM   H15S13483   2.986   4.202   8.198 -0.4784 -0.6386  1.8139
  126OSM   H15T13484   3.026   4.048   8.110 -1.7949 -1.5982 -2.1585
  126OSM   C16S13485   2.858   4.030   8.249 -0.2398 -0.5351  0.5622
  126OSM   H16S13486   2.814   3.942   8.197  1.2568 -0.2257 -1.3454
  126OSM   H16T13487   2.775   4.092   8.290 -0.0780 -0.9076  1.4867
  126OSM   C17S13488   2.942   3.978   8.365 -0.0975  0.1639  0.2597
  126OSM   H17S13489   2.997   4.065   8.406 -0.8785  0.7581  0.0640
  126OSM   H17T13490   3.020   3.911   8.324 -0.5598  1.0915 -2.2782
  126OSM   C18S13491   2.855   3.914   8.479  0.4308  0.1182 -0.5466
  126OSM   H18S13492   2.805   3.830   8.427 -0.3158  1.4120 -2.0132
  126OSM   H18T13493   2.782   3.990   8.514  0.6158 -0.1173  0.3713
  126OSM   H18U13494   2.908   3.892   8.574  0.1656  0.5096 -0.3076
  126OSM    C1F13495   2.454   3.411   7.089  0.0061 -0.1808 -0.8311
  126OSM     OF13496   2.497   3.339   7.003  0.2333 -0.5053  0.4732
  126OSM    C2F13497   2.457   3.380   7.236  0.3206  0.0696 -1.1735
  126OSM    H2F13498   2.368   3.427   7.283  0.8050 -0.8629  0.8057
  126OSM    H2G13499   2.543   3.432   7.283 -0.3417  0.6674 -0.5974
  126OSM    C3F13500   2.454   3.230   7.266  0.1874 -0.4060 -0.3556
  126OSM    H3F13501   2.544   3.174   7.232  0.1968  0.9821 -2.8749
  126OSM    H3G13502   2.363   3.193   7.213 -0.6179 -0.0883  0.7901
  126OSM    C4F13503   2.416   3.201   7.414  0.2323 -0.4810  0.2557
  126OSM    H4F13504   2.309   3.226   7.432  0.2426  0.7278 -1.2160
  126OSM    H4G13505   2.471   3.260   7.490 -1.6017  0.3078  1.0103
  126OSM    C5F13506   2.426   3.057   7.456 -0.1876 -0.3809  0.7068
  126OSM    H5F13507   2.513   3.024   7.395 -0.5016  0.9609 -0.5229
  126OSM    H5G13508   2.338   3.000   7.420 -0.1242  0.8331 -1.5160
  126OSM    C6F13509   2.446   3.035   7.606 -0.1148 -0.1174 -0.6285
  126OSM    H6F13510   2.521   3.106   7.647  1.8814 -0.7797 -2.8614
  126OSM    H6G13511   2.510   2.945   7.626 -1.8182 -1.3196 -0.3645
  126OSM    C7F13512   2.316   3.050   7.683  0.2457 -0.4526  0.1215
  126OSM    H7F13513   2.251   2.971   7.641  1.6154 -1.3445 -0.3934
  126OSM    H7G13514   2.267   3.150   7.676  1.0239  0.1661  2.4454
  126OSM    C8F13515   2.306   3.014   7.834 -0.5078  0.1500 -0.2419
  126OSM    H8F13516   2.331   2.906   7.831  0.1163  0.3015 -0.5367
  126OSM    H8G13517   2.198   3.017   7.862 -0.8007  0.7862 -1.3901
  126OSM    C9F13518   2.386   3.102   7.919  0.3638 -0.3554  0.3473
  126OSM    H9F13519   2.424   3.183   7.856 -0.7297 -2.0500 -2.7386
  126OSM   C10F13520   2.419   3.078   8.049 -0.2437 -0.0961 -0.2446
  126OSM   H10F13521   2.474   3.160   8.097  0.5239 -0.2493 -0.8415
  126OSM   C11F13522   2.393   2.953   8.134  0.5575  0.2508 -0.1586
  126OSM   H11F13523   2.487   2.898   8.154  0.5011  0.3455  0.3962
  126OSM   H11G13524   2.312   2.885   8.099  0.3263  0.4699 -0.0566
  126OSM   C12F13525   2.334   2.991   8.272  0.3626 -0.2279  0.4105
  126OSM   H12F13526   2.393   3.072   8.321  0.1402 -0.7969  1.6695
  126OSM   H12G13527   2.331   2.909   8.346 -2.7518  0.6588  1.4362
  126OSM   C13F13528   2.186   3.045   8.273 -0.8067 -0.3481  0.0542
  126OSM   H13F13529   2.131   2.972   8.209  2.3083 -1.3932 -1.6118
  126OSM   H13G13530   2.188   3.144   8.223 -1.2252 -1.1311 -1.5634
  126OSM   C14F13531   2.107   3.042   8.404 -0.5100  0.3863  1.0615
  126OSM   H14F13532   2.002   3.074   8.390 -0.1763  0.8745 -0.5770
  126OSM   H14G13533   2.160   3.113   8.471  1.2052 -0.0637  0.2440
  126OSM   C15F13534   2.099   2.903   8.462 -0.2089 -0.0017  0.7565
  126OSM   H15F13535   2.199   2.883   8.506  0.4539 -0.6788 -0.9964
  126OSM   H15G13536   2.085   2.831   8.379  3.6189 -1.4132  1.1136
  126OSM   C16F13537   1.989   2.894   8.564 -0.0052 -0.2196  0.0420
  126OSM   H16F13538   1.993   2.988   8.623 -0.7468  0.2652 -0.6465
  126OSM   H16G13539   2.016   2.816   8.638 -0.6906 -1.2490 -0.7787
  126OSM   C17F13540   1.846   2.875   8.518  0.6364  0.5797 -0.1613
  126OSM   H17F13541   1.831   2.949   8.436 -0.3410  0.7582  0.1645
  126OSM   H17G13542   1.763   2.895   8.590 -1.2717 -2.9102 -1.1604
  126OSM   C18F13543   1.817   2.731   8.472  0.3863 -1.1651 -0.1582
  126OSM   H18F13544   1.897   2.683   8.411 -2.7485 -2.7444 -3.4045
  126OSM   H18G13545   1.726   2.732   8.407 -0.5128  0.5674  1.0690
  126OSM   H18H13546   1.787   2.655   8.547 -1.5534 -2.3091 -1.9626
  127OSM      N13547   5.152   0.508   6.087 -0.0317 -0.1655  0.5589
  127OSM    C1513548   5.027   0.419   6.082 -0.1855 -0.5529 -0.3399
  127OSM   H15A13549   5.048   0.328   6.137 -0.0528  0.7511  1.9032
  127OSM   H15B13550   4.993   0.396   5.982  0.6884  3.8202 -1.8742
  127OSM   H15C13551   4.954   0.474   6.139  1.9370  1.2961  0.7644
  127OSM    C1413552   5.256   0.444   6.001  0.2295  0.2637  0.6976
  127OSM   H14A13553   5.286   0.348   6.042 -1.1827  0.5071  2.4073
  127OSM   H14B13554   5.351   0.496   6.004  0.5808 -0.3700  0.9439
  127OSM   H14C13555   5.228   0.427   5.898  0.4820  0.6019  0.5705
  127OSM    C1313556   5.112   0.646   6.050  0.1358  0.2487 -0.4796
  127OSM   H13A13557   5.075   0.641   5.949 -1.3446  0.7072  0.0031
  127OSM   H13B13558   5.197   0.712   6.055  0.0401  0.2867  2.2216
  127OSM   H13C13559   5.029   0.682   6.111 -0.3834  2.1615 -2.1895
  127OSM    C1213560   5.207   0.528   6.229  0.9205  0.0665 -0.1311
  127OSM   H12A13561   5.276   0.611   6.229  0.3682  0.5486 -1.3785
  127OSM   H12B13562   5.264   0.443   6.262  0.4125 -0.0601  0.4355
  127OSM    C1113563   5.101   0.563   6.338 -0.2257 -0.2048  0.1564
  127OSM   H11A13564   5.152   0.546   6.435  1.8110 -1.5949 -1.0838
  127OSM   H11B13565   5.022   0.485   6.333 -2.2003  1.7134  0.0660
  127OSM      P13566   5.098   0.818   6.376  0.0888 -0.2187  0.6930
  127OSM    O1313567   5.157   0.893   6.261 -0.1162  0.1455  0.4014
  127OSM    O1413568   4.999   0.886   6.458  0.3846 -0.1138 -0.5232
  127OSM    O1113569   5.216   0.771   6.468  0.7334  0.3085  0.2810
  127OSM    O1213570   5.033   0.686   6.328  0.3484  0.5771 -0.0519
  127OSM    C1S13571   5.278   0.864   6.560 -0.2924 -0.6147 -0.2612
  127OSM    H1S13572   5.259   0.973   6.547 -1.2479 -0.5874  1.1023
  127OSM    H1T13573   5.388   0.854   6.561  0.0004  1.7977  1.1666
  127OSM     NF13574   5.293   0.943   6.809 -0.1049 -0.3174 -0.0729
  127OSM    HNF13575   5.350   0.926   6.888  2.0331 -0.4387 -1.5477
  127OSM    C2S13576   5.240   0.842   6.716 -0.1726  0.3768  0.2303
  127OSM    H2S13577   5.130   0.850   6.707  0.0044  1.1839 -1.7466
  127OSM    C3S13578   5.262   0.702   6.763 -0.2742 -0.2282  0.5177
  127OSM    H3S13579   5.369   0.674   6.753 -0.7279 -1.5531 -1.1165
  127OSM     O313580   5.205   0.601   6.681  0.6379  0.0931  0.1718
  127OSM    HO313581   5.174   0.649   6.604 -1.1669 -1.5740 -0.2255
  127OSM    C4S13582   5.216   0.682   6.909  0.3735  0.3175 -0.0164
  127OSM    H4S13583   5.289   0.706   6.988 -1.7901 -0.5398  2.3865
  127OSM    C5S13584   5.103   0.630   6.965 -0.4944 -0.2109  0.5395
  127OSM    H5S13585   5.025   0.587   6.900 -1.4086  0.8108  0.9080
  127OSM    C6S13586   5.070   0.615   7.113 -0.3089 -0.4322 -0.8297
  127OSM    H6S13587   5.015   0.702   7.154  0.5439  0.2915 -1.1696
  127OSM    H6T13588   5.165   0.606   7.170 -0.1656  2.2797 -0.4808
  127OSM    C7S13589   4.990   0.485   7.152 -0.1883 -0.2281  0.2012
  127OSM    H7S13590   5.058   0.402   7.125 -0.7603 -0.0258 -2.0542
  127OSM    H7T13591   4.901   0.493   7.086 -1.2465  3.3803  1.7826
  127OSM    C8S13592   4.959   0.479   7.306 -0.1209 -0.3937  0.8963
  127OSM    H8S13593   4.890   0.394   7.322 -1.8290  0.4883 -1.3039
  127OSM    H8T13594   4.906   0.574   7.328  1.8816  0.8345  0.7501
  127OSM    C9S13595   5.086   0.456   7.397 -0.0399  0.0570 -0.5188
  127OSM    H9S13596   5.155   0.543   7.398 -0.9174  0.8045  1.2493
  127OSM    H9T13597   5.141   0.365   7.367 -2.4113 -1.1895 -1.3070
  127OSM   C10S13598   5.049   0.443   7.544  0.2531  0.5422  0.6811
  127OSM   H10S13599   4.991   0.349   7.559  2.6193 -1.2548 -0.6525
  127OSM   H10T13600   4.985   0.528   7.575 -1.0254  0.4996 -1.6426
  127OSM   C11S13601   5.169   0.441   7.638 -0.1825  0.2039 -0.0080
  127OSM   H11S13602   5.237   0.528   7.625 -0.0859 -0.0095 -0.9988
  127OSM   H11T13603   5.225   0.349   7.611 -0.8459  0.3807 -2.2074
  127OSM   C12S13604   5.129   0.458   7.783 -0.2412  0.3240  0.0492
  127OSM   H12S13605   5.065   0.369   7.802 -0.3759  0.1425 -1.2107
  127OSM   H12T13606   5.074   0.554   7.792 -1.0858 -0.1417 -0.0145
  127OSM   C13S13607   5.248   0.473   7.874 -0.2579  0.3217  0.2828
  127OSM   H13S13608   5.303   0.564   7.842 -2.6177  1.6084 -0.3729
  127OSM   H13T13609   5.307   0.380   7.859  2.4389  2.0423 -0.2974
  127OSM   C14S13610   5.210   0.491   8.023  0.4215 -0.3171  0.2424
  127OSM   H14S13611   5.107   0.533   8.028  0.1606 -0.2313 -3.3049
  127OSM   H14T13612   5.284   0.567   8.058  0.1320  0.1043 -0.0545
  127OSM   C15S13613   5.222   0.367   8.108 -0.3030 -0.3204  0.7626
  127OSM   H15S13614   5.317   0.312   8.090  0.6319  1.3516  0.4264
  127OSM   H15T13615   5.135   0.300   8.087 -0.1385 -0.4776  0.5805
  127OSM   C16S13616   5.201   0.394   8.255 -0.1648 -0.1260 -0.4989
  127OSM   H16S13617   5.104   0.446   8.271 -0.2389  0.1446 -1.7240
  127OSM   H16T13618   5.281   0.456   8.300 -0.3142 -0.3556  0.0947
  127OSM   C17S13619   5.207   0.271   8.336  0.3852  0.6874 -0.4125
  127OSM   H17S13620   5.314   0.245   8.323  1.1317  2.5167  1.4581
  127OSM   H17T13621   5.155   0.192   8.278  1.0485  0.2613 -0.4426
  127OSM   C18S13622   5.156   0.283   8.479 -0.1796 -0.3039  0.4387
  127OSM   H18S13623   5.051   0.315   8.465 -0.0593 -0.1574 -0.1598
  127OSM   H18T13624   5.214   0.355   8.542 -3.0433  0.8606  1.9294
  127OSM   H18U13625   5.158   0.188   8.536 -2.0970  1.3063  3.4743
  127OSM    C1F13626   5.248   1.070   6.800 -0.1967 -0.2792 -0.4226
  127OSM     OF13627   5.146   1.108   6.737  0.0309 -0.3779 -0.3028
  127OSM    C2F13628   5.318   1.171   6.890  0.7244 -0.0617 -0.1715
  127OSM    H2F13629   5.276   1.273   6.877 -0.7378 -0.5880  0.2436
  127OSM    H2G13630   5.428   1.167   6.877  0.9053  0.0537  1.2029
  127OSM    C3F13631   5.285   1.130   7.041 -0.1845 -0.2882  0.3213
  127OSM    H3F13632   5.326   1.220   7.092  0.6022  0.3334 -1.3220
  127OSM    H3G13633   5.345   1.045   7.079 -2.0562 -1.4389  0.8293
  127OSM    C4F13634   5.136   1.113   7.087  0.3663 -0.3681  0.4509
  127OSM    H4F13635   5.089   1.023   7.041 -0.4329  1.5863 -2.8704
  127OSM    H4G13636   5.085   1.200   7.041 -0.7149 -0.3723  1.5895
  127OSM    C5F13637   5.100   1.103   7.239 -0.2101 -0.1740  0.7462
  127OSM    H5F13638   4.993   1.071   7.238 -1.2462  2.9866 -0.6486
  127OSM    H5G13639   5.102   1.203   7.287  1.0967  1.2673 -2.0842
  127OSM    C6F13640   5.177   0.992   7.305  0.3816  0.3123 -0.0675
  127OSM    H6F13641   5.264   1.038   7.357 -1.3564  1.8761  1.6412
  127OSM    H6G13642   5.212   0.919   7.230 -4.8017 -0.6740 -1.9094
  127OSM    C7F13643   5.089   0.909   7.401  0.2588 -0.4701 -0.1759
  127OSM    H7F13644   5.007   0.863   7.343 -1.0288  0.4044  0.8775
  127OSM    H7G13645   5.028   0.978   7.464 -0.9932 -0.0811 -1.7295
  127OSM    C8F13646   5.179   0.809   7.475 -0.1260  0.0085  0.4285
  127OSM    H8F13647   5.244   0.751   7.406 -1.4958  0.7558 -1.5623
  127OSM    H8G13648   5.112   0.736   7.526  0.6920  0.8343  2.8339
  127OSM    C9F13649   5.254   0.885   7.586  0.4176  0.3442  0.7407
  127OSM    H9F13650   5.348   0.928   7.546  1.0564 -2.4813 -1.1013
  127OSM   C10F13651   5.214   0.914   7.712 -0.6814 -0.4189  0.2844
  127OSM   H10F13652   5.272   0.973   7.783 -1.6772 -1.1699  1.7910
  127OSM   C11F13653   5.085   0.869   7.770  0.1123  0.1434  0.1821
  127OSM   H11F13654   5.072   0.760   7.751  0.0743  0.0357  0.8280
  127OSM   H11G13655   5.007   0.927   7.716  2.6535  0.7918 -3.1194
  127OSM   C12F13656   5.080   0.879   7.927  0.0033 -0.2387  0.0560
  127OSM   H12F13657   5.111   0.983   7.950  2.1561 -1.1921  1.8682
  127OSM   H12G13658   5.159   0.813   7.969 -0.3075 -0.9662 -0.4805
  127OSM   C13F13659   4.934   0.855   7.972  0.2382  0.2012 -0.7324
  127OSM   H13F13660   4.903   0.750   7.955 -0.6487  0.1332  1.0799
  127OSM   H13G13661   4.866   0.930   7.926  1.5080  0.9323 -1.4871
  127OSM   C14F13662   4.907   0.880   8.120  0.0614 -0.5130 -0.4571
  127OSM   H14F13663   4.960   0.816   8.194  1.4517 -3.3632 -3.6598
  127OSM   H14G13664   4.798   0.858   8.134  0.0228  0.0032  0.0760
  127OSM   C15F13665   4.923   1.036   8.161  0.4509  0.0819 -0.0391
  127OSM   H15F13666   4.879   1.098   8.080 -1.6207  0.2943  1.2001
  127OSM   H15G13667   5.028   1.071   8.170  0.0179  1.6856 -0.8769
  127OSM   C16F13668   4.859   1.068   8.293 -0.0200 -0.0912 -0.0214
  127OSM   H16F13669   4.759   1.020   8.306  0.5544 -1.8875 -1.8186
  127OSM   H16G13670   4.841   1.177   8.302  1.0932  0.0299  0.9357
  127OSM   C17F13671   4.943   1.026   8.422 -0.3778  0.0988  0.4506
  127OSM   H17F13672   5.031   1.094   8.422  0.3456 -0.7797 -1.3404
  127OSM   H17G13673   4.991   0.927   8.414  0.3104  0.3068  1.7276
  127OSM   C18F13674   4.867   1.023   8.548  0.5082 -0.6190  0.2728
  127OSM   H18F13675   4.943   1.006   8.628 -0.1223 -0.3520  0.9466
  127OSM   H18G13676   4.787   0.946   8.556  0.6868 -0.7438  1.0245
  127OSM   H18H13677   4.822   1.121   8.575  0.2359 -0.7441  0.2807
  128OSM      N13678   6.679   4.371   6.106  0.5224 -0.0842 -0.0457
  128OSM    C1513679   6.757   4.370   5.976 -0.5445 -0.2013  0.0374
  128OSM   H15A13680   6.716   4.299   5.906 -0.6112 -0.6938  0.5719
  128OSM   H15B13681   6.860   4.339   5.988 -0.3946 -0.2482 -1.2305
  128OSM   H15C13682   6.765   4.471   5.937 -0.5823 -0.6005 -1.0527
  128OSM    C1413683   6.639   4.236   6.143  0.1363  0.3673  0.0428
  128OSM   H14A13684   6.574   4.238   6.229 -2.7851  1.7662 -2.0057
  128OSM   H14B13685   6.720   4.170   6.169 -0.1639 -0.0704 -0.1173
  128OSM   H14C13686   6.579   4.196   6.062  1.2860  0.2154 -0.7629
  128OSM    C1313687   6.774   4.426   6.210 -0.0314 -0.0944  0.0792
  128OSM   H13A13688   6.867   4.370   6.209  0.6842  1.0476 -0.7556
  128OSM   H13B13689   6.730   4.423   6.308  0.4083  0.2032  0.2880
  128OSM   H13C13690   6.803   4.526   6.180  2.0540 -0.5799  0.2747
  128OSM    C1213691   6.559   4.464   6.105  0.4793 -0.3935 -0.0302
  128OSM   H12A13692   6.498   4.437   6.020  0.8072 -2.8406  0.4321
  128OSM   H12B13693   6.597   4.560   6.074 -1.3441  0.4051  0.0922
  128OSM    C1113694   6.468   4.479   6.233  0.1887  0.7957 -0.0002
  128OSM   H11A13695   6.462   4.381   6.285  0.5448  0.2605 -0.9552
  128OSM   H11B13696   6.365   4.508   6.202  0.5289  0.5866 -1.3630
  128OSM      P13697   6.503   4.730   6.287 -0.4131  0.0324 -0.5730
  128OSM    O1313698   6.641   4.792   6.287 -0.6968 -0.2084  0.4061
  128OSM    O1413699   6.413   4.745   6.165 -0.1952 -0.1937 -0.7196
  128OSM    O1113700   6.420   4.787   6.417  0.3365  0.1826 -0.2150
  128OSM    O1213701   6.524   4.578   6.322  0.2617  0.1458 -0.3582
  128OSM    C1S13702   6.389   4.706   6.529 -0.3265  0.1151 -0.2372
  128OSM    H1S13703   6.482   4.673   6.580 -0.4003 -0.2342 -0.3285
  128OSM    H1T13704   6.348   4.605   6.506 -0.2476 -0.2837  1.2829
  128OSM     NF13705   6.306   4.704   6.762  1.0991  0.9255  0.2766
  128OSM    HNF13706   6.225   4.646   6.769  2.1823 -0.4964  1.9885
  128OSM    C2S13707   6.315   4.785   6.644 -0.0539  0.0826  0.2344
  128OSM    H2S13708   6.388   4.864   6.673 -0.3101  1.0993 -1.7276
  128OSM    C3S13709   6.178   4.840   6.586  0.3876 -0.1261  0.3094
  128OSM    H3S13710   6.128   4.748   6.550  0.5997 -0.5167  0.9908
  128OSM     O313711   6.196   4.937   6.483  0.5921  0.1465 -0.4064
  128OSM    HO313712   6.290   4.939   6.462  0.1148 -0.0868 -2.8702
  128OSM    C4S13713   6.088   4.899   6.694  0.1601  0.1483 -0.1240
  128OSM    H4S13714   6.121   5.000   6.723  0.4776  0.4060 -1.3215
  128OSM    C5S13715   5.977   4.838   6.733 -0.2098  0.9104 -1.2837
  128OSM    H5S13716   5.952   4.733   6.712 -1.5764  0.8063  0.6518
  128OSM    C6S13717   5.892   4.899   6.840  0.8359  0.1438 -0.0187
  128OSM    H6S13718   5.843   4.814   6.893  0.5570 -0.3531 -1.0403
  128OSM    H6T13719   5.812   4.949   6.781 -0.2546 -3.0911 -1.5666
  128OSM    C7S13720   5.965   4.995   6.934 -0.2682  0.6161 -0.5755
  128OSM    H7S13721   5.997   5.085   6.877 -1.1696 -0.0646 -2.2237
  128OSM    H7T13722   6.058   4.949   6.974 -0.5740 -2.3552 -2.9609
  128OSM    C8S13723   5.871   5.032   7.047  0.1223 -0.7504 -0.1820
  128OSM    H8S13724   5.772   5.075   7.019  0.9785  1.7820  0.4617
  128OSM    H8T13725   5.928   5.103   7.111 -2.0548  0.8375  0.1286
  128OSM    C9S13726   5.843   4.911   7.143 -0.5918 -0.9965  0.1883
  128OSM    H9S13727   5.932   4.848   7.122  0.6942  0.7618  0.1132
  128OSM    H9T13728   5.756   4.852   7.108  0.1751 -1.3514 -1.1894
  128OSM   C10S13729   5.843   4.942   7.290 -1.0267  0.2369  0.9513
  128OSM   H10S13730   5.939   4.970   7.339 -1.2937  1.2189  0.9266
  128OSM   H10T13731   5.804   4.855   7.347 -2.0482  1.6287  2.4453
  128OSM   C11S13732   5.748   5.067   7.316  0.0136  0.2082 -0.1589
  128OSM   H11S13733   5.645   5.051   7.277 -0.0943 -0.1898  0.2857
  128OSM   H11T13734   5.786   5.161   7.269 -0.0499  0.5000  0.3688
  128OSM   C12S13735   5.733   5.096   7.462  0.3507  0.2118  0.2825
  128OSM   H12S13736   5.692   5.007   7.514 -1.3787  0.6651 -0.2541
  128OSM   H12T13737   5.647   5.165   7.475 -0.8638 -0.6322 -2.5143
  128OSM   C13S13738   5.855   5.139   7.543  0.0787  0.3714  0.2101
  128OSM   H13S13739   5.895   5.238   7.512 -0.3539  0.7885  0.9471
  128OSM   H13T13740   5.934   5.065   7.519 -1.4140 -0.6725 -1.8545
  128OSM   C14S13741   5.828   5.134   7.699 -0.1807  0.3267  0.5591
  128OSM   H14S13742   5.772   5.043   7.726  0.9313 -1.1168 -1.6985
  128OSM   H14T13743   5.768   5.218   7.740  1.4275  0.9029  1.8516
  128OSM   C15S13744   5.960   5.136   7.778 -0.0929 -0.3406 -0.2920
  128OSM   H15S13745   6.013   5.231   7.756  2.5915 -2.1505 -2.2471
  128OSM   H15T13746   6.035   5.061   7.746  0.0991 -0.2945  0.0465
  128OSM   C16S13747   5.922   5.118   7.929  0.0226 -0.1468 -0.4410
  128OSM   H16S13748   5.880   5.016   7.920  2.0677 -1.1756  0.8986
  128OSM   H16T13749   5.852   5.197   7.964  1.7760  1.6144 -0.7099
  128OSM   C17S13750   6.043   5.114   8.015 -0.5692  0.0516  0.5119
  128OSM   H17S13751   6.109   5.034   7.976  0.3040  0.6437  0.7446
  128OSM   H17T13752   6.003   5.086   8.115 -1.7282 -0.5892 -0.1104
  128OSM   C18S13753   6.126   5.239   8.035 -0.1315 -0.1713  0.2073
  128OSM   H18S13754   6.059   5.326   8.045 -2.1403 -1.5211 -0.8208
  128OSM   H18T13755   6.194   5.258   7.949  1.0647  0.6475  1.2952
  128OSM   H18U13756   6.187   5.242   8.128 -1.5424  1.2546  1.1278
  128OSM    C1F13757   6.411   4.651   6.821 -0.0915 -0.1825 -0.1952
  128OSM     OF13758   6.517   4.715   6.812  0.2984 -0.0511 -0.1517
  128OSM    C2F13759   6.404   4.513   6.882 -0.0648 -0.4879  0.6274
  128OSM    H2F13760   6.497   4.494   6.941  0.7699  3.0779  0.6975
  128OSM    H2G13761   6.387   4.456   6.788  1.1433  1.3031 -0.7683
  128OSM    C3F13762   6.288   4.490   6.976  0.4480 -0.2184  0.4873
  128OSM    H3F13763   6.194   4.481   6.919  0.4914 -0.1105  0.3975
  128OSM    H3G13764   6.275   4.571   7.052 -0.3758 -0.3923  0.5365
  128OSM    C4F13765   6.314   4.360   7.057 -0.6550  0.1633  1.1805
  128OSM    H4F13766   6.384   4.375   7.143 -3.1100  1.2025  3.1454
  128OSM    H4G13767   6.345   4.274   6.995 -1.4554 -0.8260  2.1332
  128OSM    C5F13768   6.178   4.312   7.113  0.6200 -0.0198 -0.8321
  128OSM    H5F13769   6.097   4.323   7.038 -3.2672 -1.3789  2.7423
  128OSM    H5G13770   6.138   4.372   7.197 -1.1505 -0.7662 -1.1075
  128OSM    C6F13771   6.163   4.161   7.150  0.1033  0.2869  0.7443
  128OSM    H6F13772   6.222   4.098   7.080 -1.9099 -1.2628  0.3407
  128OSM    H6G13773   6.060   4.134   7.121  0.2496  0.0304  0.4612
  128OSM    C7F13774   6.207   4.130   7.283 -0.4887  0.1622  0.4776
  128OSM    H7F13775   6.136   4.177   7.354 -0.9181  1.3716 -0.7072
  128OSM    H7G13776   6.309   4.168   7.309  0.4265 -0.3864 -2.0308
  128OSM    C8F13777   6.195   3.966   7.313 -0.3464 -0.6113  0.1247
  128OSM    H8F13778   6.236   3.904   7.231 -2.4924 -1.0698 -0.6845
  128OSM    H8G13779   6.087   3.940   7.319 -0.1452 -1.2553  1.3233
  128OSM    C9F13780   6.271   3.930   7.441 -0.0936  0.0271 -0.1668
  128OSM    H9F13781   6.380   3.926   7.426  0.0363  1.6575  0.1683
  128OSM   C10F13782   6.220   3.881   7.554 -0.0991  0.3301  0.7527
  128OSM   H10F13783   6.288   3.859   7.638  0.1959 -0.6828  0.2667
  128OSM   C11F13784   6.082   3.852   7.596  0.5307 -0.1011 -0.3045
  128OSM   H11F13785   6.005   3.832   7.518  1.0094 -2.7340 -0.1747
  128OSM   H11G13786   6.054   3.940   7.658  0.0793 -1.1767  1.0757
  128OSM   C12F13787   6.071   3.718   7.675 -0.1867 -0.0841 -0.1264
  128OSM   H12F13788   6.129   3.639   7.623  1.8046  0.6434  0.8806
  128OSM   H12G13789   5.963   3.695   7.682 -0.2385  0.4481  1.2575
  128OSM   C13F13790   6.111   3.726   7.824 -0.8368  0.1436  0.9334
  128OSM   H13F13791   6.207   3.784   7.824 -0.0293 -1.1543  0.3264
  128OSM   H13G13792   6.136   3.620   7.842 -0.6654 -0.4768 -2.2782
  128OSM   C14F13793   6.007   3.795   7.913 -0.1434  0.9915  0.4821
  128OSM   H14F13794   5.923   3.722   7.911  2.2378 -1.9963  1.2177
  128OSM   H14G13795   5.979   3.888   7.860 -0.5991  0.2088 -0.6778
  128OSM   C15F13796   6.063   3.825   8.049 -0.4117 -0.0325 -0.2884
  128OSM   H15F13797   5.983   3.886   8.097  1.3932  2.2314  0.0120
  128OSM   H15G13798   6.157   3.884   8.045 -0.2311 -0.3444 -0.7137
  128OSM   C16F13799   6.086   3.698   8.135  1.2078 -0.2185  0.1470
  128OSM   H16F13800   6.184   3.668   8.092  0.4990 -0.4762 -1.3535
  128OSM   H16G13801   6.013   3.618   8.108  1.1144 -1.0344  2.5798
  128OSM   C17F13802   6.088   3.723   8.279 -0.1422  0.3631 -0.1914
  128OSM   H17F13803   5.995   3.769   8.318  1.3782  3.2789  0.2440
  128OSM   H17G13804   6.162   3.801   8.307 -1.0024  0.3737  2.2610
  128OSM   C18F13805   6.097   3.595   8.366  0.1389 -0.9366  0.7144
  128OSM   H18F13806   6.034   3.511   8.329 -1.2886  0.1268  0.6388
  128OSM   H18G13807   6.056   3.624   8.466  0.5341 -0.1335  0.6519
  128OSM   H18H13808   6.202   3.565   8.386  0.6137 -0.6627 -1.2271
  129OSM      N13809   4.095   1.645   6.433 -0.0145 -0.2135 -0.1288
  129OSM    C1513810   3.964   1.577   6.424 -0.0423 -0.5909  0.2676
  129OSM   H15A13811   3.897   1.617   6.499  1.8422  1.5214  0.9334
  129OSM   H15B13812   3.984   1.471   6.435  0.1849 -0.8456 -2.1072
  129OSM   H15C13813   3.913   1.593   6.330 -0.7710  2.3124  1.0680
  129OSM    C1413814   4.187   1.583   6.334  0.1377  0.1091 -0.4766
  129OSM   H14A13815   4.147   1.597   6.235 -0.6743  0.1380 -0.1480
  129OSM   H14B13816   4.214   1.479   6.344 -0.4237 -0.4053 -3.4027
  129OSM   H14C13817   4.281   1.637   6.336  0.3406 -0.2474  0.4154
  129OSM    C1313818   4.091   1.788   6.403 -0.4154 -0.8323 -0.3985
  129OSM   H13A13819   4.053   1.814   6.306 -0.0491  1.6051  0.0487
  129OSM   H13B13820   4.190   1.830   6.397 -0.8091  0.1849  0.0312
  129OSM   H13C13821   4.026   1.840   6.472 -1.8379 -1.2833 -1.3610
  129OSM    C1213822   4.142   1.633   6.578  1.3311 -0.2010  0.5176
  129OSM   H12A13823   4.087   1.697   6.646 -0.4378  0.1072 -1.0870
  129OSM   H12B13824   4.243   1.672   6.574  1.3351 -0.2976 -1.6011
  129OSM    C1113825   4.154   1.496   6.641  0.0164 -0.6547 -0.6517
  129OSM   H11A13826   4.048   1.462   6.644 -0.4411  0.7584  1.0352
  129OSM   H11B13827   4.184   1.508   6.747 -4.0724  1.6367  0.4833
  129OSM      P13828   4.225   1.250   6.588  0.1325 -0.5943 -0.5251
  129OSM    O1313829   4.095   1.205   6.641  0.2435 -0.3489 -0.0291
  129OSM    O1413830   4.271   1.187   6.462  0.1078  0.2798 -0.2335
  129OSM    O1113831   4.336   1.226   6.695  0.7215 -0.2524 -0.1660
  129OSM    O1213832   4.235   1.406   6.575  0.1789  0.4075  0.2592
  129OSM    C1S13833   4.477   1.208   6.658 -0.2671  0.3653 -0.0886
  129OSM    H1S13834   4.510   1.288   6.589 -0.4436 -0.2315 -0.8761
  129OSM    H1T13835   4.504   1.112   6.611 -0.8444 -0.1122  0.5235
  129OSM     NF13836   4.703   1.244   6.769  0.4762 -0.1127 -0.1066
  129OSM    HNF13837   4.763   1.176   6.810 -0.8964  0.2044  2.6077
  129OSM    C2S13838   4.563   1.225   6.789 -1.0181 -0.0316  0.1132
  129OSM    H2S13839   4.513   1.316   6.830  3.6478  3.1753 -0.6061
  129OSM    C3S13840   4.531   1.098   6.870 -0.3577 -0.6103 -0.0460
  129OSM    H3S13841   4.578   1.009   6.823 -1.0660 -1.2765  0.4926
  129OSM     O313842   4.392   1.069   6.881 -0.0854  0.0703  0.8708
  129OSM    HO313843   4.364   1.139   6.821  0.0050 -0.6183  0.0047
  129OSM    C4S13844   4.584   1.114   7.011  0.0253  0.4519 -0.3955
  129OSM    H4S13845   4.688   1.081   7.019 -0.0395  0.6579  1.8552
  129OSM    C5S13846   4.527   1.157   7.124  0.3789 -0.6340  0.5725
  129OSM    H5S13847   4.423   1.192   7.113 -0.5549 -3.1869  0.4127
  129OSM    C6S13848   4.597   1.167   7.261  0.2351  0.3830 -0.3265
  129OSM    H6S13849   4.690   1.107   7.269 -0.1912 -0.0367  2.9698
  129OSM    H6T13850   4.527   1.121   7.334  0.1597 -1.9460 -1.7643
  129OSM    C7S13851   4.640   1.308   7.286 -0.4560 -0.1837 -0.6103
  129OSM    H7S13852   4.556   1.379   7.302 -0.5462 -0.8718  2.6706
  129OSM    H7T13853   4.704   1.337   7.200  0.8080 -0.6812  0.1378
  129OSM    C8S13854   4.726   1.319   7.412  0.0826 -0.5517 -0.7466
  129OSM    H8S13855   4.799   1.401   7.392  1.6868 -1.2320  1.7718
  129OSM    H8T13856   4.793   1.233   7.429  1.0788  0.2735 -0.3562
  129OSM    C9S13857   4.635   1.345   7.542  0.5701  0.1714  0.1900
  129OSM    H9S13858   4.566   1.259   7.550 -1.3183  1.6703  0.5846
  129OSM    H9T13859   4.579   1.439   7.528 -0.8327 -0.5757  0.6122
  129OSM   C10S13860   4.716   1.357   7.672 -0.1653  0.0216 -0.6738
  129OSM   H10S13861   4.799   1.429   7.654 -1.4531  1.0491 -2.9333
  129OSM   H10T13862   4.761   1.260   7.703  0.9979  0.4430 -0.9792
  129OSM   C11S13863   4.629   1.427   7.784  0.0951  0.2568  0.5958
  129OSM   H11S13864   4.549   1.350   7.791 -0.1337  0.3283 -0.8331
  129OSM   H11T13865   4.593   1.527   7.754  1.7729  0.9320  0.7171
  129OSM   C12S13866   4.696   1.446   7.925  0.6186  0.6317 -0.0643
  129OSM   H12S13867   4.784   1.514   7.915  1.1117 -0.0773 -0.6604
  129OSM   H12T13868   4.739   1.346   7.946  0.2741  0.5918  0.4771
  129OSM   C13S13869   4.609   1.506   8.034  0.7143 -0.3538  0.2726
  129OSM   H13S13870   4.532   1.427   8.049 -1.5616  1.1247 -2.6228
  129OSM   H13T13871   4.560   1.602   8.005  1.3295  0.6578  2.3591
  129OSM   C14S13872   4.690   1.532   8.153 -0.6823  0.4829 -0.0525
  129OSM   H14S13873   4.757   1.617   8.128  0.5319  0.0434  1.5638
  129OSM   H14T13874   4.760   1.447   8.163 -0.8546  0.3845  0.3338
  129OSM   C15S13875   4.613   1.571   8.278  0.1285  0.0430  0.5149
  129OSM   H15S13876   4.557   1.482   8.314 -0.9317  1.2200  1.8880
  129OSM   H15T13877   4.536   1.648   8.255  1.4504  1.4850  0.7539
  129OSM   C16S13878   4.705   1.630   8.386 -0.6586 -0.0356 -0.1393
  129OSM   H16S13879   4.756   1.712   8.331 -3.2326  1.4403 -0.4815
  129OSM   H16T13880   4.779   1.553   8.417  0.1914  0.9741  0.4119
  129OSM   C17S13881   4.637   1.694   8.511  0.2143  0.3663 -0.5160
  129OSM   H17S13882   4.569   1.771   8.468 -3.0854 -2.1652 -0.1768
  129OSM   H17T13883   4.710   1.756   8.568 -0.3750  1.4423 -0.8934
  129OSM   C18S13884   4.575   1.596   8.599  0.2581 -0.9475 -0.1863
  129OSM   H18S13885   4.552   1.649   8.694  2.7005  0.4258 -0.2761
  129OSM   H18T13886   4.637   1.506   8.621  2.7706  0.5813 -0.6527
  129OSM   H18U13887   4.472   1.570   8.567 -0.1687 -1.7776  1.7473
  129OSM    C1F13888   4.748   1.360   6.719  0.5727  0.8974 -0.3148
  129OSM     OF13889   4.669   1.450   6.681  0.0826  0.8199  0.0874
  129OSM    C2F13890   4.893   1.370   6.733  0.5784  0.0896 -0.6376
  129OSM    H2F13891   4.949   1.360   6.637  0.3149 -0.6590 -0.7157
  129OSM    H2G13892   4.922   1.293   6.807 -0.9739  1.2334  1.2617
  129OSM    C3F13893   4.931   1.506   6.804 -0.3019  0.1338  0.0003
  129OSM    H3F13894   4.880   1.589   6.749 -0.5102  0.6935  1.0197
  129OSM    H3G13895   5.041   1.518   6.798 -0.5930  3.1663 -1.0908
  129OSM    C4F13896   4.889   1.504   6.947  0.2568 -0.1765  0.5001
  129OSM    H4F13897   4.956   1.431   6.997  3.3463  0.7924 -1.9294
  129OSM    H4G13898   4.787   1.462   6.956  0.0999 -0.2152 -1.1717
  129OSM    C5F13899   4.879   1.645   7.013 -0.7906  0.0795 -0.1908
  129OSM    H5F13900   4.798   1.705   6.967 -1.0320  1.0599  1.4480
  129OSM    H5G13901   4.977   1.696   7.007 -0.9890  0.4859 -0.0098
  129OSM    C6F13902   4.837   1.639   7.164  0.4193 -0.0685  0.2273
  129OSM    H6F13903   4.913   1.596   7.233 -0.4734  1.7220  2.4609
  129OSM    H6G13904   4.746   1.575   7.171  0.3880 -0.0163  0.3031
  129OSM    C7F13905   4.813   1.783   7.221 -0.1298 -1.0893 -0.1525
  129OSM    H7F13906   4.733   1.839   7.168  0.9375  1.0193  0.3445
  129OSM    H7G13907   4.900   1.848   7.200 -0.8737 -0.2213 -0.5848
  129OSM    C8F13908   4.784   1.790   7.372  0.1206 -0.0096 -0.0434
  129OSM    H8F13909   4.772   1.900   7.385 -2.7454 -0.2998  0.2828
  129OSM    H8G13910   4.878   1.765   7.426 -0.5325 -0.6597  0.8105
  129OSM    C9F13911   4.665   1.705   7.408  0.3477  0.0732  0.0364
  129OSM    H9F13912   4.666   1.606   7.359 -0.2342  0.8302 -1.5718
  129OSM   C10F13913   4.561   1.734   7.488 -0.0949  0.3153 -0.1621
  129OSM   H10F13914   4.482   1.658   7.497  0.3430 -0.1076  0.1498
  129OSM   C11F13915   4.534   1.865   7.563 -0.3399  0.3220 -0.0558
  129OSM   H11F13916   4.448   1.924   7.524 -1.9006 -1.0961  1.0714
  129OSM   H11G13917   4.625   1.928   7.561 -0.6017  0.6778 -1.1941
  129OSM   C12F13918   4.507   1.837   7.712  0.3977 -0.1575 -0.9210
  129OSM   H12F13919   4.578   1.764   7.756  0.7084  1.2754  1.1010
  129OSM   H12G13920   4.404   1.796   7.719 -0.4564  1.6778 -2.1314
  129OSM   C13F13921   4.516   1.968   7.797  0.2789 -0.3248 -0.3178
  129OSM   H13F13922   4.422   2.025   7.781  1.0340  1.0067 -0.2501
  129OSM   H13G13923   4.594   2.036   7.755 -0.9343  1.8822  0.8037
  129OSM   C14F13924   4.526   1.941   7.945  0.2903 -0.5679 -1.1015
  129OSM   H14F13925   4.611   1.871   7.964  0.8653  0.5150  0.5560
  129OSM   H14G13926   4.437   1.885   7.981 -0.4212  0.6083 -0.9672
  129OSM   C15F13927   4.542   2.070   8.031 -0.0092 -0.2707 -0.6619
  129OSM   H15F13928   4.452   2.136   8.029 -1.1743 -1.5990  2.1106
  129OSM   H15G13929   4.628   2.134   8.005  0.2598  0.1123  1.0558
  129OSM   C16F13930   4.559   2.033   8.179  0.4560 -0.1470 -0.6229
  129OSM   H16F13931   4.648   1.967   8.189 -0.0794 -1.0766 -1.7812
  129OSM   H16G13932   4.475   1.971   8.216  0.7380  0.1127  0.5004
  129OSM   C17F13933   4.572   2.154   8.277  0.3884  0.1590  0.5403
  129OSM   H17F13934   4.492   2.226   8.251  1.4332  0.5547 -1.9324
  129OSM   H17G13935   4.675   2.196   8.266 -0.2422  1.7474  0.4567
  129OSM   C18F13936   4.545   2.104   8.420 -0.1723  0.2490 -0.0691
  129OSM   H18F13937   4.438   2.076   8.408 -0.2672 -0.7360  2.5607
  129OSM   H18G13938   4.549   2.192   8.488  0.7186 -0.0973  0.3360
  129OSM   H18H13939   4.610   2.023   8.459  0.6132 -0.2072 -2.1629
  130OSM      N13940   6.676   3.621   6.285  1.0362 -0.6057 -0.0203
  130OSM    C1513941   6.734   3.562   6.164  0.1482 -0.2955  0.3193
  130OSM   H15A13942   6.839   3.585   6.157  0.8633 -2.1774  3.1432
  130OSM   H15B13943   6.691   3.605   6.075 -0.8023 -1.2916  0.2748
  130OSM   H15C13944   6.709   3.458   6.150  0.8189 -0.0654 -3.6236
  130OSM    C1413945   6.694   3.771   6.280 -0.4214 -0.1022 -0.3438
  130OSM   H14A13946   6.797   3.793   6.259 -1.1381  1.2556 -2.8417
  130OSM   H14B13947   6.659   3.822   6.369  0.2734  0.8351 -0.5995
  130OSM   H14C13948   6.642   3.809   6.193  0.3997 -1.6641 -1.5737
  130OSM    C1313949   6.531   3.590   6.286  0.6250  1.1137  0.1085
  130OSM   H13A13950   6.486   3.615   6.192 -0.9858  1.4785  0.9357
  130OSM   H13B13951   6.480   3.647   6.363 -2.7477 -1.4964  0.0498
  130OSM   H13C13952   6.513   3.484   6.298 -0.5753  1.3990  1.0403
  130OSM    C1213953   6.731   3.560   6.407  0.5735  0.3321 -0.6057
  130OSM   H12A13954   6.709   3.455   6.399 -2.0006  0.8509 -1.2409
  130OSM   H12B13955   6.673   3.601   6.488  0.5726 -0.6035 -0.1294
  130OSM    C1113956   6.883   3.574   6.435 -0.0379 -0.3446 -0.1614
  130OSM   H11A13957   6.913   3.518   6.526  2.6406  1.2300  0.0356
  130OSM   H11B13958   6.909   3.680   6.458  0.0472 -0.2742 -0.5654
  130OSM      P13959   7.014   3.383   6.293 -0.0838 -0.6824  0.0748
  130OSM    O1313960   6.908   3.297   6.240  0.1229  0.3429  0.3142
  130OSM    O1413961   7.133   3.391   6.207  0.0943 -0.0428  0.2759
  130OSM    O1113962   7.053   3.317   6.432 -0.6384  0.3144  0.1934
  130OSM    O1213963   6.972   3.529   6.328  0.7463  0.8892  0.8985
  130OSM    C1S13964   7.159   3.374   6.512 -0.4331 -0.9136  0.1505
  130OSM    H1S13965   7.167   3.485   6.501 -0.4956 -0.8656  0.5421
  130OSM    H1T13966   7.253   3.337   6.467 -1.8673 -1.1475 -2.8357
  130OSM     NF13967   7.242   3.429   6.729 -0.5830 -0.5076  0.4206
  130OSM    HNF13968   7.330   3.384   6.739 -1.1354 -1.8613 -0.4409
  130OSM    C2S13969   7.143   3.345   6.660 -0.7598 -0.5525 -0.2187
  130OSM    H2S13970   7.047   3.383   6.700  0.4728 -0.2000  2.6616
  130OSM    C3S13971   7.155   3.190   6.682  0.3881 -0.1988 -0.2057
  130OSM    H3S13972   7.253   3.148   6.651  0.5445 -0.5749  0.7526
  130OSM     O313973   7.049   3.121   6.613 -0.3400  0.0973  0.0452
  130OSM    HO313974   7.020   3.174   6.538 -1.2351  0.9833  0.9777
  130OSM    C4S13975   7.143   3.152   6.829 -0.7660  0.1333  0.1200
  130OSM    H4S13976   7.047   3.185   6.873 -1.2671 -1.1730  0.0644
  130OSM    C5S13977   7.239   3.096   6.911 -0.1425  0.1451  0.9131
  130OSM    H5S13978   7.338   3.074   6.868  0.4025  2.8718  0.5451
  130OSM    C6S13979   7.216   3.060   7.056  0.8892 -0.0827  0.6253
  130OSM    H6S13980   7.308   3.008   7.092  1.8226 -2.5969 -4.4690
  130OSM    H6T13981   7.139   2.980   7.054  0.6219  0.1742  0.6727
  130OSM    C7S13982   7.174   3.178   7.139 -1.2228 -0.3807  0.6405
  130OSM    H7S13983   7.079   3.218   7.098 -0.0031  0.1446 -1.8316
  130OSM    H7T13984   7.248   3.260   7.132 -1.6302 -0.0757 -0.3250
  130OSM    C8S13985   7.163   3.126   7.288  0.6086 -0.2341  0.4960
  130OSM    H8S13986   7.253   3.064   7.311  0.3847 -0.8708 -0.2949
  130OSM    H8T13987   7.072   3.062   7.294  0.1377  0.3326 -0.4130
  130OSM    C9S13988   7.150   3.245   7.386  0.3810  0.2166  0.7144
  130OSM    H9S13989   7.061   3.301   7.352 -0.4719 -1.4315  0.1309
  130OSM    H9T13990   7.235   3.315   7.372  1.9440 -1.4386  1.4522
  130OSM   C10S13991   7.134   3.186   7.532  0.1240  0.0104 -0.9845
  130OSM   H10S13992   7.231   3.135   7.547  0.6981  0.9336 -1.5085
  130OSM   H10T13993   7.037   3.132   7.535 -1.4329  2.5661 -1.6227
  130OSM   C11S13994   7.127   3.299   7.633 -0.5408  0.2230 -0.2976
  130OSM   H11S13995   7.049   3.366   7.592  0.0561  0.5517 -0.9259
  130OSM   H11T13996   7.222   3.358   7.632 -0.2239 -0.1102  2.4996
  130OSM   C12S13997   7.097   3.250   7.776  0.5390  0.3925  0.6655
  130OSM   H12S13998   6.991   3.218   7.783  0.2160  1.6189  1.9826
  130OSM   H12T13999   7.112   3.329   7.853  0.6641  0.3259  0.7098
  130OSM   C13S14000   7.171   3.125   7.822  0.1455 -0.1732 -0.1477
  130OSM   H13S14001   7.277   3.142   7.795  0.2737  1.2017  1.1136
  130OSM   H13T14002   7.139   3.039   7.759 -1.2775  1.3683 -1.6012
  130OSM   C14S14003   7.162   3.094   7.972 -0.4212  0.4643 -0.0029
  130OSM   H14S14004   7.233   3.159   8.026 -0.6156  3.1556 -2.7364
  130OSM   H14T14005   7.197   2.991   7.996  1.1492  1.1558  0.8174
  130OSM   C15S14006   7.023   3.121   8.036  0.6039 -0.2162  0.2369
  130OSM   H15S14007   6.936   3.075   7.984  1.4875 -3.8249  1.6797
  130OSM   H15T14008   7.011   3.231   8.024 -1.5718 -0.3867  0.5015
  130OSM   C16S14009   7.018   3.108   8.185 -0.7515  0.7791 -0.4734
  130OSM   H16S14010   7.079   3.186   8.237 -1.0948  0.3315  0.6144
  130OSM   H16T14011   7.060   3.008   8.210 -0.2786  1.6819  2.8306
  130OSM   C17S14012   6.883   3.130   8.252  0.1156 -0.3058  0.0972
  130OSM   H17S14013   6.817   3.047   8.216  2.3290 -1.4579 -1.5706
  130OSM   H17T14014   6.847   3.227   8.211  0.7936 -0.5957 -1.2421
  130OSM   C18S14015   6.896   3.134   8.404 -0.2056  0.0021 -0.5299
  130OSM   H18S14016   6.926   3.033   8.439  1.7290  0.7947  0.2607
  130OSM   H18T14017   6.802   3.159   8.459  1.1732  2.4724  0.8876
  130OSM   H18U14018   6.972   3.207   8.440 -0.9911 -0.1486  1.5748
  130OSM    C1F14019   7.217   3.558   6.762  0.2797  0.5708  0.0971
  130OSM     OF14020   7.116   3.610   6.723 -0.7249  0.5628 -0.3379
  130OSM    C2F14021   7.328   3.628   6.823  0.3683  0.3029 -0.1341
  130OSM    H2F14022   7.414   3.640   6.753  2.2784 -3.3237  1.3350
  130OSM    H2G14023   7.383   3.569   6.899  0.5414  2.3139  1.3859
  130OSM    C3F14024   7.288   3.761   6.879 -0.0502 -0.9976 -0.4756
  130OSM    H3F14025   7.262   3.834   6.799  0.6912  1.0989  1.0982
  130OSM    H3G14026   7.380   3.807   6.919 -0.5463 -1.6457  1.5127
  130OSM    C4F14027   7.191   3.758   6.998 -0.4734 -0.2290  0.0309
  130OSM    H4F14028   7.217   3.671   7.062 -0.0803 -0.8312 -0.9221
  130OSM    H4G14029   7.094   3.747   6.945  0.0676  2.8157 -1.7953
  130OSM    C5F14030   7.188   3.890   7.081 -0.0654 -0.3200  0.1845
  130OSM    H5F14031   7.130   3.965   7.024 -0.3879  0.6948  1.8103
  130OSM    H5G14032   7.289   3.937   7.081 -0.2521  0.1024  1.3548
  130OSM    C6F14033   7.138   3.875   7.223 -0.3008  0.3225  0.6160
  130OSM    H6F14034   7.035   3.836   7.214 -0.8878  1.8503  0.4192
  130OSM    H6G14035   7.137   3.976   7.269  3.6319  1.5165 -1.4381
  130OSM    C7F14036   7.199   3.768   7.311  0.6581 -0.1453 -0.0628
  130OSM    H7F14037   7.300   3.806   7.336  0.3010  2.1827 -1.7365
  130OSM    H7G14038   7.209   3.669   7.263 -0.7207  0.8506 -2.6248
  130OSM    C8F14039   7.120   3.737   7.438  0.1908 -0.0020 -0.2982
  130OSM    H8F14040   7.160   3.655   7.502 -0.9700 -0.1085  0.3287
  130OSM    H8G14041   7.019   3.695   7.417  0.0089 -1.5330  2.9668
  130OSM    C9F14042   7.092   3.863   7.523  0.7515 -0.1032  0.0123
  130OSM    H9F14043   7.029   3.933   7.466 -1.0772 -1.5077  0.2251
  130OSM   C10F14044   7.135   3.889   7.650  0.0405  0.3161  0.3087
  130OSM   H10F14045   7.120   3.987   7.696  2.6559  0.4190  1.0971
  130OSM   C11F14046   7.220   3.797   7.722 -0.6566  0.6857  0.5482
  130OSM   H11F14047   7.323   3.838   7.727  1.0418 -3.1733  0.3882
  130OSM   H11G14048   7.212   3.693   7.684 -1.1791  0.4795  1.2103
  130OSM   C12F14049   7.176   3.762   7.865 -0.8592 -0.4673  0.7973
  130OSM   H12F14050   7.190   3.847   7.935 -2.1084 -0.8142  1.5109
  130OSM   H12G14051   7.232   3.674   7.901  1.0272 -0.0542 -0.9582
  130OSM   C13F14052   7.028   3.728   7.864  0.6774  0.2410  0.6225
  130OSM   H13F14053   7.015   3.630   7.814  1.9792 -0.1425  0.9934
  130OSM   H13G14054   6.977   3.806   7.804  0.4579  0.1881  0.7409
  130OSM   C14F14055   6.954   3.729   7.998 -0.1193 -0.0939  0.7913
  130OSM   H14F14056   6.846   3.730   7.975  0.3055  3.1573 -1.8373
  130OSM   H14G14057   6.985   3.824   8.049  1.8103 -0.6191  0.6778
  130OSM   C15F14058   6.983   3.613   8.083 -0.0565 -0.8397 -0.0343
  130OSM   H15F14059   7.089   3.583   8.066  0.3693  0.3433  0.4540
  130OSM   H15G14060   6.917   3.526   8.061 -0.8239 -0.2619 -0.0366
  130OSM   C16F14061   6.957   3.640   8.237  0.1567 -0.8468 -0.2764
  130OSM   H16F14062   6.851   3.674   8.246  0.0610 -0.8309 -1.3653
  130OSM   H16G14063   7.019   3.729   8.258  1.1550 -0.7574 -3.1467
  130OSM   C17F14064   6.970   3.519   8.333  0.1881 -0.1930 -0.0122
  130OSM   H17F14065   6.934   3.427   8.282  2.8468 -2.1585  1.3899
  130OSM   H17G14066   6.901   3.530   8.419  1.4820  2.8956  0.7911
  130OSM   C18F14067   7.102   3.509   8.394  0.1329  0.3019  0.1536
  130OSM   H18F14068   7.176   3.515   8.311 -2.9882  0.6510 -2.8760
  130OSM   H18G14069   7.114   3.418   8.456 -0.2186 -0.1029 -0.3653
  130OSM   H18H14070   7.124   3.586   8.470 -0.7246 -0.3565  1.0942
  131OSM      N14071   4.960   6.019   6.012 -0.4647 -0.2791  0.2059
  131OSM    C1514072   5.073   6.019   5.909 -0.0034 -0.2419  0.3947
  131OSM   H15A14073   5.143   6.100   5.925  2.1713 -1.3917 -2.3817
  131OSM   H15B14074   5.042   6.021   5.805  0.4366  1.6209  0.2672
  131OSM   H15C14075   5.132   5.928   5.913  1.9067  0.6821 -2.6184
  131OSM    C1414076   5.041   6.029   6.142 -0.4406  0.5612  0.7900
  131OSM   H14A14077   4.981   6.068   6.223 -0.9579  1.7766 -0.1390
  131OSM   H14B14078   5.117   6.103   6.126  0.7482 -0.6289  0.7599
  131OSM   H14C14079   5.092   5.940   6.175 -0.8613  0.1794  0.4367
  131OSM    C1314080   4.880   6.145   6.014  0.9861  0.6460  0.0200
  131OSM   H13A14081   4.943   6.233   6.010 -0.5289  1.7561 -0.3075
  131OSM   H13B14082   4.821   6.154   6.104 -0.8648  1.1172 -1.1678
  131OSM   H13C14083   4.801   6.151   5.940 -1.0522  1.0229  2.1174
  131OSM    C1214084   4.872   5.895   6.010 -0.1105  0.2123 -0.5288
  131OSM   H12A14085   4.805   5.908   6.093 -1.1251  0.3575 -1.3481
  131OSM   H12B14086   4.932   5.807   6.029  0.7948  0.5921 -1.5726
  131OSM    C1114087   4.782   5.867   5.882 -0.2172  0.3673 -0.2765
  131OSM   H11A14088   4.749   5.761   5.880  0.2163  0.2419 -0.7460
  131OSM   H11B14089   4.829   5.883   5.783  0.9466 -1.6449 -0.0965
  131OSM      P14090   4.553   5.929   5.994 -0.5745  0.2902  0.2135
  131OSM    O1314091   4.449   6.032   5.975 -0.2716  0.0679  0.4189
  131OSM    O1414092   4.500   5.793   5.964 -0.3737  0.4082  0.9051
  131OSM    O1114093   4.615   5.929   6.140  0.1330  0.4029 -0.0772
  131OSM    O1214094   4.670   5.956   5.899  0.4888  0.1368  0.1194
  131OSM    C1S14095   4.554   5.868   6.254  0.7460  0.3843 -0.0949
  131OSM    H1S14096   4.556   5.758   6.234 -0.1016 -0.1572  2.4631
  131OSM    H1T14097   4.447   5.898   6.260  0.5315 -0.4174  0.2894
  131OSM     NF14098   4.580   5.827   6.495  0.4692  0.8018  0.2683
  131OSM    HNF14099   4.517   5.888   6.543 -1.3481 -0.4557 -0.4142
  131OSM    C2S14100   4.636   5.897   6.387  0.0054  0.6556  0.0306
  131OSM    H2S14101   4.736   5.850   6.380  0.5557  1.7998  0.0249
  131OSM    C3S14102   4.654   6.049   6.404 -0.6269 -0.3404  0.2930
  131OSM    H3S14103   4.560   6.106   6.421  0.4705  1.5761  0.2400
  131OSM     O314104   4.713   6.112   6.290  0.6192  0.0330 -0.2367
  131OSM    HO314105   4.683   6.050   6.223 -2.2733  0.9774  0.0641
  131OSM    C4S14106   4.736   6.069   6.534  0.8351  0.0900 -0.6927
  131OSM    H4S14107   4.678   6.107   6.619 -0.5556 -0.6667 -1.2716
  131OSM    C5S14108   4.866   6.049   6.554 -0.2181 -0.4342 -0.2853
  131OSM    H5S14109   4.931   6.047   6.465  1.2743  0.1918  0.7527
  131OSM    C6S14110   4.943   6.069   6.682  0.1456 -1.1219  0.0860
  131OSM    H6S14111   5.030   6.132   6.655 -0.7051 -0.1514 -0.4433
  131OSM    H6T14112   4.978   5.967   6.711  0.9741 -1.0159 -0.4976
  131OSM    C7S14113   4.866   6.122   6.809 -1.1765  0.4410 -0.4270
  131OSM    H7S14114   4.794   6.044   6.845 -0.6690  1.0591  2.1553
  131OSM    H7T14115   4.813   6.218   6.791  0.0733  1.0416 -0.9824
  131OSM    C8S14116   4.950   6.153   6.933 -0.2586  0.1431  0.3836
  131OSM    H8S14117   4.945   6.263   6.936 -1.7870  0.0942  0.7801
  131OSM    H8T14118   5.055   6.118   6.935  0.1710  1.4113  1.7673
  131OSM    C9S14119   4.889   6.112   7.061  0.9551  0.8564 -0.0836
  131OSM    H9S14120   4.861   6.004   7.059  1.9520  0.5753 -2.3491
  131OSM    H9T14121   4.791   6.164   7.071 -0.6300 -1.8636 -0.2665
  131OSM   C10S14122   4.973   6.130   7.188  0.3154  0.5915  0.3735
  131OSM   H10S14123   5.022   6.229   7.200 -1.4518  1.7254 -1.2611
  131OSM   H10T14124   5.062   6.064   7.181  0.2784  0.3328  1.8664
  131OSM   C11S14125   4.897   6.081   7.316  0.8373  0.1829 -0.2217
  131OSM   H11S14126   4.879   5.972   7.301 -1.6208  0.4826  0.1152
  131OSM   H11T14127   4.795   6.126   7.315 -0.4268 -2.3687 -3.0519
  131OSM   C12S14128   4.956   6.114   7.450  0.4041  0.0418 -0.0377
  131OSM   H12S14129   4.960   6.221   7.479 -0.2993  0.5360 -1.6378
  131OSM   H12T14130   5.063   6.084   7.445  0.6384  0.8536 -0.0075
  131OSM   C13S14131   4.871   6.045   7.561  0.3010  0.6291  0.1788
  131OSM   H13S14132   4.826   5.949   7.529  0.6285  0.5714 -0.1123
  131OSM   H13T14133   4.787   6.113   7.586  0.7126  2.0634 -2.0175
  131OSM   C14S14134   4.956   6.010   7.684  0.5190  0.4806 -0.0500
  131OSM   H14S14135   5.004   6.099   7.729  1.9153 -0.9953  1.5405
  131OSM   H14T14136   5.037   5.938   7.661  1.9461  2.0546 -0.1576
  131OSM   C15S14137   4.878   5.953   7.805  0.0732  0.4128 -0.3946
  131OSM   H15S14138   4.811   6.033   7.845 -0.5005 -1.6435  3.3125
  131OSM   H15T14139   4.946   5.948   7.893 -0.4277  0.7344  0.0218
  131OSM   C16S14140   4.820   5.810   7.789  0.0652  0.4062 -0.2147
  131OSM   H16S14141   4.912   5.748   7.783 -0.5623 -0.7598  1.2888
  131OSM   H16T14142   4.758   5.806   7.697 -1.9390  0.1864  1.0741
  131OSM   C17S14143   4.740   5.745   7.902  0.1513  0.0929 -0.7790
  131OSM   H17S14144   4.716   5.638   7.891 -0.2495 -0.1915  2.1378
  131OSM   H17T14145   4.641   5.796   7.905  0.1559  0.2539 -2.4461
  131OSM   C18S14146   4.802   5.759   8.044  0.1147 -0.3260  0.8438
  131OSM   H18S14147   4.909   5.729   8.036  0.0942  0.0108 -1.1340
  131OSM   H18T14148   4.744   5.697   8.116 -1.7664  0.1160 -0.2094
  131OSM   H18U14149   4.800   5.865   8.076  1.6604 -0.5306  1.7226
  131OSM    C1F14150   4.573   5.696   6.508  0.4156  0.7022 -0.3118
  131OSM     OF14151   4.621   5.616   6.426 -0.0160 -0.1940  0.2387
  131OSM    C2F14152   4.481   5.648   6.620  0.5837 -1.0329  0.2485
  131OSM    H2F14153   4.422   5.563   6.580  0.1321 -0.6306  0.0481
  131OSM    H2G14154   4.416   5.735   6.644  0.8643 -0.8679  0.4236
  131OSM    C3F14155   4.537   5.613   6.760  0.3451  0.1682  0.9064
  131OSM    H3F14156   4.580   5.703   6.809 -0.4321  0.5457  0.9113
  131OSM    H3G14157   4.610   5.530   6.758 -0.3161 -0.5040 -2.6181
  131OSM    C4F14158   4.423   5.577   6.857  0.2089  0.4647 -0.3679
  131OSM    H4F14159   4.382   5.478   6.827  0.8038 -1.3686  3.9709
  131OSM    H4G14160   4.350   5.660   6.867  0.4847  0.9073 -1.7991
  131OSM    C5F14161   4.478   5.547   6.997 -0.0468 -0.6435 -0.7910
  131OSM    H5F14162   4.514   5.646   7.034 -0.8617 -0.2187 -1.1202
  131OSM    H5G14163   4.568   5.481   6.993  0.1574 -0.5309  0.9117
  131OSM    C6F14164   4.368   5.488   7.092 -0.4249 -0.0117 -1.1208
  131OSM    H6F14165   4.270   5.541   7.083 -0.5509  0.3020  1.2898
  131OSM    H6G14166   4.400   5.506   7.197 -1.2962  1.2000 -1.0296
  131OSM    C7F14167   4.357   5.335   7.075 -1.0450  0.4595 -0.1300
  131OSM    H7F14168   4.453   5.293   7.113 -2.0820  0.1302  2.2800
  131OSM    H7G14169   4.355   5.316   6.966  3.0793  1.3567 -0.5372
  131OSM    C8F14170   4.251   5.257   7.157  0.5166 -0.2473 -0.1803
  131OSM    H8F14171   4.276   5.149   7.150 -1.4303 -1.4249  5.5102
  131OSM    H8G14172   4.155   5.271   7.103  0.2987 -0.3228  0.1832
  131OSM    C9F14173   4.245   5.290   7.303  0.6784  0.9548 -0.1457
  131OSM    H9F14174   4.330   5.354   7.334  1.6308 -0.1719 -0.3585
  131OSM   C10F14175   4.156   5.249   7.400 -0.1350  0.0585 -0.0273
  131OSM   H10F14176   4.174   5.290   7.501  0.5111 -0.9592  0.2853
  131OSM   C11F14177   4.035   5.162   7.377 -0.0794  0.3978 -0.2590
  131OSM   H11F14178   4.011   5.170   7.269  2.0510  2.7797 -0.6386
  131OSM   H11G14179   3.941   5.199   7.425 -0.6065 -0.4782 -0.5786
  131OSM   C12F14180   4.043   5.020   7.429  0.1866 -0.2734 -0.6633
  131OSM   H12F14181   4.121   4.965   7.372  0.5345  1.0333 -1.5009
  131OSM   H12G14182   3.943   4.975   7.410 -1.3350  3.5032 -2.7913
  131OSM   C13F14183   4.057   5.034   7.585  0.4035  0.2322  0.3989
  131OSM   H13F14184   3.987   5.113   7.619  0.3669 -0.0391  0.9615
  131OSM   H13G14185   4.158   5.077   7.604  0.2182  0.1294  1.6904
  131OSM   C14F14186   4.034   4.900   7.658 -0.2813  0.5083 -0.1620
  131OSM   H14F14187   4.116   4.832   7.623 -0.9501 -1.3480  1.6854
  131OSM   H14G14188   3.940   4.854   7.621  0.1849 -0.7125  0.1267
  131OSM   C15F14189   4.025   4.906   7.810 -0.3321  0.1696 -0.3699
  131OSM   H15F14190   4.106   4.840   7.848 -0.5544  0.6110  0.9161
  131OSM   H15G14191   3.937   4.849   7.847 -0.2722 -0.6636 -1.4619
  131OSM   C16F14192   4.055   5.051   7.875 -1.1125  0.1808  0.2908
  131OSM   H16F14193   3.974   5.123   7.850  1.5999  2.6704 -2.1303
  131OSM   H16G14194   4.148   5.085   7.824 -0.3726 -0.9924  0.8367
  131OSM   C17F14195   4.080   5.044   8.030 -1.0053 -0.0034  0.5390
  131OSM   H17F14196   4.179   5.001   8.055 -0.8289  0.4138  0.5651
  131OSM   H17G14197   3.999   4.978   8.068  0.0387 -1.6654  0.0131
  131OSM   C18F14198   4.090   5.184   8.102 -0.2138  0.5941 -0.0412
  131OSM   H18F14199   4.024   5.252   8.044  0.4700  0.7140 -0.6909
  131OSM   H18G14200   4.193   5.224   8.098 -0.0782  0.3239  0.5586
  131OSM   H18H14201   4.053   5.184   8.207 -3.0062 -1.5181 -0.9044
  132OSM      N14202   5.610   2.358   6.359 -0.3847  0.0809  0.3409
  132OSM    C1514203   5.573   2.402   6.496  0.3934  0.2333 -0.0852
  132OSM   H15A14204   5.493   2.341   6.535 -0.0073  0.2553 -0.8560
  132OSM   H15B14205   5.545   2.506   6.503  1.1936  0.3487  1.9460
  132OSM   H15C14206   5.652   2.384   6.567 -1.3165 -1.8465  1.4049
  132OSM    C1414207   5.633   2.209   6.368 -0.0333  0.5129  0.2592
  132OSM   H14A14208   5.733   2.194   6.406 -0.8632 -2.5097  1.5508
  132OSM   H14B14209   5.618   2.172   6.268 -2.5719  3.4621 -0.5974
  132OSM   H14C14210   5.565   2.162   6.437  0.4017 -1.3797 -0.5416
  132OSM    C1314211   5.485   2.376   6.278 -0.5363 -0.1721 -0.6240
  132OSM   H13A14212   5.510   2.369   6.174  0.9129  1.5553 -0.4391
  132OSM   H13B14213   5.466   2.482   6.288 -3.3784 -0.4727 -1.8028
  132OSM   H13C14214   5.403   2.316   6.315  1.3484 -1.3051  2.0832
  132OSM    C1214215   5.724   2.431   6.291  0.4182 -0.0329 -0.7316
  132OSM   H12A14216   5.692   2.534   6.298 -0.1574 -0.2911  1.5111
  132OSM   H12B14217   5.735   2.388   6.193  1.6744 -0.8127 -0.2648
  132OSM    C1114218   5.860   2.432   6.359 -0.9488 -0.4343 -0.0385
  132OSM   H11A14219   5.860   2.463   6.466  1.1922  0.4077 -0.2268
  132OSM   H11B14220   5.916   2.507   6.301 -0.9143 -0.3797  0.0646
  132OSM      P14221   6.054   2.270   6.412 -0.3923 -0.3234 -0.1347
  132OSM    O1314222   6.087   2.139   6.356 -0.4173  0.1563  0.2133
  132OSM    O1414223   6.166   2.370   6.410  0.2501  0.1136  0.2854
  132OSM    O1114224   5.996   2.238   6.556  0.3699 -0.0636 -0.0699
  132OSM    O1214225   5.920   2.306   6.334 -1.0053 -0.0723 -0.5334
  132OSM    C1S14226   6.060   2.179   6.670 -0.2978 -0.1670  0.0936
  132OSM    H1S14227   6.169   2.199   6.664  0.7909 -5.1491 -0.7628
  132OSM    H1T14228   6.039   2.070   6.666 -0.2921 -0.1557 -2.8389
  132OSM     NF14229   6.090   2.183   6.918 -1.1438 -0.1671 -0.1757
  132OSM    HNF14230   6.038   2.140   6.991  0.3434 -1.7796 -0.0160
  132OSM    C2S14231   6.012   2.235   6.799 -0.3150  0.2768 -0.4730
  132OSM    H2S14232   6.041   2.341   6.782 -1.5032  0.7735  0.4859
  132OSM    C3S14233   5.858   2.223   6.813 -0.4562 -0.5400  0.4429
  132OSM    H3S14234   5.811   2.125   6.791 -2.1731  0.4721 -0.6434
  132OSM     O314235   5.798   2.312   6.718  0.2640  0.6479 -0.2101
  132OSM    HO314236   5.860   2.303   6.645  0.8697 -1.1443  0.4624
  132OSM    C4S14237   5.817   2.262   6.953 -0.3685 -0.4752 -0.0211
  132OSM    H4S14238   5.831   2.171   7.013  0.8730 -0.0618  0.3483
  132OSM    C5S14239   5.781   2.388   6.993  0.3636  0.5569 -0.0126
  132OSM    H5S14240   5.783   2.468   6.918 -1.0258  1.5701  0.9894
  132OSM    C6S14241   5.735   2.433   7.129  0.7935  0.4979 -0.5149
  132OSM    H6S14242   5.628   2.408   7.148  1.1987 -1.5997 -0.7285
  132OSM    H6T14243   5.740   2.544   7.130 -0.7346  0.5954 -0.6927
  132OSM    C7S14244   5.819   2.382   7.242 -0.2042  0.0293 -0.2917
  132OSM    H7S14245   5.926   2.412   7.241  0.3345 -1.7135  0.3492
  132OSM    H7T14246   5.814   2.272   7.223  0.0172 -0.1308  0.5328
  132OSM    C8S14247   5.772   2.414   7.378 -0.5216  0.5199 -0.2109
  132OSM    H8S14248   5.839   2.363   7.450  2.2060  1.1928 -2.0877
  132OSM    H8T14249   5.670   2.372   7.392 -0.0975  0.4486  3.6598
  132OSM    C9S14250   5.781   2.558   7.419 -0.7975 -0.1239 -0.1251
  132OSM    H9S14251   5.737   2.631   7.347  0.8752  1.4238  0.3314
  132OSM    H9T14252   5.892   2.571   7.417 -0.7618 -0.4261 -0.2659
  132OSM   C10S14253   5.723   2.597   7.557 -0.4012  0.2839  0.1876
  132OSM   H10S14254   5.646   2.523   7.588 -0.3538 -0.5994 -1.6941
  132OSM   H10T14255   5.665   2.691   7.553  0.8443  1.0847  0.3962
  132OSM   C11S14256   5.824   2.597   7.661 -0.2597  0.7622  0.1117
  132OSM   H11S14257   5.912   2.656   7.627  1.2972 -1.7844 -0.4825
  132OSM   H11T14258   5.871   2.497   7.674  1.0338  0.9284 -2.6811
  132OSM   C12S14259   5.774   2.657   7.788  0.3700 -0.1440 -0.9186
  132OSM   H12S14260   5.728   2.756   7.765 -2.2633 -1.2686 -0.9378
  132OSM   H12T14261   5.855   2.666   7.863  0.3614 -0.2288 -0.8991
  132OSM   C13S14262   5.662   2.583   7.865 -0.1351  0.1360  0.7067
  132OSM   H13S14263   5.697   2.478   7.875 -0.1102  0.0031 -0.5684
  132OSM   H13T14264   5.580   2.588   7.790  1.2115 -1.7025 -1.0067
  132OSM   C14S14265   5.619   2.648   7.991 -0.4823 -0.4562 -0.3085
  132OSM   H14S14266   5.515   2.610   7.997 -1.4898  2.1456 -0.1567
  132OSM   H14T14267   5.606   2.758   7.994 -1.4148 -0.5865  1.0705
  132OSM   C15S14268   5.696   2.597   8.115 -0.4534  0.1684 -0.4033
  132OSM   H15S14269   5.802   2.587   8.084 -0.1603 -0.0797  0.6385
  132OSM   H15T14270   5.653   2.497   8.137  1.3693 -0.1059  2.4554
  132OSM   C16S14271   5.682   2.671   8.247 -0.4365 -0.9001 -0.4027
  132OSM   H16S14272   5.710   2.773   8.212 -1.3972 -1.3350 -2.6577
  132OSM   H16T14273   5.752   2.635   8.324 -0.5431 -0.9218 -0.3163
  132OSM   C17S14274   5.538   2.673   8.296 -0.2912  0.3472 -0.1586
  132OSM   H17S14275   5.504   2.570   8.321  2.1895 -0.3463  0.6734
  132OSM   H17T14276   5.472   2.705   8.213 -0.3943 -0.6810 -0.4957
  132OSM   C18S14277   5.512   2.761   8.409  0.3627 -0.6569 -0.5021
  132OSM   H18S14278   5.526   2.865   8.373 -1.4387 -0.9538 -2.2049
  132OSM   H18T14279   5.568   2.728   8.500 -1.0092 -1.1296  0.2007
  132OSM   H18U14280   5.406   2.757   8.440  0.7116 -1.9444  0.6275
  132OSM    C1F14281   6.220   2.186   6.941 -0.1021 -0.4679  0.3549
  132OSM     OF14282   6.292   2.244   6.855 -0.5298 -0.7649 -0.5066
  132OSM    C2F14283   6.270   2.108   7.060  0.3966 -0.2678  0.1539
  132OSM    H2F14284   6.244   2.000   7.055  4.0742 -1.4734  2.9480
  132OSM    H2G14285   6.216   2.146   7.149 -0.0584 -0.4123 -0.0534
  132OSM    C3F14286   6.420   2.120   7.081  0.4137  0.4239  0.5450
  132OSM    H3F14287   6.445   2.228   7.087  0.7960  0.4548 -1.1339
  132OSM    H3G14288   6.475   2.081   6.992 -2.9983  0.1753 -1.6346
  132OSM    C4F14289   6.458   2.052   7.203 -0.4375  0.4125  0.1830
  132OSM    H4F14290   6.563   2.016   7.202 -0.8247 -0.8454 -2.4640
  132OSM    H4G14291   6.389   1.965   7.213 -1.0278  0.5429 -2.2651
  132OSM    C5F14292   6.430   2.129   7.334 -0.4517  0.2288  0.4124
  132OSM    H5F14293   6.321   2.149   7.338 -0.6040 -0.7403  1.7894
  132OSM    H5G14294   6.493   2.219   7.350  2.3954 -1.7175  0.8312
  132OSM    C6F14295   6.467   2.034   7.456 -0.0696 -0.5210  0.3333
  132OSM    H6F14296   6.574   2.004   7.452 -0.4051 -1.5846 -1.3786
  132OSM    H6G14297   6.421   1.933   7.443  0.8899 -1.2298  2.1106
  132OSM    C7F14298   6.429   2.091   7.597 -0.5417 -0.2220  0.3352
  132OSM    H7F14299   6.318   2.092   7.597 -0.6202 -2.7131  0.6191
  132OSM    H7G14300   6.473   2.192   7.616  1.8425 -0.9516 -0.8616
  132OSM    C8F14301   6.475   1.994   7.713  0.2289 -0.3065 -0.3055
  132OSM    H8F14302   6.458   1.886   7.692  1.7659 -0.6685  0.1952
  132OSM    H8G14303   6.421   2.013   7.808 -2.8480  1.5270 -2.2186
  132OSM    C9F14304   6.622   2.002   7.728 -0.3787  0.6023  0.1835
  132OSM    H9F14305   6.676   2.041   7.640  1.2885 -2.0999 -0.1197
  132OSM   C10F14306   6.692   1.945   7.831  0.8696  0.1981 -0.8341
  132OSM   H10F14307   6.802   1.946   7.838  0.8931 -0.0267 -1.1153
  132OSM   C11F14308   6.630   1.878   7.950 -0.0015  0.8759 -0.2687
  132OSM   H11F14309   6.526   1.910   7.975  0.3204  0.2624  2.1418
  132OSM   H11G14310   6.685   1.908   8.042  0.2985  2.6345 -0.9642
  132OSM   C12F14311   6.657   1.727   7.943 -0.0194  0.3646 -0.4872
  132OSM   H12F14312   6.761   1.710   7.907  1.0304  3.9766  0.4580
  132OSM   H12G14313   6.589   1.690   7.863 -2.1225  1.0409  0.9117
  132OSM   C13F14314   6.638   1.647   8.074  0.0130 -0.4112  0.3396
  132OSM   H13F14315   6.649   1.539   8.052  0.8666  0.0343 -1.6437
  132OSM   H13G14316   6.538   1.669   8.117 -0.5094 -1.6190 -0.2272
  132OSM   C14F14317   6.743   1.681   8.188  0.7774  0.0693 -0.1498
  132OSM   H14F14318   6.711   1.774   8.239 -0.0539 -0.8133  1.0269
  132OSM   H14G14319   6.843   1.692   8.141  0.5066 -0.0635 -0.7731
  132OSM   C15F14320   6.738   1.572   8.303 -0.1601 -0.1582  0.0825
  132OSM   H15F14321   6.758   1.472   8.259 -1.6812 -1.3954  2.0560
  132OSM   H15G14322   6.640   1.567   8.355 -0.6504  2.4606 -0.4473
  132OSM   C16F14323   6.842   1.596   8.414  0.7245  0.2729 -0.6302
  132OSM   H16F14324   6.947   1.601   8.378  1.7829  0.1538  2.2055
  132OSM   H16G14325   6.853   1.514   8.488 -0.0204  0.1505 -0.6480
  132OSM   C17F14326   6.820   1.718   8.501 -0.7075 -0.8013  0.4349
  132OSM   H17F14327   6.715   1.712   8.537 -0.8894  1.4172  0.4104
  132OSM   H17G14328   6.824   1.812   8.442 -0.0052 -0.8850  0.3368
  132OSM   C18F14329   6.911   1.724   8.620  0.1701  0.1451 -0.1224
  132OSM   H18F14330   7.011   1.750   8.581  0.1827 -0.6476 -0.6468
  132OSM   H18G14331   6.910   1.632   8.683  0.4727  0.4207  0.2879
  132OSM   H18H14332   6.876   1.805   8.688  1.3973  0.9031 -0.3656
  133OSM      N14333   0.625   1.227   6.347  0.1331  0.4087 -0.3918
  133OSM    C1514334   0.624   1.311   6.224 -0.9360  0.0098  0.0581
  133OSM   H15A14335   0.564   1.267   6.146 -0.6417 -2.9128  1.3375
  133OSM   H15B14336   0.723   1.337   6.191  0.0569 -0.1831  2.5996
  133OSM   H15C14337   0.573   1.402   6.250 -1.0545  0.4394 -1.6011
  133OSM    C1414338   0.497   1.141   6.343  0.0937  0.6191 -0.6237
  133OSM   H14A14339   0.402   1.185   6.316  0.4588  2.3724  0.7402
  133OSM   H14B14340   0.490   1.098   6.442  0.0581  1.4048 -0.2730
  133OSM   H14C14341   0.511   1.059   6.275  0.6162  0.5237 -0.4096
  133OSM    C1314342   0.745   1.129   6.341 -0.1011  0.5055  0.3492
  133OSM   H13A14343   0.839   1.180   6.357 -0.2357  0.8556  0.0313
  133OSM   H13B14344   0.763   1.072   6.251 -1.4117 -0.8921  0.9326
  133OSM   H13C14345   0.734   1.050   6.414 -0.2621 -0.9236 -1.1818
  133OSM    C1214346   0.639   1.306   6.474 -0.4420 -0.9148  0.1824
  133OSM   H12A14347   0.738   1.351   6.472 -1.3517  1.2422  0.6983
  133OSM   H12B14348   0.638   1.233   6.554  0.0859 -0.4375  0.6357
  133OSM    C1114349   0.553   1.430   6.496 -0.0216  0.0568  0.1978
  133OSM   H11A14350   0.537   1.457   6.603 -2.4941  3.0132 -0.7932
  133OSM   H11B14351   0.453   1.404   6.455  0.0612  0.8878 -0.5562
  133OSM      P14352   0.532   1.675   6.412  0.1373  0.1901  0.3186
  133OSM    O1314353   0.610   1.755   6.325  0.3231 -0.1784 -0.0346
  133OSM    O1414354   0.395   1.638   6.364  0.2376  0.2000 -0.0721
  133OSM    O1114355   0.514   1.746   6.552  0.3286 -0.3969 -0.3296
  133OSM    O1214356   0.617   1.549   6.437  0.1485 -0.2266 -0.5279
  133OSM    C1S14357   0.391   1.715   6.623 -0.3821  0.0947 -0.1622
  133OSM    H1S14358   0.388   1.604   6.632 -0.4888  0.0817 -0.3413
  133OSM    H1T14359   0.299   1.748   6.570  0.5985  1.1866 -1.2431
  133OSM     NF14360   0.293   1.716   6.851  0.2164 -0.0728  0.9615
  133OSM    HNF14361   0.199   1.743   6.830 -0.7366 -4.0149 -0.9562
  133OSM    C2S14362   0.392   1.789   6.769 -0.3698  0.4836  0.5325
  133OSM    H2S14363   0.494   1.771   6.808  0.5862 -1.8229 -2.6655
  133OSM    C3S14364   0.367   1.935   6.744 -0.2291  0.4271  0.2920
  133OSM    H3S14365   0.261   1.953   6.719  0.0293  0.6311 -0.7212
  133OSM     O314366   0.449   1.987   6.633  0.1516 -0.3683 -0.0307
  133OSM    HO314367   0.494   1.909   6.600  0.6362  0.3755 -1.2092
  133OSM    C4S14368   0.382   2.011   6.875 -0.2110  0.1789  0.2236
  133OSM    H4S14369   0.292   2.009   6.938  0.8905 -4.2845  2.0274
  133OSM    C5S14370   0.494   2.077   6.900  0.3256  0.4480 -0.1847
  133OSM    H5S14371   0.572   2.077   6.822  0.4872 -1.9950 -0.0881
  133OSM    C6S14372   0.529   2.153   7.021 -0.3005 -0.0721 -0.0770
  133OSM    H6S14373   0.562   2.255   6.993  0.1529 -0.6304 -1.6767
  133OSM    H6T14374   0.620   2.107   7.066 -0.3380  2.2184  2.6018
  133OSM    C7S14375   0.426   2.153   7.133  0.2959 -0.5397  1.1711
  133OSM    H7S14376   0.324   2.178   7.097  1.5127  0.3883 -1.9862
  133OSM    H7T14377   0.456   2.241   7.195  0.6925  0.1273  0.0621
  133OSM    C8S14378   0.406   2.028   7.219 -0.4489 -0.3313 -0.2860
  133OSM    H8S14379   0.487   2.027   7.295 -2.1623 -3.8652  1.7640
  133OSM    H8T14380   0.422   1.949   7.143 -2.1603  1.3297 -2.5198
  133OSM    C9S14381   0.263   2.005   7.257  0.6982 -0.6228 -0.4058
  133OSM    H9S14382   0.206   2.016   7.162  1.1972 -0.3792 -0.6795
  133OSM    H9T14383   0.224   2.081   7.328 -2.6413 -3.2569  0.9126
  133OSM   C10S14384   0.244   1.869   7.327 -0.7845  0.0111  0.4429
  133OSM   H10S14385   0.331   1.850   7.393  0.3367  0.1787 -0.9323
  133OSM   H10T14386   0.249   1.799   7.241 -0.7557 -0.2108  0.6242
  133OSM   C11S14387   0.113   1.857   7.409  0.0657 -0.4373  0.4548
  133OSM   H11S14388   0.032   1.883   7.339 -0.8569 -3.5206  0.2157
  133OSM   H11T14389   0.123   1.925   7.497  1.8467  2.3199 -1.7230
  133OSM   C12S14390   0.076   1.714   7.452  0.1290  0.5241 -0.7846
  133OSM   H12S14391   0.094   1.638   7.373  0.1162 -0.7647  0.4113
  133OSM   H12T14392  -0.034   1.716   7.468 -0.0371  1.7578 -1.8830
  133OSM   C13S14393   0.147   1.679   7.583  0.4856 -0.9283  0.4290
  133OSM   H13S14394   0.119   1.757   7.657  1.0056  1.6416 -1.9073
  133OSM   H13T14395   0.257   1.675   7.567  0.6393 -0.4190  1.3194
  133OSM   C14S14396   0.106   1.543   7.641  0.7620 -0.4460  0.3116
  133OSM   H14S14397   0.124   1.463   7.567  1.8715 -0.3715  0.4781
  133OSM   H14T14398  -0.000   1.548   7.673  0.5073 -3.7256  0.2853
  133OSM   C15S14399   0.184   1.521   7.770 -0.3737 -0.0110  0.5919
  133OSM   H15S14400   0.175   1.606   7.841 -1.9543 -0.5267  1.0551
  133OSM   H15T14401   0.291   1.512   7.744 -0.0514 -2.1441  2.3548
  133OSM   C16S14402   0.133   1.400   7.854  0.2194  0.3326 -0.7907
  133OSM   H16S14403   0.106   1.319   7.783  1.1956 -0.9110  0.1902
  133OSM   H16T14404   0.035   1.432   7.893 -0.3501  0.0119 -1.9169
  133OSM   C17S14405   0.242   1.364   7.963 -0.1155 -0.5939  0.3619
  133OSM   H17S14406   0.276   1.461   8.005  0.4478 -0.5226 -0.2209
  133OSM   H17T14407   0.331   1.317   7.914  1.5375  1.3320  1.3900
  133OSM   C18S14408   0.177   1.280   8.078 -0.7215  0.2745  0.0917
  133OSM   H18S14409   0.124   1.350   8.146 -0.7909 -1.5746  2.0538
  133OSM   H18T14410   0.261   1.228   8.128 -0.3080 -0.6719 -1.5223
  133OSM   H18U14411   0.105   1.199   8.056  0.2724 -0.2480 -1.3469
  133OSM    C1F14412   0.321   1.593   6.895 -0.2579 -0.6398  0.5109
  133OSM     OF14413   0.438   1.557   6.882 -0.0368  0.0525  0.3977
  133OSM    C2F14414   0.211   1.503   6.945 -0.4953 -0.4804 -0.2548
  133OSM    H2F14415   0.187   1.435   6.861  0.4744  0.6785 -1.5111
  133OSM    H2G14416   0.119   1.552   6.984  0.3312 -1.4328  3.1987
  133OSM    C3F14417   0.266   1.428   7.070 -0.3521 -0.6418  0.4172
  133OSM    H3F14418   0.317   1.490   7.147 -3.2603  1.4072  0.8724
  133OSM    H3G14419   0.337   1.351   7.033  0.1179  1.1291 -2.7097
  133OSM    C4F14420   0.151   1.371   7.160  0.2349 -0.1847 -0.0777
  133OSM    H4F14421   0.081   1.315   7.094 -1.1111 -1.5232  2.3372
  133OSM    H4G14422   0.094   1.455   7.205 -0.2752 -0.3589 -0.3974
  133OSM    C5F14423   0.198   1.273   7.269  0.0049 -0.0964  0.6101
  133OSM    H5F14424   0.227   1.333   7.358  0.7529  0.7721 -0.2009
  133OSM    H5G14425   0.286   1.218   7.229 -0.4777 -1.9858  1.9904
  133OSM    C6F14426   0.095   1.166   7.312  0.0618 -0.0366 -0.2271
  133OSM    H6F14427   0.148   1.102   7.386  3.3788  1.8212 -0.7937
  133OSM    H6G14428   0.052   1.107   7.229 -1.4536  0.0413  0.4778
  133OSM    C7F14429  -0.029   1.221   7.389  0.1360 -0.9132 -0.8565
  133OSM    H7F14430  -0.082   1.297   7.328  0.8885  1.0999  0.9037
  133OSM    H7G14431   0.012   1.270   7.479  0.6751 -1.1300 -0.9738
  133OSM    C8F14432  -0.126   1.109   7.439 -0.2147  0.5687 -0.3843
  133OSM    H8F14433  -0.069   1.041   7.506  0.8893  0.1843 -1.6526
  133OSM    H8G14434  -0.164   1.050   7.353  0.7132 -0.6262  0.0022
  133OSM    C9F14435  -0.244   1.177   7.512  0.6499  0.1631 -0.0271
  133OSM    H9F14436  -0.330   1.203   7.449 -1.7713  0.4665  3.1547
  133OSM   C10F14437  -0.263   1.196   7.644  0.0726 -0.0387 -0.1273
  133OSM   H10F14438  -0.345   1.261   7.678  2.1683  1.6484  2.0836
  133OSM   C11F14439  -0.157   1.165   7.750 -0.2055  0.2313 -0.0512
  133OSM   H11F14440  -0.057   1.178   7.704  0.2423 -0.1630  0.7850
  133OSM   H11G14441  -0.162   1.061   7.788 -0.6035  0.8561  1.7333
  133OSM   C12F14442  -0.162   1.260   7.871 -0.3959  0.3223 -0.0574
  133OSM   H12F14443  -0.174   1.367   7.845 -2.4391 -0.0924 -1.0636
  133OSM   H12G14444  -0.072   1.236   7.931 -3.2531 -1.6255  3.9072
  133OSM   C13F14445  -0.268   1.227   7.976 -0.0112 -0.5986  0.1430
  133OSM   H13F14446  -0.363   1.220   7.918  0.3470 -1.0590 -0.3990
  133OSM   H13G14447  -0.288   1.313   8.044 -1.0166 -0.2746 -0.5227
  133OSM   C14F14448  -0.248   1.099   8.049 -0.0417  0.7415 -0.5601
  133OSM   H14F14449  -0.157   1.131   8.105 -0.2860  1.5127 -0.5935
  133OSM   H14G14450  -0.229   1.005   7.993  2.5250 -0.0894  1.4964
  133OSM   C15F14451  -0.361   1.059   8.142  0.1352 -0.2528  0.0218
  133OSM   H15F14452  -0.446   1.049   8.071  0.9684  1.3651 -1.2692
  133OSM   H15G14453  -0.389   1.139   8.214 -3.5780 -0.4846 -0.9372
  133OSM   C16F14454  -0.323   0.929   8.211 -0.9871  0.4779  0.5544
  133OSM   H16F14455  -0.240   0.951   8.281 -0.4269  0.6846 -0.1580
  133OSM   H16G14456  -0.281   0.852   8.143 -0.0718 -1.5610  3.2626
  133OSM   C17F14457  -0.432   0.856   8.279 -0.4542  0.2129 -0.1206
  133OSM   H17F14458  -0.384   0.756   8.291  0.0300  0.0323 -3.0178
  133OSM   H17G14459  -0.524   0.832   8.222  0.9869 -2.2675 -1.5752
  133OSM   C18F14460  -0.468   0.927   8.413  0.4241 -0.2571  0.4767
  133OSM   H18F14461  -0.527   0.861   8.480 -1.0929  0.1063 -0.4485
  133OSM   H18G14462  -0.539   1.009   8.390 -0.7421 -1.0053  1.3130
  133OSM   H18H14463  -0.387   0.966   8.478 -0.3255 -1.8312  2.4794
  134OSM      N14464   0.656   4.601   6.662  0.0917 -1.0392  0.5146
  134OSM    C1514465   0.523   4.659   6.713 -0.0426  0.6797  0.3791
  134OSM   H15A14466   0.459   4.582   6.753 -1.0271  0.2853 -1.8139
  134OSM   H15B14467   0.462   4.698   6.633 -0.8249 -1.0244  0.1014
  134OSM   H15C14468   0.542   4.736   6.786 -3.1106 -2.2411  4.7394
  134OSM    C1414469   0.728   4.560   6.782 -0.0127  0.1411 -0.3316
  134OSM   H14A14470   0.822   4.521   6.747 -0.6107  0.3072 -2.2065
  134OSM   H14B14471   0.676   4.486   6.841 -0.9514 -0.0338 -1.3477
  134OSM   H14C14472   0.752   4.641   6.850 -2.2064  1.5925 -1.1475
  134OSM    C1314473   0.633   4.494   6.558 -0.8509 -0.4571  0.1345
  134OSM   H13A14474   0.570   4.414   6.593 -1.5030 -0.7542 -1.5912
  134OSM   H13B14475   0.727   4.445   6.540 -0.4218 -0.2632  1.7027
  134OSM   H13C14476   0.588   4.542   6.471 -0.2698  2.6030  1.3948
  134OSM    C1214477   0.736   4.715   6.608 -0.2300 -0.3657  0.4115
  134OSM   H12A14478   0.742   4.789   6.687 -2.2507  0.7655 -0.4260
  134OSM   H12B14479   0.676   4.760   6.530  0.5956  0.0267 -0.0064
  134OSM    C1114480   0.878   4.689   6.544  0.1760 -0.1106 -0.1578
  134OSM   H11A14481   0.931   4.787   6.544 -0.1690  0.1419  2.3001
  134OSM   H11B14482   0.863   4.665   6.437  0.9217  0.3994 -0.3867
  134OSM      P14483   1.034   4.472   6.569  0.7444 -0.4470  0.2142
  134OSM    O1314484   0.957   4.404   6.461  0.5017 -0.0157  0.2595
  134OSM    O1414485   1.172   4.501   6.535 -0.3728 -0.0321 -0.6865
  134OSM    O1114486   1.028   4.382   6.703 -0.3253 -0.2368 -0.0566
  134OSM    O1214487   0.960   4.599   6.617  0.4264 -0.1058  0.0730
  134OSM    C1S14488   1.079   4.426   6.820 -0.4997  0.0640  0.4466
  134OSM    H1S14489   1.089   4.536   6.832  1.4793  0.1437 -1.2838
  134OSM    H1T14490   1.187   4.398   6.824 -0.4940 -0.0262 -0.2033
  134OSM     NF14491   1.057   4.426   7.066  0.6262  0.0327  0.9033
  134OSM    HNF14492   1.132   4.371   7.103  2.4358  1.2722 -0.7072
  134OSM    C2S14493   1.000   4.369   6.944 -0.8955 -0.1653 -0.0744
  134OSM    H2S14494   0.896   4.407   6.932 -0.2029  2.0789  0.5769
  134OSM    C3S14495   0.992   4.215   6.948  0.3349 -0.6951 -0.1797
  134OSM    H3S14496   1.095   4.176   6.937  0.2995 -0.4793 -1.3826
  134OSM     O314497   0.929   4.168   6.826  0.0833  0.7067  0.3904
  134OSM    HO314498   0.926   4.246   6.770  0.8817  0.5572  0.1193
  134OSM    C4S14499   0.908   4.172   7.069 -0.2425 -0.2260  0.0856
  134OSM    H4S14500   0.804   4.204   7.051 -0.4947 -0.5329  0.9569
  134OSM    C5S14501   0.948   4.097   7.175  0.1194 -0.1689 -0.1918
  134OSM    H5S14502   1.052   4.060   7.175  1.2111  2.6118 -1.7579
  134OSM    C6S14503   0.856   4.054   7.293 -0.2647  0.1636  0.2263
  134OSM    H6S14504   0.916   4.049   7.387  0.8710 -0.6085 -0.5215
  134OSM    H6T14505   0.835   3.945   7.286  0.7356 -0.0528  0.4661
  134OSM    C7S14506   0.722   4.126   7.324  0.6478 -0.2512  0.4709
  134OSM    H7S14507   0.691   4.084   7.421 -0.6925 -1.9458 -0.6383
  134OSM    H7T14508   0.649   4.102   7.244 -0.3640 -3.0154  2.0979
  134OSM    C8S14509   0.747   4.273   7.356 -0.7030 -0.7261  0.2752
  134OSM    H8S14510   0.653   4.321   7.392 -1.3341 -2.1002  0.5140
  134OSM    H8T14511   0.784   4.332   7.270 -1.5552  0.8350  0.9382
  134OSM    C9S14512   0.861   4.289   7.474 -0.3223 -0.8380  0.2911
  134OSM    H9S14513   0.961   4.267   7.432  1.0151  0.7705  2.4605
  134OSM    H9T14514   0.855   4.207   7.549  0.9939 -1.2397 -0.0133
  134OSM   C10S14515   0.857   4.432   7.545 -0.6386  0.3361 -0.3636
  134OSM   H10S14516   0.767   4.439   7.610 -0.4348 -0.0541 -0.0390
  134OSM   H10T14517   0.872   4.509   7.466  0.0351 -0.1427 -0.7088
  134OSM   C11S14518   0.981   4.456   7.630 -0.5614  0.6699  0.0254
  134OSM   H11S14519   0.988   4.562   7.661  2.6375 -0.0225  2.2089
  134OSM   H11T14520   1.074   4.437   7.571  0.8023  3.0874  1.2507
  134OSM   C12S14521   0.976   4.362   7.751  0.0498  0.4133 -0.3811
  134OSM   H12S14522   1.013   4.261   7.722  1.7827  0.6991  0.6895
  134OSM   H12T14523   0.870   4.345   7.780 -0.3865 -0.9343 -2.5536
  134OSM   C13S14524   1.065   4.404   7.862 -1.0075 -0.5058 -0.6677
  134OSM   H13S14525   1.041   4.509   7.888  0.1276 -1.0598  3.2737
  134OSM   H13T14526   1.168   4.412   7.823 -0.8594 -0.1835 -0.2277
  134OSM   C14S14527   1.055   4.322   7.992 -0.3047  0.4396 -0.6098
  134OSM   H14S14528   1.093   4.224   7.957  0.9160  0.2289  1.1944
  134OSM   H14T14529   0.948   4.309   8.018 -0.3361 -0.3289 -1.1012
  134OSM   C15S14530   1.126   4.377   8.117  0.1029  0.5650  0.1841
  134OSM   H15S14531   1.235   4.384   8.096 -0.1136  1.5436 -0.7174
  134OSM   H15T14532   1.111   4.299   8.195 -3.2385  1.7822  0.9313
  134OSM   C16S14533   1.081   4.514   8.172 -0.0694  0.1117  0.5094
  134OSM   H16S14534   1.072   4.591   8.092 -0.7493 -0.6621 -0.1745
  134OSM   H16T14535   1.162   4.559   8.233  1.1028  1.4079 -1.8650
  134OSM   C17S14536   0.945   4.508   8.246  0.4204 -0.1810  1.0683
  134OSM   H17S14537   0.868   4.487   8.168  1.1481  0.5796  0.1133
  134OSM   H17T14538   0.928   4.610   8.287  0.3478  0.2117  0.1020
  134OSM   C18S14539   0.939   4.411   8.361 -0.3618 -0.7757 -0.2890
  134OSM   H18S14540   1.017   4.433   8.436 -0.3105  0.4553 -0.6797
  134OSM   H18T14541   0.942   4.303   8.335 -0.3373 -0.9820  0.5543
  134OSM   H18U14542   0.841   4.433   8.409 -0.1280 -1.7448  0.6948
  134OSM    C1F14543   1.020   4.547   7.103 -0.2763 -0.3581  0.2627
  134OSM     OF14544   0.946   4.616   7.035  0.3481  0.2799  0.3251
  134OSM    C2F14545   1.090   4.607   7.218 -0.1826 -0.8361  0.3806
  134OSM    H2F14546   1.198   4.582   7.214 -0.6201 -2.8190 -2.8486
  134OSM    H2G14547   1.055   4.560   7.312 -0.3273 -0.4816  0.5079
  134OSM    C3F14548   1.082   4.763   7.222  0.3927 -0.1161  0.0508
  134OSM    H3F14549   0.974   4.789   7.228 -0.5461 -2.9837 -1.8626
  134OSM    H3G14550   1.117   4.815   7.130  1.0680  0.5010  0.6480
  134OSM    C4F14551   1.147   4.822   7.348 -0.1752  0.1771  1.1071
  134OSM    H4F14552   1.134   4.932   7.341  1.2212  0.3582  1.0690
  134OSM    H4G14553   1.256   4.804   7.353 -0.6402 -2.7043  3.0947
  134OSM    C5F14554   1.086   4.776   7.485 -0.7336 -0.0454  0.2746
  134OSM    H5F14555   1.107   4.668   7.495 -0.9563 -0.0287  0.9863
  134OSM    H5G14556   0.976   4.793   7.494 -0.8597 -0.1026 -0.9810
  134OSM    C6F14557   1.156   4.842   7.605 -0.1507  0.6642 -0.3062
  134OSM    H6F14558   1.112   4.943   7.593 -0.9758  0.3347 -0.1049
  134OSM    H6G14559   1.267   4.847   7.594 -0.3421  0.5400 -3.4118
  134OSM    C7F14560   1.122   4.783   7.747 -0.3736 -0.4233  0.5003
  134OSM    H7F14561   1.160   4.678   7.751  0.2364 -0.2069  0.4747
  134OSM    H7G14562   1.012   4.777   7.762 -0.7713  1.6225 -1.0808
  134OSM    C8F14563   1.201   4.848   7.866  0.6041 -0.1408  0.2980
  134OSM    H8F14564   1.310   4.844   7.848  0.9401  2.8801  1.1682
  134OSM    H8G14565   1.189   4.785   7.957  0.3987  0.1640  0.4839
  134OSM    C9F14566   1.160   4.993   7.875  0.2855 -0.6315  0.7282
  134OSM    H9F14567   1.182   5.063   7.793 -0.0386 -0.8766  0.4283
  134OSM   C10F14568   1.111   5.051   7.986 -0.8437  0.1996 -1.0878
  134OSM   H10F14569   1.095   5.159   7.997 -0.7250  0.0054  1.5307
  134OSM   C11F14570   1.089   4.985   8.121 -0.2998  0.0929  1.2389
  134OSM   H11F14571   1.168   5.013   8.194  0.8649  0.6701 -0.1932
  134OSM   H11G14572   1.085   4.874   8.116 -0.4340  0.0943  1.2938
  134OSM   C12F14573   0.959   5.027   8.196  0.2745  0.4737 -0.2871
  134OSM   H12F14574   0.871   5.004   8.132  0.4038 -0.6573 -0.0934
  134OSM   H12G14575   0.979   5.135   8.210 -0.0513  0.6040 -0.8273
  134OSM   C13F14576   0.938   4.976   8.339  0.0989  0.8244 -0.7328
  134OSM   H13F14577   1.036   4.991   8.390 -0.3800 -0.7987  0.7427
  134OSM   H13G14578   0.920   4.867   8.332 -0.3566  0.8254  0.2855
  134OSM   C14F14579   0.821   5.053   8.398  0.6440 -0.4959 -0.7537
  134OSM   H14F14580   0.727   5.010   8.358 -0.1340 -0.1408  0.6341
  134OSM   H14G14581   0.831   5.161   8.375  1.9323 -0.7086 -1.2883
  134OSM   C15F14582   0.815   5.031   8.551 -0.1155  0.4740 -0.2813
  134OSM   H15F14583   0.798   5.129   8.601  0.4215  1.5349 -2.0801
  134OSM   H15G14584   0.914   5.000   8.590 -0.4538  1.5683  1.5990
  134OSM   C16F14585   0.705   4.931   8.596 -0.6016 -0.2653 -0.0543
  134OSM   H16F14586   0.724   4.827   8.562  2.6980  0.1176  0.2441
  134OSM   H16G14587   0.608   4.962   8.553 -0.7646  1.4557  1.4186
  134OSM   C17F14588   0.690   4.924   8.755 -0.0571 -0.3609 -0.0956
  134OSM   H17F14589   0.601   4.858   8.769 -0.0570  0.0255  1.9245
  134OSM   H17G14590   0.671   5.026   8.794  0.3927  0.5824 -2.2040
  134OSM   C18F14591   0.806   4.865   8.830  0.0416  0.3849  0.0689
  134OSM   H18F14592   0.813   4.762   8.791  0.5539  0.6310 -0.5020
  134OSM   H18G14593   0.792   4.856   8.940  1.4217 -1.5852  0.1357
  134OSM   H18H14594   0.905   4.916   8.821  0.6927 -0.6323  1.1528
  135OSM      N14595   0.617   3.707   6.340 -0.2857  0.3049  0.1935
  135OSM    C1514596   0.599   3.795   6.219 -0.4899  0.4385  0.4703
  135OSM   H15A14597   0.556   3.892   6.238 -3.2201 -0.4878 -0.5167
  135OSM   H15B14598   0.535   3.750   6.144 -1.3150  0.8703  0.9008
  135OSM   H15C14599   0.692   3.830   6.177  0.0251  0.5980  1.6994
  135OSM    C1414600   0.632   3.566   6.294 -0.0356  0.4226  0.3306
  135OSM   H14A14601   0.702   3.565   6.212 -3.4916 -0.3100 -2.9063
  135OSM   H14B14602   0.537   3.538   6.251 -0.3251 -0.7867  1.6551
  135OSM   H14C14603   0.655   3.490   6.368  0.6462 -1.2313 -1.4815
  135OSM    C1314604   0.749   3.742   6.394 -0.1068  0.1321 -0.1704
  135OSM   H13A14605   0.834   3.717   6.332 -1.1884  1.4270 -2.2975
  135OSM   H13B14606   0.762   3.700   6.492  1.3589 -1.7719 -1.0944
  135OSM   H13C14607   0.737   3.849   6.406 -1.9946 -0.0887  0.0761
  135OSM    C1214608   0.499   3.724   6.424  0.6764  0.3668 -0.8190
  135OSM   H12A14609   0.510   3.636   6.484  1.9973  1.5088  0.7130
  135OSM   H12B14610   0.409   3.708   6.367  1.1030 -1.7526 -0.9905
  135OSM    C1114611   0.486   3.856   6.519 -0.3109 -0.5052  0.3385
  135OSM   H11A14612   0.558   3.850   6.603 -0.8750  1.3496  1.0081
  135OSM   H11B14613   0.388   3.844   6.570 -0.3078 -1.1486  0.2076
  135OSM      P14614   0.602   4.087   6.476  0.0941  0.0403 -0.2916
  135OSM    O1314615   0.738   4.029   6.473 -0.5556 -0.2767 -0.1880
  135OSM    O1414616   0.575   4.213   6.399 -0.1654 -0.3931 -0.2229
  135OSM    O1114617   0.554   4.113   6.626  0.2719 -0.1371 -0.6478
  135OSM    O1214618   0.487   3.981   6.440  0.0654 -0.2721 -0.0260
  135OSM    C1S14619   0.420   4.168   6.645 -0.1957  0.1920 -0.5546
  135OSM    H1S14620   0.345   4.099   6.601  1.4655 -1.2763 -1.1997
  135OSM    H1T14621   0.396   4.262   6.589 -1.0672  0.5000  0.3147
  135OSM     NF14622   0.242   4.221   6.809 -0.0346 -0.2828  1.0366
  135OSM    HNF14623   0.223   4.319   6.800 -1.2794 -0.5280  0.7513
  135OSM    C2S14624   0.385   4.186   6.797  1.0730 -0.3363 -0.6321
  135OSM    H2S14625   0.405   4.091   6.851 -0.9342  0.0689  0.9910
  135OSM    C3S14626   0.479   4.294   6.863 -0.1696 -0.0651 -0.2624
  135OSM    H3S14627   0.454   4.389   6.812  0.9133  0.0295 -0.6323
  135OSM     O314628   0.615   4.259   6.847 -0.7509 -0.1632  0.0429
  135OSM    HO314629   0.611   4.184   6.787 -1.1438  1.6748 -2.3654
  135OSM    C4S14630   0.458   4.304   7.012  0.1314 -0.1274  0.3408
  135OSM    H4S14631   0.501   4.222   7.071  1.3014 -0.4415 -0.8826
  135OSM    C5S14632   0.420   4.421   7.070 -0.0658  0.9591  0.0112
  135OSM    H5S14633   0.418   4.515   7.013 -1.2355  0.6853 -0.4282
  135OSM    C6S14634   0.414   4.431   7.215  0.6261 -0.4292 -0.3621
  135OSM    H6S14635   0.379   4.534   7.239  1.0475 -0.3382 -0.1341
  135OSM    H6T14636   0.516   4.408   7.254 -0.2355 -3.4806  0.3424
  135OSM    C7S14637   0.304   4.345   7.284  0.2096 -0.1963 -0.7381
  135OSM    H7S14638   0.340   4.240   7.284  0.5119 -0.1361  0.9837
  135OSM    H7T14639   0.213   4.344   7.220 -0.8805  3.1181  0.5168
  135OSM    C8S14640   0.284   4.383   7.429 -0.3114  0.3752 -0.2564
  135OSM    H8S14641   0.190   4.341   7.471  0.5670 -0.3982  1.0132
  135OSM    H8T14642   0.280   4.492   7.450 -1.4964  0.5235 -1.1106
  135OSM    C9S14643   0.390   4.325   7.529  0.1017  0.2671 -0.6482
  135OSM    H9S14644   0.491   4.365   7.507  0.0865 -1.2187 -4.0552
  135OSM    H9T14645   0.401   4.221   7.491  1.4818  0.9285 -2.2005
  135OSM   C10S14646   0.346   4.319   7.672 -0.1645 -0.2318 -0.7630
  135OSM   H10S14647   0.254   4.257   7.683 -0.0025 -0.4398 -0.5652
  135OSM   H10T14648   0.318   4.419   7.711  0.2951 -0.4834  0.2300
  135OSM   C11S14649   0.451   4.259   7.771 -0.3358 -0.6230  0.4501
  135OSM   H11S14650   0.543   4.321   7.761 -0.3021 -0.4976  1.4224
  135OSM   H11T14651   0.490   4.162   7.735  0.5205  0.1299 -0.7310
  135OSM   C12S14652   0.381   4.249   7.905  0.6750 -0.3040  0.3543
  135OSM   H12S14653   0.293   4.186   7.880  1.2909 -0.7670 -0.7601
  135OSM   H12T14654   0.343   4.348   7.936 -0.9814 -0.1837 -1.8186
  135OSM   C13S14655   0.462   4.192   8.019  0.2837  0.4838  0.0149
  135OSM   H13S14656   0.524   4.272   8.063  2.4160 -1.1686  0.1682
  135OSM   H13T14657   0.524   4.106   7.986  0.6020  1.2879 -1.5629
  135OSM   C14S14658   0.365   4.147   8.131 -0.2733  0.5644 -0.5389
  135OSM   H14S14659   0.274   4.097   8.093  0.1034 -0.3992 -0.2063
  135OSM   H14T14660   0.332   4.235   8.191 -1.2008 -0.8916  1.1743
  135OSM   C15S14661   0.438   4.053   8.235  0.2462  0.3488  0.6053
  135OSM   H15S14662   0.536   4.093   8.270  0.7123 -0.9650  0.8913
  135OSM   H15T14663   0.456   3.957   8.182 -1.1554  0.9825 -1.1283
  135OSM   C16S14664   0.341   4.039   8.356 -0.1125 -0.1131 -0.1565
  135OSM   H16S14665   0.239   4.022   8.317  0.0629 -3.0408  0.4674
  135OSM   H16T14666   0.332   4.134   8.413  1.3952  0.1922 -0.3888
  135OSM   C17S14667   0.390   3.934   8.459 -0.3586 -0.3212 -0.2153
  135OSM   H17S14668   0.491   3.961   8.495 -1.0662  0.0867  1.5460
  135OSM   H17T14669   0.407   3.835   8.413 -0.3855 -2.0491  3.2133
  135OSM   C18S14670   0.296   3.909   8.573 -0.4971  0.1319 -0.6937
  135OSM   H18S14671   0.329   3.816   8.623 -1.8609  0.5759  1.1429
  135OSM   H18T14672   0.198   3.887   8.526  0.5000 -0.9430 -2.3927
  135OSM   H18U14673   0.307   3.998   8.638  2.3428  0.0733 -0.9511
  135OSM    C1F14674   0.132   4.145   6.790 -0.4096  0.6326  0.4075
  135OSM     OF14675   0.149   4.026   6.765  0.6445 -0.0642 -0.3517
  135OSM    C2F14676  -0.005   4.203   6.790 -0.2783 -0.1032 -0.4569
  135OSM    H2F14677  -0.022   4.215   6.681 -0.7915 -2.1956 -0.6468
  135OSM    H2G14678  -0.013   4.303   6.838 -0.0328 -0.7947  1.0761
  135OSM    C3F14679  -0.121   4.109   6.849 -0.3712  0.2278  0.0124
  135OSM    H3F14680  -0.086   4.006   6.823 -0.4976  0.4711 -1.1721
  135OSM    H3G14681  -0.221   4.127   6.806 -0.9882 -0.3935  1.1455
  135OSM    C4F14682  -0.139   4.125   7.001 -0.3152  0.2009  0.7916
  135OSM    H4F14683  -0.232   4.069   7.024  0.2796 -0.3231  1.9400
  135OSM    H4G14684  -0.151   4.232   7.029  2.4239  0.8151 -0.0413
  135OSM    C5F14685  -0.026   4.067   7.090  0.4918  0.5307 -0.1284
  135OSM    H5F14686   0.065   4.127   7.069  0.4467 -0.2658 -2.9824
  135OSM    H5G14687   0.002   3.966   7.053 -0.9010 -0.3640  1.1311
  135OSM    C6F14688  -0.075   4.069   7.234 -0.0268 -0.4033 -0.0297
  135OSM    H6F14689  -0.174   4.020   7.245  0.2482 -0.7200  1.3290
  135OSM    H6G14690  -0.095   4.176   7.258  0.3507 -0.7222  1.9576
  135OSM    C7F14691   0.027   4.002   7.334 -0.2350  0.4863 -0.2419
  135OSM    H7F14692   0.126   4.051   7.320  1.4885 -2.7468 -0.2896
  135OSM    H7G14693   0.028   3.899   7.293 -1.1640  1.0131 -1.6990
  135OSM    C8F14694  -0.029   3.984   7.478 -1.0998  0.0586  0.2425
  135OSM    H8F14695   0.047   3.922   7.530  0.2839  1.1552 -0.4093
  135OSM    H8G14696  -0.123   3.927   7.460  0.3995 -3.1586  1.8381
  135OSM    C9F14697  -0.035   4.114   7.556  0.1574 -0.7262  0.1157
  135OSM    H9F14698  -0.030   4.199   7.487  2.3835 -2.5150 -2.0945
  135OSM   C10F14699  -0.024   4.143   7.687 -0.0138 -0.5380  0.4098
  135OSM   H10F14700  -0.031   4.247   7.722 -0.4508 -0.3781 -0.1304
  135OSM   C11F14701   0.000   4.041   7.797  0.7048  0.1433  0.1302
  135OSM   H11F14702   0.104   4.044   7.836  0.9808 -0.3607 -0.5468
  135OSM   H11G14703  -0.014   3.942   7.749  0.2487  1.4186 -2.5730
  135OSM   C12F14704  -0.111   4.063   7.906 -0.0984 -0.5338 -0.3016
  135OSM   H12F14705  -0.202   4.072   7.842  2.2105  1.6958 -3.5657
  135OSM   H12G14706  -0.109   4.160   7.962 -1.6013  0.1841 -1.3964
  135OSM   C13F14707  -0.125   3.944   8.004  0.2546 -0.2634 -0.1320
  135OSM   H13F14708  -0.044   3.924   8.078 -0.3383 -1.9109  0.1159
  135OSM   H13G14709  -0.126   3.858   7.935 -2.1074 -0.1748 -0.2822
  135OSM   C14F14710  -0.267   3.926   8.069 -0.5106  0.6496  0.0471
  135OSM   H14F14711  -0.349   3.931   7.994  0.6642  0.4891 -1.3081
  135OSM   H14G14712  -0.288   4.017   8.129  1.6661  1.0209  0.3383
  135OSM   C15F14713  -0.279   3.797   8.146 -0.1389 -0.4219 -0.3443
  135OSM   H15F14714  -0.246   3.711   8.084  0.7689  0.7759 -1.5773
  135OSM   H15G14715  -0.384   3.789   8.180 -0.1206  1.0369  0.1077
  135OSM   C16F14716  -0.196   3.800   8.276 -0.7079 -0.6028 -0.3007
  135OSM   H16F14717  -0.224   3.888   8.338  0.2276  0.1996 -0.9856
  135OSM   H16G14718  -0.089   3.820   8.254 -0.0953 -2.5568  0.7176
  135OSM   C17F14719  -0.209   3.684   8.381 -0.6119 -0.0874  0.0924
  135OSM   H17F14720  -0.127   3.622   8.338 -0.5296  0.3438 -0.3906
  135OSM   H17G14721  -0.307   3.633   8.366 -0.6510  0.4625 -1.8757
  135OSM   C18F14722  -0.184   3.730   8.524  0.5937 -0.1535 -0.4527
  135OSM   H18F14723  -0.175   3.651   8.601  0.0343  0.2752  0.0695
  135OSM   H18G14724  -0.273   3.791   8.551  0.8944  0.6746 -1.2614
  135OSM   H18H14725  -0.092   3.791   8.536  0.3842 -0.2069  1.7550
  136OSM      N14726   3.725   6.080   6.135  0.7414  0.2394 -0.3855
  136OSM    C1514727   3.671   5.953   6.066  0.7135  0.8344 -0.0932
  136OSM   H15A14728   3.742   5.893   6.011 -1.3275 -1.5383 -0.2830
  136OSM   H15B14729   3.586   5.977   6.004  0.9221 -0.6411 -1.0138
  136OSM   H15C14730   3.624   5.886   6.135  1.7861 -0.7091 -0.8001
  136OSM    C1414731   3.806   6.162   6.037 -0.7918  0.8782 -0.0578
  136OSM   H14A14732   3.756   6.167   5.941 -0.9508  3.8822  0.1019
  136OSM   H14B14733   3.905   6.124   6.019 -1.0424  0.4392 -0.5420
  136OSM   H14C14734   3.813   6.264   6.071  0.1540  0.3990  1.2618
  136OSM    C1314735   3.611   6.161   6.180 -0.2125 -0.0174 -0.6904
  136OSM   H13A14736   3.536   6.104   6.233  0.1834 -0.5051 -0.6445
  136OSM   H13B14737   3.560   6.201   6.094 -1.4397  1.2677  0.5753
  136OSM   H13C14738   3.634   6.240   6.250 -0.3448 -0.5909  0.0149
  136OSM    C1214739   3.810   6.031   6.252  0.1702 -0.5156 -0.3708
  136OSM   H12A14740   3.886   5.964   6.217 -1.0856 -0.7461 -2.9296
  136OSM   H12B14741   3.731   5.983   6.308  1.0431 -1.1937  0.2994
  136OSM    C1114742   3.871   6.139   6.343  0.3482  0.3044 -0.8877
  136OSM   H11A14743   3.914   6.088   6.431 -3.1987  1.5536  1.8352
  136OSM   H11B14744   3.787   6.207   6.370 -0.8800 -0.4132 -2.7026
  136OSM      P14745   4.107   6.191   6.243  0.3446  0.2664 -0.2288
  136OSM    O1314746   4.136   6.056   6.298 -0.7857  0.5545 -0.3172
  136OSM    O1414747   4.146   6.224   6.102 -0.4232  0.5357 -0.6257
  136OSM    O1114748   4.173   6.294   6.340  0.1313 -0.0319 -0.0739
  136OSM    O1214749   3.957   6.221   6.264 -0.1666 -0.0140  0.5202
  136OSM    C1S14750   4.190   6.275   6.482  0.2827 -0.0620  0.0221
  136OSM    H1S14751   4.133   6.187   6.520  0.9476 -0.3507  0.3559
  136OSM    H1T14752   4.148   6.366   6.528  0.3633  0.5585 -1.0887
  136OSM     NF14753   4.360   6.205   6.648 -0.1828  0.1008 -0.7394
  136OSM    HNF14754   4.350   6.271   6.722  1.6690 -1.8124  1.3768
  136OSM    C2S14755   4.343   6.267   6.510 -0.0456  0.6420 -0.3312
  136OSM    H2S14756   4.386   6.207   6.427 -0.5684  1.6755 -1.3614
  136OSM    C3S14757   4.400   6.409   6.498 -0.2610  0.1515 -0.6658
  136OSM    H3S14758   4.338   6.484   6.553 -0.6360 -0.4901 -0.2027
  136OSM     O314759   4.383   6.452   6.364 -0.3789 -0.0734 -0.5737
  136OSM    HO314760   4.307   6.404   6.330  0.3679 -0.1571 -2.1988
  136OSM    C4S14761   4.545   6.420   6.532 -0.4291  0.2511 -0.1808
  136OSM    H4S14762   4.614   6.365   6.467 -1.0276  1.3214 -1.7697
  136OSM    C5S14763   4.605   6.492   6.633  0.2258 -0.4871  0.2486
  136OSM    H5S14764   4.541   6.556   6.695 -1.4346  1.4530 -3.1920
  136OSM    C6S14765   4.750   6.502   6.647 -0.9894 -0.0233 -0.2721
  136OSM    H6S14766   4.779   6.599   6.601  1.2924 -0.4458  0.1555
  136OSM    H6T14767   4.810   6.430   6.588  0.2118  0.1706  0.6636
  136OSM    C7S14768   4.794   6.478   6.794 -0.7628  0.1812 -0.0586
  136OSM    H7S14769   4.901   6.450   6.794 -0.4957  1.1556 -0.3838
  136OSM    H7T14770   4.736   6.390   6.830  2.0807  0.1522  5.4988
  136OSM    C8S14771   4.770   6.593   6.886  0.4500 -0.2447 -0.9094
  136OSM    H8S14772   4.661   6.616   6.891  0.1895 -1.5808  0.7030
  136OSM    H8T14773   4.823   6.684   6.852 -1.1015  0.2839 -2.0272
  136OSM    C9S14774   4.812   6.563   7.031 -0.1580 -0.4001 -0.0671
  136OSM    H9S14775   4.820   6.660   7.085 -0.4274 -1.2400  1.5466
  136OSM    H9T14776   4.907   6.504   7.031  1.1825  1.5103  2.8190
  136OSM   C10S14777   4.712   6.473   7.104  0.1409  0.2474 -0.2935
  136OSM   H10S14778   4.715   6.367   7.070 -0.4641  0.7041 -1.8654
  136OSM   H10T14779   4.613   6.516   7.076  0.1348 -1.7884 -4.1047
  136OSM   C11S14780   4.729   6.476   7.257  0.3684  0.4031  0.6813
  136OSM   H11S14781   4.720   6.579   7.297  0.6251  0.5644  0.3228
  136OSM   H11T14782   4.830   6.443   7.288 -0.0035 -1.2534  0.2413
  136OSM   C12S14783   4.644   6.377   7.322  0.3870  0.3784 -0.1350
  136OSM   H12S14784   4.652   6.271   7.288 -0.1803  0.7627 -1.5158
  136OSM   H12T14785   4.538   6.392   7.293  0.9115  0.8578 -1.8917
  136OSM   C13S14786   4.656   6.372   7.478  0.3836 -0.2008  0.0281
  136OSM   H13S14787   4.735   6.302   7.511 -0.8919 -1.8454 -0.2339
  136OSM   H13T14788   4.560   6.325   7.509 -0.1494 -0.6262 -2.1253
  136OSM   C14S14789   4.647   6.507   7.556  0.1486  0.1658 -0.9458
  136OSM   H14S14790   4.570   6.560   7.495  0.1388  0.0547 -1.0302
  136OSM   H14T14791   4.737   6.567   7.532  0.4691  0.3333  0.5690
  136OSM   C15S14792   4.622   6.486   7.704  0.0884  0.0134 -0.0123
  136OSM   H15S14793   4.547   6.407   7.725  0.2987 -0.1993 -0.0662
  136OSM   H15T14794   4.585   6.583   7.744 -1.9781 -0.0137 -1.7112
  136OSM   C16S14795   4.757   6.443   7.775 -0.3969  0.8485  0.1136
  136OSM   H16S14796   4.838   6.510   7.740  1.2040  0.3681  2.7012
  136OSM   H16T14797   4.785   6.341   7.742 -1.4952  0.6044 -0.1160
  136OSM   C17S14798   4.760   6.459   7.926 -0.8847  0.6259 -0.0799
  136OSM   H17S14799   4.661   6.421   7.958  0.3076 -3.9658 -1.2000
  136OSM   H17T14800   4.769   6.561   7.970  1.7883  0.5254 -0.2075
  136OSM   C18S14801   4.860   6.373   8.001  0.0882 -0.3464 -0.0730
  136OSM   H18S14802   4.955   6.378   7.944  0.0241  0.2867 -0.1353
  136OSM   H18T14803   4.829   6.267   8.010 -0.6121 -0.0102  2.2025
  136OSM   H18U14804   4.880   6.415   8.103 -0.9775  1.2599 -0.4859
  136OSM    C1F14805   4.367   6.073   6.680 -0.4921 -0.0738 -0.0256
  136OSM     OF14806   4.403   5.997   6.586  0.3445  0.1233 -0.0224
  136OSM    C2F14807   4.325   6.028   6.820  0.1714  0.3038 -0.0150
  136OSM    H2F14808   4.285   5.925   6.807 -0.7661  1.0272 -4.7367
  136OSM    H2G14809   4.238   6.089   6.853 -0.7599 -1.8993  1.9002
  136OSM    C3F14810   4.436   6.054   6.919 -0.4739 -0.4879 -0.2690
  136OSM    H3F14811   4.453   6.162   6.938 -1.9351 -0.1645 -0.6869
  136OSM    H3G14812   4.526   6.008   6.873 -0.4436  1.6782 -2.6189
  136OSM    C4F14813   4.395   5.995   7.057 -0.2915 -0.0687 -0.3583
  136OSM    H4F14814   4.371   5.887   7.048  2.2418 -0.7629  0.3658
  136OSM    H4G14815   4.303   6.042   7.099 -1.0806 -1.0713 -0.9066
  136OSM    C5F14816   4.518   6.007   7.157 -0.4162 -0.3642 -0.7123
  136OSM    H5F14817   4.538   6.114   7.179 -3.1013  0.3215 -1.2254
  136OSM    H5G14818   4.604   5.954   7.112 -1.5864 -1.5311 -1.6816
  136OSM    C6F14819   4.492   5.939   7.290  0.0628 -0.4254 -0.5491
  136OSM    H6F14820   4.590   5.906   7.330 -0.1107 -0.3643 -0.0683
  136OSM    H6G14821   4.441   5.840   7.289 -1.1416  0.1339  0.8448
  136OSM    C7F14822   4.414   6.034   7.385  0.5742  0.3774  0.3850
  136OSM    H7F14823   4.319   6.057   7.331 -0.7928  0.7336  2.7630
  136OSM    H7G14824   4.461   6.132   7.408 -1.1193  0.9158  1.8809
  136OSM    C8F14825   4.389   5.975   7.530  0.2453  0.3915 -0.6441
  136OSM    H8F14826   4.327   5.884   7.519 -1.3143  0.9760  2.2803
  136OSM    H8G14827   4.311   6.037   7.579  1.8956  0.8634  1.5311
  136OSM    C9F14828   4.503   5.959   7.629  0.0681 -0.0152  0.1428
  136OSM    H9F14829   4.589   5.900   7.594  0.2594  1.4474 -2.0472
  136OSM   C10F14830   4.517   6.027   7.744 -0.1327  0.4899 -0.1052
  136OSM   H10F14831   4.608   6.014   7.805 -0.1222  1.2548  0.0518
  136OSM   C11F14832   4.420   6.128   7.808  0.0936  0.4558 -0.0598
  136OSM   H11F14833   4.316   6.096   7.785 -0.0433 -0.3128  1.4653
  136OSM   H11G14834   4.435   6.230   7.766 -1.4394  0.8096  0.1834
  136OSM   C12F14835   4.425   6.124   7.963 -0.3408  0.7729 -0.7923
  136OSM   H12F14836   4.360   6.208   7.998 -0.5913  0.7701 -1.2464
  136OSM   H12G14837   4.523   6.153   8.006  1.7238 -2.6480 -2.7659
  136OSM   C13F14838   4.369   5.996   8.021  0.0799  0.1271 -0.6719
  136OSM   H13F14839   4.429   5.914   7.976  2.0828  0.0926  1.8629
  136OSM   H13G14840   4.261   5.992   7.994 -0.9875  0.1327  3.0593
  136OSM   C14F14841   4.376   5.988   8.176  0.6982  0.4204 -0.1540
  136OSM   H14F14842   4.331   6.083   8.211 -1.7043 -0.9796  0.7414
  136OSM   H14G14843   4.482   5.975   8.207  0.1857  0.7806  1.8663
  136OSM   C15F14844   4.288   5.883   8.240  0.5482 -0.2882 -0.5861
  136OSM   H15F14845   4.182   5.904   8.212 -0.1329 -0.5177  1.5627
  136OSM   H15G14846   4.294   5.899   8.350  3.2807  1.1882 -0.8706
  136OSM   C16F14847   4.322   5.742   8.199  0.6566  0.6465 -0.3297
  136OSM   H16F14848   4.418   5.707   8.242  0.9700  1.9227  0.0386
  136OSM   H16G14849   4.338   5.745   8.089 -0.9335 -0.3759 -0.6180
  136OSM   C17F14850   4.201   5.652   8.224  0.6044 -0.3158  0.9902
  136OSM   H17F14851   4.205   5.560   8.161 -1.2548  1.1943 -1.5307
  136OSM   H17G14852   4.116   5.715   8.188  1.7850  0.7058 -0.0958
  136OSM   C18F14853   4.174   5.627   8.370  0.0708  0.3641 -1.6890
  136OSM   H18F14854   4.168   5.724   8.424  0.9346  0.1069 -1.1062
  136OSM   H18G14855   4.244   5.557   8.422 -1.9567 -1.2452 -1.0177
  136OSM   H18H14856   4.076   5.577   8.380  0.0095  0.8109  0.4293
  137OSM      N14857   2.094   2.846   6.141  0.0111  0.3711 -0.1671
  137OSM    C1514858   2.071   2.989   6.126  0.1617 -1.2582 -0.0490
  137OSM   H15A14859   2.159   3.051   6.119 -0.6644  0.0412  0.6514
  137OSM   H15B14860   2.014   3.025   6.210 -0.5264 -2.4879  0.0402
  137OSM   H15C14861   2.005   3.012   6.043  0.3395  3.1106  0.7631
  137OSM    C1414862   1.962   2.772   6.143 -0.0857  0.2543 -0.2185
  137OSM   H14A14863   1.899   2.807   6.223  0.9935  1.9520 -0.0444
  137OSM   H14B14864   1.984   2.667   6.156 -0.2530  0.2151 -0.2580
  137OSM   H14C14865   1.905   2.772   6.052 -1.6074 -0.5284  0.6955
  137OSM    C1314866   2.192   2.798   6.034  0.3612 -0.0951  0.0729
  137OSM   H13A14867   2.159   2.806   5.931  0.4389  1.4577  0.1373
  137OSM   H13B14868   2.229   2.700   6.057 -2.2402 -0.5546  2.8834
  137OSM   H13C14869   2.274   2.867   6.021 -0.1107  0.3340 -0.8277
  137OSM    C1214870   2.166   2.829   6.273 -0.1987 -0.1258 -0.1938
  137OSM   H12A14871   2.260   2.882   6.278 -0.1586 -0.2875  1.2745
  137OSM   H12B14872   2.198   2.727   6.286 -0.1447 -0.2863 -1.4985
  137OSM    C1114873   2.099   2.864   6.410  0.0872 -0.5824  0.8655
  137OSM   H11A14874   2.169   2.834   6.491  0.0151 -1.6913  0.5356
  137OSM   H11B14875   2.010   2.800   6.431  1.2589 -2.3051  0.8263
  137OSM      P14876   1.958   3.071   6.497  0.0140  0.1221  0.0481
  137OSM    O1314877   1.996   3.208   6.527  0.0000  0.1518 -0.0819
  137OSM    O1414878   1.823   3.044   6.437  0.6029 -0.1733  0.0094
  137OSM    O1114879   1.976   2.985   6.626 -0.2433 -0.2422  0.2019
  137OSM    O1214880   2.065   3.006   6.405  0.1263 -0.4081 -0.4876
  137OSM    C1S14881   2.029   3.025   6.753 -0.2815 -0.3668 -0.2276
  137OSM    H1S14882   1.987   3.124   6.779  0.2100 -0.1950 -0.0638
  137OSM    H1T14883   2.138   3.046   6.749 -0.0359 -0.8127  2.4205
  137OSM     NF14884   2.048   2.966   6.996 -0.2924  0.4038  0.4976
  137OSM    HNF14885   2.120   2.910   7.037  0.6587  0.3963 -1.1113
  137OSM    C2S14886   1.996   2.926   6.870 -0.0544  0.3671  0.4019
  137OSM    H2S14887   1.886   2.920   6.882 -0.0244  0.7198  0.8596
  137OSM    C3S14888   2.045   2.777   6.837 -0.1868  0.5077  0.0791
  137OSM    H3S14889   2.155   2.793   6.825 -0.2841  0.7859 -0.4931
  137OSM     O314890   2.001   2.724   6.709 -0.2094  0.1820 -0.0214
  137OSM    HO314891   2.007   2.803   6.654 -0.1705 -1.0487 -1.8895
  137OSM    C4S14892   2.023   2.680   6.950 -0.5526  0.4853  0.0824
  137OSM    H4S14893   2.112   2.638   6.999  0.4318  1.3140 -0.9521
  137OSM    C5S14894   1.899   2.633   6.981  0.4143 -0.1642  0.4507
  137OSM    H5S14895   1.809   2.682   6.940 -0.8796 -2.5245  0.2875
  137OSM    C6S14896   1.870   2.519   7.070 -0.7121  0.1171  0.7102
  137OSM    H6S14897   1.902   2.423   7.024 -1.4631 -0.6451  1.7063
  137OSM    H6T14898   1.760   2.515   7.087 -0.4764  0.9727  2.7668
  137OSM    C7S14899   1.929   2.521   7.208  0.2293  0.2154 -0.4616
  137OSM    H7S14900   1.889   2.612   7.257 -1.1562 -0.3337 -0.5234
  137OSM    H7T14901   2.040   2.526   7.202  0.1849  3.2853  0.0206
  137OSM    C8S14902   1.873   2.401   7.288  0.0424 -0.0707 -0.1498
  137OSM    H8S14903   1.932   2.310   7.262 -0.1341  0.0761 -1.1169
  137OSM    H8T14904   1.763   2.387   7.272 -0.5749  2.5091  1.3122
  137OSM    C9S14905   1.915   2.420   7.430 -0.3564  0.4845  0.2917
  137OSM    H9S14906   1.875   2.521   7.456 -0.9561  0.7468 -1.4881
  137OSM    H9T14907   2.026   2.418   7.433 -0.3670 -1.8996  0.8722
  137OSM   C10S14908   1.860   2.310   7.519 -0.9032  0.1106 -0.8945
  137OSM   H10S14909   1.925   2.219   7.521  0.0172  0.7577  0.6872
  137OSM   H10T14910   1.756   2.293   7.486 -0.0303 -1.1924 -3.2354
  137OSM   C11S14911   1.850   2.361   7.665 -0.0076  0.6034 -1.1642
  137OSM   H11S14912   1.778   2.444   7.677  1.3841  1.7460 -0.3561
  137OSM   H11T14913   1.944   2.400   7.710 -1.9223  3.5111  0.6364
  137OSM   C12S14914   1.791   2.256   7.770  0.5501 -0.1366  0.2627
  137OSM   H12S14915   1.862   2.171   7.764  2.6313  1.5093  0.4135
  137OSM   H12T14916   1.694   2.226   7.725  0.9401 -3.7708  1.5141
  137OSM   C13S14917   1.803   2.296   7.920  0.0365  0.4691 -0.2059
  137OSM   H13S14918   1.761   2.399   7.928  2.5036  1.4342  1.3788
  137OSM   H13T14919   1.912   2.298   7.941  0.3565 -0.5140 -1.6116
  137OSM   C14S14920   1.740   2.192   8.013 -0.3408 -0.3362  1.0037
  137OSM   H14S14921   1.785   2.098   7.977 -0.0816 -0.1411  0.8191
  137OSM   H14T14922   1.630   2.191   7.998 -0.3743  3.1142  0.2501
  137OSM   C15S14923   1.766   2.220   8.159  0.3813 -0.0037 -0.3436
  137OSM   H15S14924   1.764   2.328   8.183  1.2779 -0.1955  0.6963
  137OSM   H15T14925   1.866   2.181   8.186  0.6375  0.1889 -1.0012
  137OSM   C16S14926   1.667   2.153   8.258  0.1836  0.1515  0.1239
  137OSM   H16S14927   1.698   2.047   8.269  2.5305  0.9275  1.8221
  137OSM   H16T14928   1.565   2.171   8.216 -0.5753 -0.2083  1.7446
  137OSM   C17S14929   1.653   2.213   8.398 -0.8733 -0.6175  0.0034
  137OSM   H17S14930   1.646   2.323   8.385  0.7770 -0.2414  1.7517
  137OSM   H17T14931   1.743   2.184   8.457 -1.7858 -0.3499  1.5866
  137OSM   C18S14932   1.537   2.148   8.476 -0.0848 -0.0333  0.3429
  137OSM   H18S14933   1.449   2.180   8.417  1.6250  0.3037 -2.1451
  137OSM   H18T14934   1.534   2.172   8.585  1.0392 -4.1860  1.4630
  137OSM   H18U14935   1.549   2.038   8.468 -0.6632 -0.0449 -0.3943
  137OSM    C1F14936   2.008   3.079   7.051  0.7343  0.1037  0.2078
  137OSM     OF14937   1.913   3.148   7.009 -0.1063  1.2085 -0.1115
  137OSM    C2F14938   2.095   3.135   7.161  0.2463 -0.1592  0.1822
  137OSM    H2F14939   2.110   3.242   7.138 -1.4876  0.5188  1.8687
  137OSM    H2G14940   2.192   3.089   7.190 -0.7850 -1.0403  2.6214
  137OSM    C3F14941   2.015   3.121   7.300  0.0963  0.6019  0.9371
  137OSM    H3F14942   1.913   3.162   7.279 -0.0075 -1.2478 -3.2688
  137OSM    H3G14943   2.058   3.200   7.366 -0.6530  2.7061 -0.9250
  137OSM    C4F14944   2.020   2.975   7.354 -0.0175  0.4483 -0.9911
  137OSM    H4F14945   2.117   2.923   7.337 -1.3472 -3.0082  0.8628
  137OSM    H4G14946   1.946   2.914   7.298 -0.2826 -0.3381  0.1810
  137OSM    C5F14947   1.989   2.960   7.504 -0.3738  0.8279  0.2499
  137OSM    H5F14948   1.889   2.998   7.529 -0.9075 -0.3769  0.0376
  137OSM    H5G14949   2.068   3.015   7.559  0.4769  2.0690 -2.0670
  137OSM    C6F14950   1.985   2.816   7.555  0.3885 -0.3721  0.5049
  137OSM    H6F14951   2.086   2.773   7.543  0.5672 -0.0397  0.8122
  137OSM    H6G14952   1.909   2.749   7.509  0.2137 -0.1661  0.4891
  137OSM    C7F14953   1.942   2.831   7.710 -0.2848  0.7936  0.6991
  137OSM    H7F14954   1.840   2.873   7.699 -0.4635 -0.1095 -1.7128
  137OSM    H7G14955   2.023   2.896   7.751  0.8719  0.3922 -0.8208
  137OSM    C8F14956   1.923   2.698   7.781  0.1044 -0.4263  0.4155
  137OSM    H8F14957   2.014   2.639   7.756  1.9898  2.0598  0.9976
  137OSM    H8G14958   1.836   2.647   7.735  0.5755 -1.5553  0.7210
  137OSM    C9F14959   1.905   2.705   7.928  0.3352 -0.2059  0.5404
  137OSM    H9F14960   1.835   2.786   7.955  0.3679 -0.4247  1.3311
  137OSM   C10F14961   1.965   2.639   8.029 -0.6146  0.4100  0.3557
  137OSM   H10F14962   1.945   2.672   8.133 -1.5524 -0.4522  0.4569
  137OSM   C11F14963   2.066   2.529   8.029  0.2171 -0.0545  0.4943
  137OSM   H11F14964   2.157   2.562   7.975 -0.1961 -1.9539 -1.4918
  137OSM   H11G14965   2.024   2.450   7.963 -0.1544  0.4606  0.0986
  137OSM   C12F14966   2.087   2.460   8.164  0.4385 -0.1941  0.0222
  137OSM   H12F14967   2.131   2.359   8.146 -0.1616 -0.3540 -0.5930
  137OSM   H12G14968   1.982   2.438   8.194  0.1856 -1.3612 -1.6121
  137OSM   C13F14969   2.163   2.527   8.269  0.1861  0.8104  0.0120
  137OSM   H13F14970   2.118   2.629   8.272 -0.0143  0.7027  1.4857
  137OSM   H13G14971   2.269   2.535   8.238 -0.2190 -0.9657 -1.9902
  137OSM   C14F14972   2.155   2.467   8.412  0.3620 -0.5458 -0.2508
  137OSM   H14F14973   2.193   2.362   8.412  0.3489 -0.5791 -2.1651
  137OSM   H14G14974   2.048   2.456   8.440  0.3424  0.7088  0.2201
  137OSM   C15F14975   2.233   2.560   8.515  0.5054  0.5806  0.2712
  137OSM   H15F14976   2.205   2.664   8.491  0.8311  0.4119 -0.9000
  137OSM   H15G14977   2.341   2.559   8.491  0.1322  0.1703 -1.5442
  137OSM   C16F14978   2.210   2.530   8.663  0.2400 -0.0761 -0.3198
  137OSM   H16F14979   2.203   2.421   8.685  1.1810 -0.1149 -0.1829
  137OSM   H16G14980   2.110   2.577   8.675 -0.7985 -2.5258  1.6216
  137OSM   C17F14981   2.316   2.581   8.764 -0.0562 -0.1224 -0.6558
  137OSM   H17F14982   2.409   2.521   8.758  1.4804  2.0027  0.6292
  137OSM   H17G14983   2.281   2.575   8.870 -0.7366 -1.2180 -0.9197
  137OSM   C18F14984   2.362   2.731   8.735 -0.2456 -0.1591 -0.1614
  137OSM   H18F14985   2.284   2.809   8.720 -1.2346 -1.4155 -1.9234
  137OSM   H18G14986   2.424   2.717   8.644  0.5158 -0.9574  0.4702
  137OSM   H18H14987   2.432   2.765   8.814 -0.0814 -2.3559  0.7204
  138OSM      N14988   2.224   5.164   6.050 -0.2145 -0.0131  0.5009
  138OSM    C1514989   2.162   5.029   6.036  0.6241 -0.3723 -0.0256
  138OSM   H15A14990   2.204   4.971   6.117 -1.0384 -0.0882  1.0970
  138OSM   H15B14991   2.194   4.996   5.939  0.6232  0.0523 -0.1712
  138OSM   H15C14992   2.055   5.017   6.044  0.2533  0.4829 -2.8492
  138OSM    C1414993   2.375   5.142   6.049  0.1835  0.1533  0.3941
  138OSM   H14A14994   2.402   5.059   6.113 -1.4030 -1.1175 -0.5093
  138OSM   H14B14995   2.418   5.235   6.083  1.0604 -0.5822  1.3729
  138OSM   H14C14996   2.409   5.126   5.948 -0.7402  1.3605 -0.1383
  138OSM    C1314997   2.182   5.249   5.933  0.3907 -0.1147 -0.1484
  138OSM   H13A14998   2.131   5.186   5.862 -1.6238 -0.9511  1.8892
  138OSM   H13B14999   2.260   5.310   5.890 -0.1431 -0.4340 -1.5929
  138OSM   H13C15000   2.096   5.310   5.958  0.5975 -0.2905  1.1001
  138OSM    C1215001   2.174   5.226   6.177  0.2379 -0.0838 -0.0119
  138OSM   H12A15002   2.183   5.150   6.253 -1.1232 -0.5911 -0.3235
  138OSM   H12B15003   2.067   5.240   6.162  0.3869  0.3408 -0.7428
  138OSM    C1115004   2.235   5.359   6.218 -0.2780 -0.5337  0.5260
  138OSM   H11A15005   2.160   5.421   6.272 -0.2332 -1.0356  1.1745
  138OSM   H11B15006   2.265   5.403   6.121  1.8045 -0.0470  1.3520
  138OSM      P15007   2.470   5.441   6.295 -0.0655  0.1516 -0.1837
  138OSM    O1315008   2.555   5.396   6.407  0.6789 -0.5021  0.2167
  138OSM    O1415009   2.536   5.448   6.160  0.1761 -0.1125  0.0165
  138OSM    O1115010   2.407   5.581   6.329  0.4191 -0.1719  0.4857
  138OSM    O1215011   2.349   5.334   6.293  0.2123 -0.0071 -0.5410
  138OSM    C1S15012   2.346   5.623   6.448  0.3234 -0.4207 -0.0032
  138OSM    H1S15013   2.280   5.545   6.491 -0.2799  1.1777  2.0983
  138OSM    H1T15014   2.279   5.710   6.428  2.3592  1.1216 -0.4473
  138OSM     NF15015   2.389   5.680   6.689 -0.1139  0.1970 -0.4052
  138OSM    HNF15016   2.389   5.768   6.734  0.9799 -0.2274  0.4661
  138OSM    C2S15017   2.448   5.660   6.556  0.3795 -0.1087 -0.6692
  138OSM    H2S15018   2.525   5.582   6.575  1.3221  0.6310 -1.4044
  138OSM    C3S15019   2.523   5.790   6.508 -0.0163  0.1805 -0.1648
  138OSM    H3S15020   2.450   5.872   6.527  0.6852  1.1827 -1.6452
  138OSM     O315021   2.555   5.788   6.374 -0.1806 -0.3788 -0.3829
  138OSM    HO315022   2.514   5.711   6.334 -0.6574  0.4574 -1.5755
  138OSM    C4S15023   2.640   5.808   6.598  0.2520  0.7062  0.1515
  138OSM    H4S15024   2.712   5.726   6.609 -0.7011  0.1977  4.5364
  138OSM    C5S15025   2.675   5.922   6.663 -0.0663  0.8400  0.0753
  138OSM    H5S15026   2.603   6.005   6.661  1.9906  2.8007  1.6550
  138OSM    C6S15027   2.788   5.939   6.760 -0.1288  0.2743  1.3052
  138OSM    H6S15028   2.830   6.042   6.757  0.4253  0.0317 -0.1903
  138OSM    H6T15029   2.868   5.878   6.713 -1.0164 -0.0367  0.1348
  138OSM    C7S15030   2.748   5.880   6.894  0.6091  0.1975 -0.7534
  138OSM    H7S15031   2.734   5.770   6.883  2.7635  0.0109 -2.2771
  138OSM    H7T15032   2.649   5.923   6.920  0.0301 -0.9586 -0.9749
  138OSM    C8S15033   2.852   5.893   6.997  0.3843 -0.1272 -1.3083
  138OSM    H8S15034   2.896   5.995   6.992 -1.8858  1.0079  0.2076
  138OSM    H8T15035   2.939   5.827   6.977  1.7894  0.8056  1.1752
  138OSM    C9S15036   2.802   5.860   7.146 -0.5569  0.6048  0.3733
  138OSM    H9S15037   2.755   5.759   7.147  0.9767 -0.1387  0.7343
  138OSM    H9T15038   2.736   5.945   7.174 -2.2866 -0.9369  1.1439
  138OSM   C10S15039   2.910   5.845   7.256 -0.4036 -0.5559  0.7581
  138OSM   H10S15040   2.986   5.926   7.256 -1.1213  0.2291 -2.2083
  138OSM   H10T15041   2.973   5.755   7.241  0.5874  0.5383 -2.4999
  138OSM   C11S15042   2.843   5.849   7.393  0.2658  0.0110 -0.2048
  138OSM   H11S15043   2.754   5.784   7.383 -0.5097  1.2930 -2.2564
  138OSM   H11T15044   2.808   5.954   7.407  2.6977  0.9501 -0.7187
  138OSM   C12S15045   2.932   5.809   7.513 -0.2789 -0.5264  1.2083
  138OSM   H12S15046   3.030   5.860   7.527  0.2307 -1.8108  2.5928
  138OSM   H12T15047   2.971   5.713   7.472  0.9265  0.7705 -0.8824
  138OSM   C13S15048   2.859   5.812   7.646 -0.5493  0.3612 -0.4365
  138OSM   H13S15049   2.783   5.731   7.651  1.0034 -1.0676  1.8279
  138OSM   H13T15050   2.810   5.912   7.650  2.1120  1.7586 -0.7746
  138OSM   C14S15051   2.954   5.820   7.766  0.7690 -0.6239  0.2227
  138OSM   H14S15052   3.022   5.907   7.756 -0.3958  0.4730  1.4899
  138OSM   H14T15053   3.023   5.733   7.780  1.8776  0.2221  0.1743
  138OSM   C15S15054   2.874   5.830   7.896  0.0690  0.2980  0.0213
  138OSM   H15S15055   2.805   5.742   7.897 -0.4876  0.7255  1.3108
  138OSM   H15T15056   2.803   5.916   7.898  0.0032  0.2286  0.6145
  138OSM   C16S15057   2.957   5.798   8.021 -0.4803  0.3335  0.5196
  138OSM   H16S15058   3.041   5.870   8.030 -1.2780  1.1982  1.2639
  138OSM   H16T15059   2.992   5.694   8.004 -4.5122 -1.0686 -0.1553
  138OSM   C17S15060   2.876   5.804   8.147 -0.7573  0.2238 -0.2406
  138OSM   H17S15061   2.770   5.770   8.150 -1.2861  1.7945 -0.2383
  138OSM   H17T15062   2.873   5.914   8.159 -2.9030  0.4629 -2.1664
  138OSM   C18S15063   2.941   5.749   8.272  0.3167  0.0566  0.7925
  138OSM   H18S15064   3.045   5.784   8.289  0.1693  1.2515 -0.5762
  138OSM   H18T15065   2.937   5.638   8.269 -0.8999  0.1186 -1.3453
  138OSM   H18U15066   2.886   5.776   8.365  0.4127 -0.8127  1.1129
  138OSM    C1F15067   2.337   5.576   6.755  0.8661 -0.1029 -0.8740
  138OSM     OF15068   2.350   5.461   6.716  0.3857 -0.2163 -0.6095
  138OSM    C2F15069   2.244   5.611   6.867 -0.4437 -0.4461 -0.5804
  138OSM    H2F15070   2.142   5.571   6.847 -0.8301  0.0226  0.3884
  138OSM    H2G15071   2.227   5.721   6.870  1.5339 -0.1309  0.2931
  138OSM    C3F15072   2.288   5.559   7.009  0.3698  0.6658  0.1898
  138OSM    H3F15073   2.387   5.603   7.031  1.0904 -0.4244 -0.7405
  138OSM    H3G15074   2.290   5.449   6.992  0.5311  0.7994 -0.7269
  138OSM    C4F15075   2.189   5.572   7.127  0.0171  0.0035  0.5400
  138OSM    H4F15076   2.165   5.680   7.138 -0.8731 -0.0912 -0.2736
  138OSM    H4G15077   2.247   5.540   7.216 -3.4739 -1.7283  2.3897
  138OSM    C5F15078   2.058   5.488   7.129 -0.3886 -0.0017  0.0415
  138OSM    H5F15079   2.075   5.381   7.151  0.0529 -0.5195 -2.5727
  138OSM    H5G15080   2.019   5.482   7.026 -3.3799 -1.8959  1.1591
  138OSM    C6F15081   1.949   5.543   7.229  0.3357  0.3107  0.0268
  138OSM    H6F15082   1.864   5.472   7.229 -0.5516  1.3424 -0.5540
  138OSM    H6G15083   1.909   5.643   7.202 -1.8877 -0.8483 -1.1928
  138OSM    C7F15084   2.005   5.563   7.374 -0.2931  0.2949  0.3610
  138OSM    H7F15085   1.925   5.619   7.426  2.3319  4.5660  0.2185
  138OSM    H7G15086   2.091   5.632   7.378 -0.9462  1.3188 -1.7820
  138OSM    C8F15087   2.052   5.433   7.441  0.8449 -0.1316 -0.1654
  138OSM    H8F15088   2.111   5.453   7.533 -0.7201  1.0297  0.6222
  138OSM    H8G15089   2.118   5.388   7.364 -1.0650  0.0110 -1.9752
  138OSM    C9F15090   1.936   5.336   7.467 -0.4508 -0.3444  0.5539
  138OSM    H9F15091   1.904   5.271   7.385  0.0350 -0.1064  0.1677
  138OSM   C10F15092   1.877   5.321   7.592 -0.6253  0.6466  0.0078
  138OSM   H10F15093   1.799   5.245   7.609  2.3087 -2.3429  1.5240
  138OSM   C11F15094   1.913   5.391   7.715  0.2768  0.6150 -0.3394
  138OSM   H11F15095   1.854   5.485   7.722  1.8270  1.7398 -1.5729
  138OSM   H11G15096   2.009   5.446   7.723 -0.7224  2.3500  0.3485
  138OSM   C12F15097   1.892   5.291   7.827 -0.1502 -0.1324  0.8044
  138OSM   H12F15098   1.963   5.207   7.815 -1.2739 -0.7612 -2.8272
  138OSM   H12G15099   1.789   5.251   7.837  0.2568 -0.9617  1.7968
  138OSM   C13F15100   1.926   5.365   7.954  0.3311 -0.0648 -0.4205
  138OSM   H13F15101   1.882   5.465   7.972  0.5417  0.1816 -1.2574
  138OSM   H13G15102   2.034   5.385   7.939  0.4827 -1.6889 -1.8717
  138OSM   C14F15103   1.894   5.289   8.087 -0.6899 -0.2280  0.2572
  138OSM   H14F15104   1.930   5.185   8.072  1.3392  0.4390  0.2498
  138OSM   H14G15105   1.788   5.285   8.120 -0.1164  1.5428  2.6386
  138OSM   C15F15106   1.970   5.355   8.207  0.3829 -0.6552  0.4683
  138OSM   H15F15107   1.954   5.463   8.227 -2.3426 -0.8491 -0.2326
  138OSM   H15G15108   2.079   5.346   8.186  0.3486 -0.4466  0.1872
  138OSM   C16F15109   1.956   5.276   8.335  0.6629 -0.1606 -0.3778
  138OSM   H16F15110   1.962   5.166   8.331 -0.1763 -0.2817  0.8282
  138OSM   H16G15111   1.851   5.285   8.371  1.0215  0.1294  0.6364
  138OSM   C17F15112   2.059   5.309   8.440 -0.0232  0.7563 -0.1928
  138OSM   H17F15113   2.045   5.418   8.455  1.9187  0.9221  0.6355
  138OSM   H17G15114   2.161   5.291   8.399 -0.3783 -0.2461 -0.6793
  138OSM   C18F15115   2.045   5.231   8.570 -0.1599 -0.2639  0.3044
  138OSM   H18F15116   2.139   5.239   8.629  0.0841 -0.0586 -0.1054
  138OSM   H18G15117   2.018   5.124   8.555 -1.8160 -0.2198  2.4835
  138OSM   H18H15118   1.975   5.282   8.639  1.8847  0.0693  2.2500
  139OSM      N15119   1.298   5.587   6.180  0.3380  0.8558  0.1064
  139OSM    C1515120   1.195   5.494   6.248 -0.0885  0.1826 -1.4781
  139OSM   H15A15121   1.231   5.478   6.348 -2.1955  0.2124 -0.6743
  139OSM   H15B15122   1.183   5.392   6.215  1.0696 -1.2797  2.1262
  139OSM   H15C15123   1.099   5.542   6.259 -0.7192 -1.3444 -0.0375
  139OSM    C1415124   1.435   5.529   6.177 -0.0229 -0.1030  0.0214
  139OSM   H14A15125   1.508   5.592   6.127 -1.6722  2.0394  0.1967
  139OSM   H14B15126   1.435   5.442   6.112 -0.5855  0.3799 -0.6491
  139OSM   H14C15127   1.477   5.513   6.275  1.8668 -0.5502 -0.8149
  139OSM    C1315128   1.239   5.596   6.044  0.5413  0.3527  0.1700
  139OSM   H13A15129   1.259   5.507   5.987 -1.7833  0.5743 -1.1267
  139OSM   H13B15130   1.283   5.688   6.005  2.3385 -0.0814  1.0447
  139OSM   H13C15131   1.133   5.607   6.055  0.3835 -0.7549 -0.1786
  139OSM    C1215132   1.296   5.724   6.249  0.1766 -0.4939  0.0838
  139OSM   H12A15133   1.196   5.764   6.248  0.3821  0.0760  0.9225
  139OSM   H12B15134   1.357   5.794   6.194 -0.0670  0.5544  1.0853
  139OSM    C1115135   1.350   5.720   6.402 -0.3699 -0.8212  0.2583
  139OSM   H11A15136   1.290   5.643   6.454 -2.6387  0.2067 -0.7113
  139OSM   H11B15137   1.329   5.823   6.438  0.3979 -0.6267  0.1651
  139OSM      P15138   1.590   5.791   6.363  0.1980 -0.0996  0.1841
  139OSM    O1315139   1.724   5.726   6.328 -0.8335  0.3025 -0.2370
  139OSM    O1415140   1.524   5.877   6.260  0.0380  0.6704  0.1259
  139OSM    O1115141   1.612   5.884   6.493 -0.0808  0.2314 -0.7065
  139OSM    O1215142   1.489   5.687   6.417  0.2312  0.0276 -0.2253
  139OSM    C1S15143   1.652   5.824   6.617 -0.4816 -0.2917  0.6284
  139OSM    H1S15144   1.761   5.804   6.615  0.3572  3.3659 -2.3353
  139OSM    H1T15145   1.583   5.741   6.643 -1.2452  0.1803  0.1592
  139OSM     NF15146   1.696   5.891   6.852  0.6559 -0.4529 -0.7980
  139OSM    HNF15147   1.640   5.862   6.929  0.4084  0.2061 -0.7237
  139OSM    C2S15148   1.628   5.931   6.733 -0.3285 -0.3302 -0.4514
  139OSM    H2S15149   1.673   6.022   6.687 -0.2276 -0.4855 -0.6594
  139OSM    C3S15150   1.474   5.947   6.752 -0.3266 -0.3327 -0.4002
  139OSM    H3S15151   1.432   5.845   6.769 -1.0646  0.2872  1.7683
  139OSM     O315152   1.406   6.006   6.644  0.1463 -0.2226 -0.3433
  139OSM    HO315153   1.470   5.989   6.574  2.1377  0.7480  1.1194
  139OSM    C4S15154   1.450   6.030   6.883  1.1358 -0.5532  1.3697
  139OSM    H4S15155   1.387   5.984   6.960 -1.6527  0.5792 -0.0880
  139OSM    C5S15156   1.469   6.158   6.903 -1.1567  0.2419 -0.9213
  139OSM    H5S15157   1.528   6.213   6.828  2.1252 -0.3306  1.0550
  139OSM    C6S15158   1.453   6.231   7.029  0.5797  0.1286 -0.1820
  139OSM    H6S15159   1.368   6.303   7.026  1.6105  1.6804  2.8605
  139OSM    H6T15160   1.549   6.278   7.059  0.6476  2.0810 -3.0833
  139OSM    C7S15161   1.413   6.133   7.149  0.1945 -0.2874 -1.2370
  139OSM    H7S15162   1.487   6.050   7.157  0.7186  0.2598 -0.2605
  139OSM    H7T15163   1.312   6.097   7.120  0.9963 -1.5351 -2.6454
  139OSM    C8S15164   1.424   6.206   7.284 -0.3791  0.0084  0.1729
  139OSM    H8S15165   1.344   6.282   7.287 -1.5956 -1.2629  1.5301
  139OSM    H8T15166   1.528   6.244   7.287 -0.3659  0.0941 -0.9662
  139OSM    C9S15167   1.417   6.098   7.388  0.4170  0.0298 -0.3833
  139OSM    H9S15168   1.510   6.039   7.374  0.8588  1.1460 -2.6968
  139OSM    H9T15169   1.324   6.039   7.377  0.3271 -0.3546  1.9635
  139OSM   C10S15170   1.438   6.149   7.534 -0.5053 -0.6369  0.4070
  139OSM   H10S15171   1.371   6.237   7.548  2.2989  1.5167  1.2904
  139OSM   H10T15172   1.536   6.199   7.546 -0.3826 -1.2697  2.3798
  139OSM   C11S15173   1.415   6.048   7.646  0.7320  0.1049 -0.1888
  139OSM   H11S15174   1.473   5.954   7.635 -0.6447 -0.5396 -2.9319
  139OSM   H11T15175   1.306   6.027   7.640  0.3008  1.4188  1.9149
  139OSM   C12S15176   1.436   6.110   7.785  0.2296 -0.2865 -0.8251
  139OSM   H12S15177   1.367   6.194   7.805  1.7746  0.9424 -0.4133
  139OSM   H12T15178   1.545   6.135   7.783  0.7391 -2.0002  1.0114
  139OSM   C13S15179   1.410   6.013   7.890  0.3116  0.7440 -0.4015
  139OSM   H13S15180   1.468   5.918   7.878 -1.7130 -0.7654  1.0515
  139OSM   H13T15181   1.301   5.990   7.887 -0.3508  3.4168  0.4069
  139OSM   C14S15182   1.449   6.074   8.030 -0.5148  0.0901 -0.1284
  139OSM   H14S15183   1.387   6.164   8.049  0.2526  0.4959  0.5389
  139OSM   H14T15184   1.554   6.113   8.026 -1.2618  2.1407 -1.6058
  139OSM   C15S15185   1.436   5.981   8.146  0.1212  1.0005 -0.3516
  139OSM   H15S15186   1.471   6.028   8.240  0.5347 -0.9162  0.5205
  139OSM   H15T15187   1.508   5.900   8.120  1.0702  1.6394  0.2271
  139OSM   C16S15188   1.297   5.914   8.167 -0.2422  0.2231  0.4166
  139OSM   H16S15189   1.268   5.878   8.067  0.2503  0.8417  0.0402
  139OSM   H16T15190   1.224   5.990   8.201 -1.0102 -0.4081  0.1955
  139OSM   C17S15191   1.301   5.795   8.256 -0.1241 -0.2321 -0.1109
  139OSM   H17S15192   1.375   5.719   8.221 -0.0910  0.2609 -1.1445
  139OSM   H17T15193   1.204   5.747   8.232  0.6672 -0.5757 -2.9581
  139OSM   C18S15194   1.321   5.821   8.405 -0.2474 -0.1206 -0.2671
  139OSM   H18S15195   1.320   5.724   8.458 -0.5029  0.2637  0.4481
  139OSM   H18T15196   1.235   5.883   8.438 -0.6598  0.2228 -1.8931
  139OSM   H18U15197   1.419   5.867   8.431 -0.6844  1.3693 -1.1604
  139OSM    C1F15198   1.829   5.889   6.870 -0.5673 -0.0864  0.5786
  139OSM     OF15199   1.905   5.941   6.791  0.0529 -0.0402 -0.4093
  139OSM    C2F15200   1.887   5.817   6.991  0.3299 -0.0114  0.3773
  139OSM    H2F15201   1.980   5.766   6.959  1.1764  2.3982 -1.2538
  139OSM    H2G15202   1.823   5.734   7.029  1.4421 -0.2968  1.7383
  139OSM    C3F15203   1.918   5.920   7.098  0.0346 -0.3679 -0.4190
  139OSM    H3F15204   1.960   6.016   7.063 -0.7681  0.2230  0.2117
  139OSM    H3G15205   1.986   5.866   7.167 -0.8951 -1.9491 -0.6882
  139OSM    C4F15206   1.785   5.950   7.182 -0.4876  0.2421 -0.4338
  139OSM    H4F15207   1.761   5.854   7.232  0.5071 -0.9999 -2.2368
  139OSM    H4G15208   1.697   5.959   7.113 -1.4993 -1.3355  0.5920
  139OSM    C5F15209   1.807   6.058   7.284 -0.2402 -0.0451  0.1670
  139OSM    H5F15210   1.728   6.049   7.361  0.0454 -1.0139  0.3550
  139OSM    H5G15211   1.793   6.157   7.235 -0.8830  0.1220  0.6713
  139OSM    C6F15212   1.938   6.056   7.367 -0.6284 -0.2006  0.5268
  139OSM    H6F15213   1.943   6.158   7.410  1.2998  0.1729 -0.4708
  139OSM    H6G15214   2.027   6.052   7.301 -1.7479  1.6069 -1.2009
  139OSM    C7F15215   1.950   5.938   7.464 -0.0202  0.1653 -0.0974
  139OSM    H7F15216   1.975   5.850   7.402 -0.2149 -0.9198  1.2913
  139OSM    H7G15217   1.852   5.919   7.514 -0.2779 -1.3755 -1.0879
  139OSM    C8F15218   2.063   5.973   7.564 -0.5107 -0.4772  0.0679
  139OSM    H8F15219   2.034   6.064   7.620  0.4375  0.8754 -1.5413
  139OSM    H8G15220   2.142   6.018   7.500 -1.0997  0.9164  0.2966
  139OSM    C9F15221   2.108   5.854   7.647 -0.2267 -0.8866 -0.3835
  139OSM    H9F15222   2.137   5.772   7.580 -1.1816  0.5535 -2.6897
  139OSM   C10F15223   2.126   5.849   7.777 -0.5038  0.7922  0.9471
  139OSM   H10F15224   2.124   5.752   7.828 -0.4839  1.4859  2.3147
  139OSM   C11F15225   2.120   5.965   7.875  0.0739  0.4559  0.4316
  139OSM   H11F15226   2.111   6.058   7.815  2.0389 -0.7423 -1.9202
  139OSM   H11G15227   2.210   5.973   7.939 -1.1430  0.8396  2.1529
  139OSM   C12F15228   1.993   5.956   7.971  0.6682 -0.5964 -0.1443
  139OSM   H12F15229   1.914   5.985   7.899  0.2597 -0.4685  0.3533
  139OSM   H12G15230   2.018   6.034   8.046 -0.1054 -0.6745  0.2057
  139OSM   C13F15231   1.966   5.820   8.037  0.7934 -0.4509  0.0683
  139OSM   H13F15232   2.061   5.791   8.086  1.9901  0.7663 -1.4032
  139OSM   H13G15233   1.929   5.744   7.964  0.9186 -0.7662  0.3337
  139OSM   C14F15234   1.855   5.829   8.148  0.0898 -0.0184 -0.0816
  139OSM   H14F15235   1.765   5.855   8.089  0.5777  0.1484 -0.7660
  139OSM   H14G15236   1.873   5.915   8.217 -1.7946  0.9709 -0.7550
  139OSM   C15F15237   1.836   5.687   8.210 -0.9573 -0.2640 -0.2252
  139OSM   H15F15238   1.933   5.665   8.260 -1.0729 -0.0522  0.0861
  139OSM   H15G15239   1.830   5.619   8.122  0.1263  2.2465 -2.3529
  139OSM   C16F15240   1.723   5.691   8.314 -0.6135  0.4613  0.5428
  139OSM   H16F15241   1.636   5.746   8.273 -1.0768  0.6733  1.7858
  139OSM   H16G15242   1.760   5.741   8.406  1.1378  0.8473 -0.3165
  139OSM   C17F15243   1.694   5.550   8.374  0.6997 -0.1097 -0.2087
  139OSM   H17F15244   1.786   5.512   8.422  1.6109 -1.4163 -2.8144
  139OSM   H17G15245   1.667   5.480   8.292  0.8993 -0.6832  0.2115
  139OSM   C18F15246   1.579   5.564   8.477 -0.3777 -0.0678 -0.2755
  139OSM   H18F15247   1.478   5.583   8.435  0.9974  3.9023 -2.2318
  139OSM   H18G15248   1.599   5.646   8.550  3.5824 -0.4375 -0.7304
  139OSM   H18H15249   1.579   5.472   8.540 -1.6135 -0.6438 -1.0812
  140OSM      N15250   1.839   2.407   6.574 -1.2877 -0.2310 -0.3164
  140OSM    C1515251   1.848   2.447   6.712  0.0569 -0.8009 -0.8078
  140OSM   H15A15252   1.947   2.461   6.753  0.2071  0.3896 -1.5070
  140OSM   H15B15253   1.804   2.372   6.776 -3.7969  0.3408 -1.8231
  140OSM   H15C15254   1.793   2.540   6.721  0.9665 -0.3760  0.8160
  140OSM    C1415255   1.698   2.373   6.549  0.9222 -0.0989 -0.2431
  140OSM   H14A15256   1.658   2.305   6.622  0.7898 -1.5392 -1.6021
  140OSM   H14B15257   1.681   2.321   6.456 -0.9743 -0.4588  0.2633
  140OSM   H14C15258   1.635   2.461   6.541  0.5558 -0.2712  0.6770
  140OSM    C1315259   1.876   2.515   6.479  0.0545 -0.0171  0.1455
  140OSM   H13A15260   1.799   2.591   6.468  1.2251  1.0524 -0.9561
  140OSM   H13B15261   1.909   2.483   6.381  0.3472  3.5218 -1.0775
  140OSM   H13C15262   1.952   2.581   6.519 -0.0287  0.2370 -0.1108
  140OSM    C1215263   1.931   2.291   6.555 -1.0092  0.6762 -0.0992
  140OSM   H12A15264   1.914   2.207   6.622 -3.1489  0.2235 -1.1178
  140OSM   H12B15265   2.031   2.328   6.574 -0.8648 -1.0907  3.5079
  140OSM    C1115266   1.940   2.222   6.408 -0.1018  0.3105 -0.5425
  140OSM   H11A15267   1.999   2.291   6.344  0.0363  0.9637  0.2684
  140OSM   H11B15268   1.836   2.217   6.370 -0.3722 -0.7398  0.2885
  140OSM      P15269   2.164   2.095   6.439 -0.6246  0.1466  0.0520
  140OSM    O1315270   2.214   1.956   6.421  0.6654 -0.1327 -0.6107
  140OSM    O1415271   2.236   2.195   6.354 -0.4612 -0.5973  0.0114
  140OSM    O1115272   2.170   2.125   6.602 -0.4191 -1.1243 -0.4111
  140OSM    O1215273   2.010   2.095   6.415 -0.3731 -0.6097 -0.6068
  140OSM    C1S15274   2.114   2.025   6.686  0.3517  0.4559  0.0580
  140OSM    H1S15275   2.145   1.925   6.649  0.1622  1.0597 -1.8843
  140OSM    H1T15276   2.003   2.023   6.679  0.2941 -1.0261  0.9674
  140OSM     NF15277   2.128   1.919   6.908 -0.4990 -0.3142 -0.9974
  140OSM    HNF15278   2.049   1.917   6.968  0.4432  1.9971  0.4679
  140OSM    C2S15279   2.154   2.041   6.830 -0.3219 -0.6351 -0.7122
  140OSM    H2S15280   2.264   2.053   6.841 -0.0648 -2.9514 -0.1419
  140OSM    C3S15281   2.090   2.175   6.899 -0.2038 -0.6206  0.5635
  140OSM    H3S15282   1.979   2.169   6.889 -0.0155 -1.6180 -1.4304
  140OSM     O315283   2.125   2.293   6.819  0.2005 -0.1274  0.3245
  140OSM    HO315284   2.160   2.249   6.741 -2.1399  0.0667 -0.9359
  140OSM    C4S15285   2.136   2.185   7.043 -0.1220 -0.2670  0.2492
  140OSM    H4S15286   2.084   2.119   7.114 -0.1745  1.3071  1.7590
  140OSM    C5S15287   2.232   2.266   7.096  0.3166  0.1277  0.0609
  140OSM    H5S15288   2.284   2.332   7.026  0.4113 -1.3975 -1.3837
  140OSM    C6S15289   2.278   2.284   7.238  0.4423 -0.4732 -0.1247
  140OSM    H6S15290   2.269   2.386   7.280 -1.5078  0.6520 -2.9225
  140OSM    H6T15291   2.388   2.273   7.236  0.5225  0.3021  0.0482
  140OSM    C7S15292   2.234   2.176   7.342  0.0716  0.0303 -0.0658
  140OSM    H7S15293   2.264   2.077   7.301 -0.9242 -0.9469  1.4655
  140OSM    H7T15294   2.122   2.173   7.344  0.0454  0.7465 -0.3264
  140OSM    C8S15295   2.278   2.194   7.489 -0.0523 -1.0356  0.4176
  140OSM    H8S15296   2.220   2.279   7.529 -2.4555 -2.7868  0.8981
  140OSM    H8T15297   2.386   2.218   7.503 -0.7650  1.8616  1.5655
  140OSM    C9S15298   2.224   2.086   7.575 -0.4958 -0.5325  0.4426
  140OSM    H9S15299   2.291   1.998   7.587  0.2395 -0.1356 -0.6291
  140OSM    H9T15300   2.118   2.061   7.551 -2.0359  3.8879  1.6620
  140OSM   C10S15301   2.216   2.144   7.722  0.0231 -0.3063  1.1211
  140OSM   H10S15302   2.132   2.087   7.767 -1.2344  0.7852  0.2266
  140OSM   H10T15303   2.192   2.252   7.711  2.8080  0.1280 -2.4402
  140OSM   C11S15304   2.341   2.128   7.816  0.0305  0.6040 -0.0647
  140OSM   H11S15305   2.430   2.183   7.778  1.3313 -2.0443 -1.1652
  140OSM   H11T15306   2.366   2.020   7.811 -1.7630  0.0366  1.9228
  140OSM   C12S15307   2.307   2.155   7.964 -0.5722 -0.3514  0.4060
  140OSM   H12S15308   2.201   2.126   7.979 -1.9364  2.7078 -1.9935
  140OSM   H12T15309   2.302   2.265   7.981 -0.3450 -0.4387  1.0319
  140OSM   C13S15310   2.406   2.097   8.070  0.4972 -0.0562  0.1050
  140OSM   H13S15311   2.506   2.129   8.034  0.0276  0.3763 -0.8476
  140OSM   H13T15312   2.399   1.987   8.062 -3.6792 -0.0663  1.0582
  140OSM   C14S15313   2.369   2.134   8.214  0.3528 -0.8199 -0.3392
  140OSM   H14S15314   2.330   2.237   8.229  3.1399  0.1137  1.3186
  140OSM   H14T15315   2.462   2.111   8.270  1.5530  1.4927 -1.2689
  140OSM   C15S15316   2.260   2.039   8.275 -0.3676  0.2670  0.2964
  140OSM   H15S15317   2.273   1.939   8.229 -1.3575 -0.4634  1.5311
  140OSM   H15T15318   2.157   2.073   8.250  0.3965  1.1101 -1.9234
  140OSM   C16S15319   2.269   2.010   8.423 -0.1465  0.0341  0.0669
  140OSM   H16S15320   2.299   2.113   8.454  0.7492  0.2452 -1.3944
  140OSM   H16T15321   2.361   1.955   8.451  0.7902  1.2529 -0.4868
  140OSM   C17S15322   2.132   1.971   8.472  0.4525  0.3962  0.2363
  140OSM   H17S15323   2.111   1.866   8.445 -1.8953  1.2625 -1.7805
  140OSM   H17T15324   2.044   2.020   8.424 -0.1028 -0.2190  0.6117
  140OSM   C18S15325   2.114   1.997   8.622  0.4517 -0.2702  0.1643
  140OSM   H18S15326   2.104   2.107   8.630 -2.9783 -0.4924  0.4446
  140OSM   H18T15327   2.203   1.960   8.678  0.3758 -0.9823 -0.1699
  140OSM   H18U15328   2.026   1.945   8.666  0.3077 -1.6261 -1.5793
  140OSM    C1F15329   2.196   1.810   6.886  0.2032  0.1119  0.1624
  140OSM     OF15330   2.296   1.822   6.815  0.3311  0.0957  0.1783
  140OSM    C2F15331   2.132   1.683   6.931 -0.1691  0.2129 -0.0312
  140OSM    H2F15332   2.187   1.592   6.901 -1.0329 -0.2344 -0.2934
  140OSM    H2G15333   2.024   1.684   6.906 -0.4583  1.7489  1.1420
  140OSM    C3F15334   2.114   1.672   7.087 -0.8003  0.6397 -0.1193
  140OSM    H3F15335   2.054   1.579   7.101  0.4006 -0.1117  0.1811
  140OSM    H3G15336   2.063   1.763   7.123 -1.0957  0.0703  0.9769
  140OSM    C4F15337   2.246   1.674   7.173  0.9473 -0.2130 -0.2640
  140OSM    H4F15338   2.321   1.749   7.138 -0.0658  0.5779 -0.8421
  140OSM    H4G15339   2.302   1.579   7.162  1.9077  0.3715 -0.6086
  140OSM    C5F15340   2.216   1.697   7.314  0.0221  0.6372 -0.4345
  140OSM    H5F15341   2.180   1.798   7.342  0.9160  0.7869  0.2445
  140OSM    H5G15342   2.309   1.669   7.368 -1.9150 -0.4453  2.5850
  140OSM    C6F15343   2.120   1.593   7.383 -0.1972  0.1460  0.0520
  140OSM    H6F15344   2.141   1.500   7.325  1.9423 -0.0113  0.9790
  140OSM    H6G15345   2.020   1.639   7.365 -1.5483 -2.3945  0.5827
  140OSM    C7F15346   2.141   1.573   7.537 -0.8791  0.1101 -0.0049
  140OSM    H7F15347   2.145   1.673   7.586  0.7787  0.3846 -0.6642
  140OSM    H7G15348   2.250   1.553   7.541 -0.6556  1.4450  2.2052
  140OSM    C8F15349   2.053   1.467   7.594  0.8881 -0.3636  0.1318
  140OSM    H8F15350   1.948   1.502   7.594  0.4827 -1.4845 -0.7680
  140OSM    H8G15351   2.089   1.436   7.694  3.1126  0.5402 -0.3150
  140OSM    C9F15352   2.053   1.345   7.501 -0.3428  0.3274  0.6657
  140OSM    H9F15353   1.973   1.339   7.426  0.7308  0.9237 -0.5751
  140OSM   C10F15354   2.145   1.248   7.502 -0.9882  0.8597 -0.2830
  140OSM   H10F15355   2.138   1.157   7.441 -0.7094  0.5833  0.1003
  140OSM   C11F15356   2.267   1.240   7.595 -0.0069 -0.0675 -0.0957
  140OSM   H11F15357   2.289   1.337   7.645 -1.1473  0.6847 -1.0036
  140OSM   H11G15358   2.364   1.210   7.550 -0.7738  0.1466 -1.9839
  140OSM   C12F15359   2.237   1.141   7.705 -0.1004  0.1054 -0.2201
  140OSM   H12F15360   2.246   1.040   7.660  3.6165  0.3800 -0.3286
  140OSM   H12G15361   2.139   1.158   7.755 -0.1368  1.4365 -0.6985
  140OSM   C13F15362   2.340   1.147   7.813  0.0882  0.4994  0.5546
  140OSM   H13F15363   2.319   1.241   7.867  1.6572 -0.8285  3.7358
  140OSM   H13G15364   2.444   1.142   7.773 -0.2634  0.8007 -0.4193
  140OSM   C14F15365   2.324   1.032   7.925 -0.5228 -0.7464  0.2694
  140OSM   H14F15366   2.222   1.027   7.968 -0.1708  0.5056  1.2905
  140OSM   H14G15367   2.391   1.070   8.006  1.3619  1.1136 -2.0062
  140OSM   C15F15368   2.375   0.899   7.885 -0.5241  0.0629  0.6081
  140OSM   H15F15369   2.466   0.928   7.828  0.6583 -1.7632  1.4744
  140OSM   H15G15370   2.305   0.856   7.810  0.6678  0.8968 -1.0577
  140OSM   C16F15371   2.404   0.810   8.001  0.0090  0.6369 -0.2042
  140OSM   H16F15372   2.479   0.849   8.073 -0.0679  0.8803 -0.2520
  140OSM   H16G15373   2.455   0.725   7.952 -1.4696  0.9802 -2.5067
  140OSM   C17F15374   2.279   0.754   8.070  0.0630  0.2505  0.0611
  140OSM   H17F15375   2.202   0.721   7.997 -0.7584  3.3387 -0.6010
  140OSM   H17G15376   2.237   0.847   8.112 -2.4128 -1.1297  0.8641
  140OSM   C18F15377   2.321   0.649   8.165  0.5844  0.4366 -0.1015
  140OSM   H18F15378   2.351   0.558   8.110 -0.0499  0.2861 -0.2131
  140OSM   H18G15379   2.236   0.621   8.231 -0.9281  2.3066 -1.1334
  140OSM   H18H15380   2.402   0.690   8.230 -0.7265  1.0077  1.2469
  141OSM      N15381   0.412   3.017   6.190 -0.1286  0.0976 -0.2992
  141OSM    C1515382   0.360   3.093   6.071 -0.3020  0.5881 -0.6868
  141OSM   H15A15383   0.304   3.023   6.011  0.5973  0.8170 -1.8259
  141OSM   H15B15384   0.430   3.132   5.998 -0.3757  1.9765 -0.0555
  141OSM   H15C15385   0.297   3.174   6.105  1.5129  2.4555 -1.5774
  141OSM    C1415386   0.305   2.981   6.284  0.5511 -0.0267  0.2635
  141OSM   H14A15387   0.277   3.070   6.338  2.1034 -0.4436  1.8707
  141OSM   H14B15388   0.333   2.910   6.361  0.8117 -2.4424 -1.9235
  141OSM   H14C15389   0.213   2.942   6.242  1.2129 -3.5727  1.7083
  141OSM    C1315390   0.476   2.886   6.130  0.1894  0.0143 -0.4796
  141OSM   H13A15391   0.399   2.820   6.092  0.6785 -1.7230  1.3187
  141OSM   H13B15392   0.520   2.840   6.217  0.7553  2.7938  0.8043
  141OSM   H13C15393   0.557   2.912   6.065  0.3753  1.0603  0.1432
  141OSM    C1215394   0.521   3.103   6.248 -0.0538 -0.1703 -0.2315
  141OSM   H12A15395   0.475   3.197   6.275 -1.1284 -0.6623 -0.3052
  141OSM   H12B15396   0.597   3.121   6.174  0.8704 -0.7904  0.5490
  141OSM    C1115397   0.585   3.062   6.379 -0.2250  0.1316  0.4305
  141OSM   H11A15398   0.648   2.971   6.364  0.1692  0.4411  0.2013
  141OSM   H11B15399   0.502   3.042   6.451 -2.0354  0.3276 -1.4890
  141OSM      P15400   0.807   3.191   6.359 -0.0630 -0.4481 -0.4928
  141OSM    O1315401   0.812   3.140   6.218 -0.0958  0.5816  0.0138
  141OSM    O1415402   0.851   3.330   6.374  0.5550 -0.9961  0.3402
  141OSM    O1115403   0.898   3.103   6.447 -0.1661  0.3365  0.0007
  141OSM    O1215404   0.655   3.178   6.424 -0.5466  0.6037 -0.1293
  141OSM    C1S15405   0.932   3.144   6.579 -0.0557  0.5979 -1.1624
  141OSM    H1S15406   0.938   3.255   6.588  1.4161  0.7093 -3.0609
  141OSM    H1T15407   1.035   3.113   6.605 -1.2199 -2.8421 -0.0999
  141OSM     NF15408   0.864   3.155   6.821 -0.3645 -0.0425  0.0957
  141OSM    HNF15409   0.910   3.114   6.900 -1.1056  0.0005  0.5711
  141OSM    C2S15410   0.847   3.083   6.693 -0.1419  0.4968 -0.1725
  141OSM    H2S15411   0.745   3.108   6.658 -0.1681  0.9298  0.1940
  141OSM    C3S15412   0.874   2.933   6.686 -0.9733  0.9701 -0.1247
  141OSM    H3S15413   0.980   2.905   6.709 -1.5098 -2.4707 -1.2256
  141OSM     O315414   0.870   2.870   6.557 -0.1436 -0.2186 -0.2916
  141OSM    HO315415   0.837   2.936   6.496 -0.7881  0.7509  1.0564
  141OSM    C4S15416   0.789   2.853   6.779 -0.2076 -0.3979 -0.4526
  141OSM    H4S15417   0.822   2.854   6.884  3.3053  0.5759 -1.4464
  141OSM    C5S15418   0.666   2.801   6.746 -0.7410  0.4105  0.3508
  141OSM    H5S15419   0.635   2.804   6.640 -0.4166 -1.4653  0.1709
  141OSM    C6S15420   0.568   2.733   6.841 -0.0810  0.2504 -0.0777
  141OSM    H6S15421   0.554   2.624   6.820  0.9996 -0.1667  1.2194
  141OSM    H6T15422   0.471   2.787   6.839 -0.0078  0.4154 -2.7522
  141OSM    C7S15423   0.612   2.742   6.987  0.1818  0.5340  0.5889
  141OSM    H7S15424   0.637   2.846   7.018 -0.1484  0.6473  0.4707
  141OSM    H7T15425   0.706   2.685   7.006  0.1563  1.3982  3.8172
  141OSM    C8S15426   0.496   2.697   7.082 -0.2653 -0.2062  0.9409
  141OSM    H8S15427   0.487   2.587   7.073  0.5737 -0.2455  0.4577
  141OSM    H8T15428   0.402   2.743   7.046  0.0811  0.4327  0.8207
  141OSM    C9S15429   0.525   2.727   7.229 -0.3903  0.1755 -0.6212
  141OSM    H9S15430   0.537   2.838   7.227 -3.1892  0.5472 -1.4424
  141OSM    H9T15431   0.618   2.677   7.263 -0.4444  0.9471  0.7745
  141OSM   C10S15432   0.415   2.689   7.330  0.4560 -0.6464 -0.6462
  141OSM   H10S15433   0.404   2.579   7.320  0.2450 -0.7749  0.7139
  141OSM   H10T15434   0.319   2.737   7.301  0.4744  0.6187  1.1651
  141OSM   C11S15435   0.454   2.714   7.479 -0.4557  0.1709 -0.5816
  141OSM   H11S15436   0.478   2.819   7.509  1.2448 -0.3180 -0.0953
  141OSM   H11T15437   0.541   2.649   7.501 -1.2370 -0.9327 -0.6614
  141OSM   C12S15438   0.345   2.659   7.574 -0.0512 -0.6110  0.6182
  141OSM   H12S15439   0.347   2.550   7.554  1.1679 -0.5363  0.2979
  141OSM   H12T15440   0.241   2.691   7.549  0.1938  0.5136  0.9918
  141OSM   C13S15441   0.379   2.663   7.727  0.1505 -0.5558  0.1537
  141OSM   H13S15442   0.406   2.768   7.754  0.0221 -0.0775 -1.4947
  141OSM   H13T15443   0.464   2.595   7.751  0.5009 -0.2235 -0.1279
  141OSM   C14S15444   0.272   2.621   7.820 -0.4603 -0.7337  0.0849
  141OSM   H14S15445   0.236   2.517   7.805 -0.7515 -0.5593 -0.4643
  141OSM   H14T15446   0.186   2.691   7.814  0.9502  1.1788  0.9737
  141OSM   C15S15447   0.315   2.618   7.964 -0.7223  0.7870  0.1742
  141OSM   H15S15448   0.377   2.708   7.982 -0.5041  1.0040 -1.5483
  141OSM   H15T15449   0.381   2.529   7.969  0.2163  1.5178  1.7109
  141OSM   C16S15450   0.196   2.604   8.062 -1.4402  0.1128  0.2169
  141OSM   H16S15451   0.152   2.504   8.044  1.4065 -1.0202 -0.8194
  141OSM   H16T15452   0.124   2.688   8.047 -0.6837  0.3206 -2.9612
  141OSM   C17S15453   0.238   2.594   8.213 -0.0295  0.5307  0.3044
  141OSM   H17S15454   0.313   2.515   8.237 -1.6464 -1.3364 -0.4272
  141OSM   H17T15455   0.144   2.574   8.270 -1.3687 -1.2094 -2.3140
  141OSM   C18S15456   0.294   2.728   8.266 -0.6397  0.0562  0.2906
  141OSM   H18S15457   0.306   2.712   8.376 -0.8435 -0.2797  0.2649
  141OSM   H18T15458   0.225   2.814   8.254 -1.9358 -0.6488  2.2140
  141OSM   H18U15459   0.392   2.747   8.218 -0.7445 -0.7644 -0.2613
  141OSM    C1F15460   0.817   3.280   6.836  0.7146  0.0070  0.1790
  141OSM     OF15461   0.718   3.319   6.768  0.1190 -0.0037  0.3070
  141OSM    C2F15462   0.870   3.354   6.954  0.5122 -0.3366 -0.8892
  141OSM    H2F15463   0.884   3.460   6.924 -0.0094 -0.4319 -1.4770
  141OSM    H2G15464   0.954   3.300   7.002 -1.4229 -0.9692  2.0904
  141OSM    C3F15465   0.762   3.366   7.067 -0.0711 -0.3439  0.3874
  141OSM    H3F15466   0.713   3.270   7.093 -2.3815  0.0251 -2.2733
  141OSM    H3G15467   0.675   3.423   7.030  0.0097 -1.7168 -2.1111
  141OSM    C4F15468   0.819   3.436   7.190 -0.4085  0.4779 -0.3623
  141OSM    H4F15469   0.844   3.541   7.163 -0.3826  0.7054  0.5010
  141OSM    H4G15470   0.910   3.377   7.216 -0.7580  1.0424  2.5161
  141OSM    C5F15471   0.735   3.429   7.321  0.8718 -0.0490 -0.2377
  141OSM    H5F15472   0.719   3.320   7.337  1.6025 -0.1248  0.0071
  141OSM    H5G15473   0.639   3.481   7.300  0.3295 -0.5694  0.8590
  141OSM    C6F15474   0.809   3.492   7.435 -0.3614  0.1557 -0.2198
  141OSM    H6F15475   0.843   3.586   7.385 -1.6189 -0.2516 -1.9166
  141OSM    H6G15476   0.891   3.431   7.478 -1.3380 -0.5216  0.7391
  141OSM    C7F15477   0.723   3.526   7.567  0.0160  0.3274  0.3400
  141OSM    H7F15478   0.705   3.428   7.615 -0.3531 -1.0624 -2.4443
  141OSM    H7G15479   0.623   3.571   7.546 -0.4823 -1.3181 -1.0504
  141OSM    C8F15480   0.800   3.630   7.648  0.1873  0.2126  0.4404
  141OSM    H8F15481   0.898   3.582   7.667 -0.2010 -0.7720  0.0540
  141OSM    H8G15482   0.746   3.632   7.745  0.9817  0.7001  0.8800
  141OSM    C9F15483   0.804   3.766   7.582  1.3418 -0.0363 -0.4066
  141OSM    H9F15484   0.767   3.778   7.479  0.2631  0.8525  0.0621
  141OSM   C10F15485   0.848   3.875   7.641 -1.0550 -0.2395  0.3498
  141OSM   H10F15486   0.847   3.965   7.578 -1.3867 -2.6164 -3.3679
  141OSM   C11F15487   0.907   3.892   7.778 -0.0777 -0.0986 -0.2761
  141OSM   H11F15488   0.980   3.976   7.778  1.3104 -1.0634 -4.3712
  141OSM   H11G15489   0.961   3.804   7.817 -0.0069  0.4727  0.9680
  141OSM   C12F15490   0.809   3.934   7.890 -0.1169 -0.3276 -0.4302
  141OSM   H12F15491   0.724   3.862   7.894 -0.7122  0.3628  4.3025
  141OSM   H12G15492   0.755   4.030   7.876  1.2775  0.6967  1.0085
  141OSM   C13F15493   0.871   3.937   8.028 -0.7417  0.1054  0.2714
  141OSM   H13F15494   0.955   4.009   8.033  0.9982 -1.8712  0.9595
  141OSM   H13G15495   0.923   3.839   8.043  1.1316  1.2953  2.1378
  141OSM   C14F15496   0.772   3.972   8.141  0.0958  0.8344  0.0849
  141OSM   H14F15497   0.705   3.885   8.164  0.7652  0.4544  0.6341
  141OSM   H14G15498   0.707   4.057   8.110  0.5263  0.5320 -1.7297
  141OSM   C15F15499   0.852   4.013   8.272 -0.1944 -0.3134  0.4540
  141OSM   H15F15500   0.778   4.047   8.348  0.7155  2.8555  0.0516
  141OSM   H15G15501   0.909   4.104   8.243  0.2840 -0.7767 -0.0578
  141OSM   C16F15502   0.932   3.904   8.332 -0.1279  0.0246  0.2256
  141OSM   H16F15503   1.012   3.878   8.259 -0.3202  0.4171 -0.1318
  141OSM   H16G15504   0.872   3.811   8.348  0.4318 -0.7380 -1.8140
  141OSM   C17F15505   0.991   3.950   8.464 -0.0639 -0.1477 -0.7665
  141OSM   H17F15506   0.920   3.990   8.540 -0.5696 -0.4996 -1.0518
  141OSM   H17G15507   1.051   4.038   8.433  1.4292 -1.8932 -3.2084
  141OSM   C18F15508   1.082   3.840   8.526 -0.1493 -0.9158  0.1953
  141OSM   H18F15509   1.177   3.837   8.468  0.0977  0.8773  0.4288
  141OSM   H18G15510   1.021   3.748   8.539 -0.5876 -0.5144  1.1035
  141OSM   H18H15511   1.104   3.867   8.632 -1.3943 -2.1918  0.8107
  142OSM      N15512   0.445   5.391   6.347 -0.0653 -0.8567 -0.0029
  142OSM    C1515513   0.550   5.444   6.431  0.0216 -0.1007  0.4465
  142OSM   H15A15514   0.568   5.390   6.523  1.4256  0.4801  0.5511
  142OSM   H15B15515   0.535   5.545   6.466 -1.3891  0.7931 -2.4201
  142OSM   H15C15516   0.650   5.424   6.394 -0.5286 -1.4697 -0.3356
  142OSM    C1415517   0.313   5.407   6.418  0.6403  0.1298  0.3946
  142OSM   H14A15518   0.240   5.346   6.366  3.9666 -0.8644 -3.6616
  142OSM   H14B15519   0.276   5.509   6.415  1.8551  0.6598  1.9489
  142OSM   H14C15520   0.313   5.365   6.517 -1.2419 -0.9795 -0.0211
  142OSM    C1315521   0.430   5.468   6.221 -0.0928  0.8634 -0.4482
  142OSM   H13A15522   0.524   5.470   6.167  1.5800 -1.2929  2.1541
  142OSM   H13B15523   0.394   5.567   6.246  1.4781  1.2553  0.3986
  142OSM   H13C15524   0.357   5.410   6.166 -0.9584 -1.2015  2.6120
  142OSM    C1215525   0.467   5.243   6.314  0.2658 -0.6769  0.6589
  142OSM   H12A15526   0.391   5.214   6.243  2.7442 -0.1506 -2.4348
  142OSM   H12B15527   0.454   5.191   6.408  0.5402 -0.1507  0.9998
  142OSM    C1115528   0.594   5.203   6.243 -0.0886 -0.6594  0.6505
  142OSM   H11A15529   0.597   5.254   6.145  0.1589 -1.3832  0.2736
  142OSM   H11B15530   0.571   5.105   6.198  0.4548  1.1757 -4.1870
  142OSM      P15531   0.747   5.100   6.426 -0.2656 -0.4454  0.3500
  142OSM    O1315532   0.724   4.975   6.349 -0.4945 -0.3626  0.0193
  142OSM    O1415533   0.883   5.136   6.481  0.8743 -0.0543  0.1915
  142OSM    O1115534   0.639   5.117   6.535  0.1313  0.4675 -0.1313
  142OSM    O1215535   0.712   5.213   6.326  0.2243  0.1937  0.8166
  142OSM    C1S15536   0.658   5.167   6.667  0.3021  0.3999  0.6484
  142OSM    H1S15537   0.683   5.275   6.662 -0.3916  0.5264 -0.4646
  142OSM    H1T15538   0.735   5.116   6.728  0.1058 -0.1179  0.4691
  142OSM     NF15539   0.551   5.193   6.887  0.0150 -0.5872  0.7513
  142OSM    HNF15540   0.555   5.131   6.965 -0.2641 -1.0402  0.4108
  142OSM    C2S15541   0.529   5.142   6.756  0.9202  0.8059  0.1643
  142OSM    H2S15542   0.448   5.202   6.709  1.0405  1.8164  1.2113
  142OSM    C3S15543   0.493   4.992   6.746  0.0856  0.7409 -0.4346
  142OSM    H3S15544   0.580   4.933   6.781 -1.1072 -2.7072 -2.8436
  142OSM     O315545   0.479   4.941   6.611  0.5666  0.6668  0.3365
  142OSM    HO315546   0.529   4.998   6.552  0.0576 -1.4525 -2.3494
  142OSM    C4S15547   0.378   4.954   6.829  0.1073  0.0127  0.3364
  142OSM    H4S15548   0.403   4.931   6.934 -0.8179 -1.8536  0.1931
  142OSM    C5S15549   0.245   4.955   6.797 -0.0520 -0.2905  0.4588
  142OSM    H5S15550   0.217   4.976   6.692  1.1616  0.8533  0.3354
  142OSM    C6S15551   0.133   4.910   6.889  0.3531  0.1291 -0.5278
  142OSM    H6S15552   0.053   4.870   6.822 -1.1058  2.5601 -0.3844
  142OSM    H6T15553   0.073   4.999   6.921  1.9464  0.9157  0.3469
  142OSM    C7S15554   0.165   4.804   6.996 -0.0573 -0.2706 -0.5124
  142OSM    H7S15555   0.229   4.854   7.071 -0.0633 -2.0492  0.7470
  142OSM    H7T15556   0.227   4.718   6.962  3.1394  1.1587  1.2026
  142OSM    C8S15557   0.040   4.734   7.059  0.1105  0.3820  0.2905
  142OSM    H8S15558  -0.054   4.746   7.002 -1.7977  2.0784  3.5321
  142OSM    H8T15559   0.035   4.781   7.159 -3.2043 -1.4221  1.1443
  142OSM    C9S15560   0.071   4.586   7.080 -0.1161  0.0029  0.8006
  142OSM    H9S15561   0.166   4.578   7.137  0.6529  1.8349 -0.1510
  142OSM    H9T15562   0.085   4.541   6.980  1.9595 -2.4199  2.0700
  142OSM   C10S15563  -0.044   4.518   7.151 -0.1098  0.8346  0.8262
  142OSM   H10S15564  -0.018   4.411   7.134 -2.0455  0.5131 -0.3657
  142OSM   H10T15565  -0.142   4.545   7.106  0.6594  1.1707 -0.6840
  142OSM   C11S15566  -0.050   4.555   7.306 -0.1624 -0.4834 -0.0953
  142OSM   H11S15567  -0.083   4.659   7.328  2.5419  0.4760 -0.1854
  142OSM   H11T15568   0.047   4.541   7.356  0.8610  2.0800 -1.1774
  142OSM   C12S15569  -0.171   4.480   7.366  0.1856 -0.0990 -0.5695
  142OSM   H12S15570  -0.156   4.371   7.346  2.4873 -0.0565  0.6485
  142OSM   H12T15571  -0.260   4.529   7.320  0.3199  0.8449  0.1601
  142OSM   C13S15572  -0.187   4.497   7.518  0.3492 -0.4646 -0.3799
  142OSM   H13S15573  -0.206   4.602   7.550 -1.0155 -0.7278 -0.2484
  142OSM   H13T15574  -0.098   4.453   7.566  1.3542 -3.6084 -4.5637
  142OSM   C14S15575  -0.323   4.429   7.573  0.0331 -0.0935  0.0788
  142OSM   H14S15576  -0.312   4.325   7.536  2.5456  0.4323 -0.8553
  142OSM   H14T15577  -0.404   4.471   7.510  1.2986  1.8295 -0.3411
  142OSM   C15S15578  -0.340   4.453   7.721  0.0712 -0.0320 -0.9444
  142OSM   H15S15579  -0.352   4.563   7.732  1.2177 -0.1216  2.1198
  142OSM   H15T15580  -0.253   4.416   7.779 -0.5510 -0.3452 -0.1970
  142OSM   C16S15581  -0.461   4.380   7.778  0.1812  0.6392 -0.2388
  142OSM   H16S15582  -0.554   4.415   7.727  0.6565  1.5811 -0.4776
  142OSM   H16T15583  -0.468   4.408   7.885 -2.1306 -0.5151 -0.0263
  142OSM   C17S15584  -0.462   4.229   7.770  0.3535  0.0589  0.2419
  142OSM   H17S15585  -0.376   4.188   7.826 -0.4189 -4.0942 -1.2417
  142OSM   H17T15586  -0.450   4.193   7.665 -1.2481  0.9666 -0.2854
  142OSM   C18S15587  -0.593   4.161   7.818 -0.0278  0.6530 -0.2547
  142OSM   H18S15588  -0.622   4.189   7.922  0.1321  2.8764 -0.7742
  142OSM   H18T15589  -0.579   4.051   7.818 -0.0556  0.6417  0.5649
  142OSM   H18U15590  -0.678   4.180   7.749  0.3858 -1.3749 -1.4257
  142OSM    C1F15591   0.579   5.321   6.903  0.4733 -0.1349  0.9215
  142OSM     OF15592   0.550   5.403   6.818 -0.2090 -0.0082  0.1390
  142OSM    C2F15593   0.662   5.357   7.017  0.1088  0.1808 -0.8672
  142OSM    H2F15594   0.712   5.454   6.992 -1.8143  1.2500 -0.7386
  142OSM    H2G15595   0.747   5.285   7.014  0.5676  0.7029 -0.6414
  142OSM    C3F15596   0.575   5.359   7.151 -0.2122  0.1406 -0.3823
  142OSM    H3F15597   0.538   5.256   7.173 -2.7646  1.2842  1.1531
  142OSM    H3G15598   0.484   5.413   7.119  0.0992  0.0216 -1.5128
  142OSM    C4F15599   0.647   5.423   7.271 -0.1545  0.1531  0.1766
  142OSM    H4F15600   0.722   5.500   7.247 -1.8006  1.1524 -2.1859
  142OSM    H4G15601   0.716   5.356   7.327 -1.1449 -2.7614 -1.8410
  142OSM    C5F15602   0.553   5.477   7.379  0.7940 -0.7418 -0.1611
  142OSM    H5F15603   0.484   5.551   7.333  1.2788  0.3288  0.7741
  142OSM    H5G15604   0.610   5.535   7.455 -0.9145 -1.5317  1.8250
  142OSM    C6F15605   0.465   5.369   7.442 -0.7162  0.1812  0.3148
  142OSM    H6F15606   0.530   5.287   7.478 -0.1436  0.8195  0.7646
  142OSM    H6G15607   0.386   5.326   7.377  0.8184 -0.3972 -1.2715
  142OSM    C7F15608   0.382   5.428   7.558  0.0228  0.4120  0.1840
  142OSM    H7F15609   0.291   5.487   7.533  0.7190  0.5537 -2.2074
  142OSM    H7G15610   0.449   5.487   7.625  1.4861 -0.4247 -0.4955
  142OSM    C8F15611   0.322   5.313   7.644  0.5315 -0.0696 -0.0832
  142OSM    H8F15612   0.402   5.236   7.653  0.0223 -0.3827  3.4268
  142OSM    H8G15613   0.244   5.267   7.579 -1.0699 -0.0374  1.7174
  142OSM    C9F15614   0.270   5.360   7.775 -0.1492  0.4811  0.6433
  142OSM    H9F15615   0.256   5.469   7.780 -0.7993  0.4491 -0.2275
  142OSM   C10F15616   0.252   5.274   7.878  0.6352  0.7131 -0.5967
  142OSM   H10F15617   0.223   5.316   7.975  0.8367 -0.7047  0.1126
  142OSM   C11F15618   0.274   5.122   7.874  0.3876 -0.5512  0.2030
  142OSM   H11F15619   0.376   5.111   7.918  0.9915  2.7620 -0.0539
  142OSM   H11G15620   0.272   5.095   7.766  0.6518  0.9090 -0.1976
  142OSM   C12F15621   0.173   5.043   7.959  0.7932 -0.0270  0.4599
  142OSM   H12F15622   0.196   4.936   7.939  2.4083  0.4567 -0.4851
  142OSM   H12G15623   0.071   5.061   7.917  0.2972 -0.8693  1.2813
  142OSM   C13F15624   0.182   5.055   8.110  0.0296  0.5728 -0.6101
  142OSM   H13F15625   0.130   5.149   8.136  0.2908  0.6292 -0.2854
  142OSM   H13G15626   0.289   5.052   8.142  0.1489 -1.5602 -1.0576
  142OSM   C14F15627   0.109   4.926   8.168 -0.1473  0.3885  0.4777
  142OSM   H14F15628   0.171   4.836   8.148 -2.3622 -0.7541 -1.7788
  142OSM   H14G15629   0.016   4.913   8.109  0.1749  1.3694 -0.2751
  142OSM   C15F15630   0.073   4.938   8.313  1.0168 -0.4314  0.4464
  142OSM   H15F15631   0.021   5.036   8.326 -3.5233 -2.4170 -0.5876
  142OSM   H15G15632   0.152   4.940   8.391  2.1167 -0.7629 -0.6356
  142OSM   C16F15633  -0.034   4.837   8.358 -0.0531 -0.0632 -0.5009
  142OSM   H16F15634  -0.027   4.738   8.308  0.2923 -0.2188 -0.1512
  142OSM   H16G15635  -0.134   4.880   8.337 -0.4004  0.0275  1.2363
  142OSM   C17F15636  -0.021   4.802   8.508 -0.6285  0.3608  0.2830
  142OSM   H17F15637  -0.037   4.889   8.576  1.6099  1.7224 -0.8314
  142OSM   H17G15638   0.084   4.773   8.529 -0.1602  2.2638  0.7253
  142OSM   C18F15639  -0.121   4.684   8.545  0.0939  0.1245  0.3225
  142OSM   H18F15640  -0.114   4.653   8.652 -0.0600  1.8726  0.8719
  142OSM   H18G15641  -0.102   4.591   8.488  0.8672 -0.4324  1.4524
  142OSM   H18H15642  -0.226   4.718   8.530  0.1683 -0.6320 -2.3312
  143OSM      N15643   2.770   6.400   6.497 -0.1433  0.9943  0.5156
  143OSM    C1515644   2.775   6.282   6.584 -0.6400  0.3274  0.5443
  143OSM   H15A15645   2.830   6.214   6.521 -2.0131  1.6928 -2.3122
  143OSM   H15B15646   2.685   6.224   6.600 -0.0397 -1.0271 -0.7824
  143OSM   H15C15647   2.825   6.293   6.679  0.2637  2.3368 -0.1198
  143OSM    C1415648   2.896   6.465   6.475 -0.4218 -0.1804 -0.1790
  143OSM   H14A15649   2.983   6.404   6.453  0.1730  1.1051 -1.5590
  143OSM   H14B15650   2.934   6.516   6.563 -0.2133  1.4859 -1.1822
  143OSM   H14C15651   2.895   6.539   6.396  0.7329  0.3563  0.2785
  143OSM    C1315652   2.718   6.346   6.366 -0.1565 -0.4505 -0.1497
  143OSM   H13A15653   2.781   6.272   6.318  0.9327 -0.1964  0.8698
  143OSM   H13B15654   2.707   6.429   6.297 -0.9155 -0.6895 -0.3348
  143OSM   H13C15655   2.624   6.296   6.386 -1.0497  0.1175 -2.5254
  143OSM    C1215656   2.667   6.502   6.561  0.3886 -0.3631  0.2242
  143OSM   H12A15657   2.709   6.546   6.650  0.2556  0.0799  0.0699
  143OSM   H12B15658   2.581   6.451   6.600 -1.6939  1.8555 -1.1924
  143OSM    C1115659   2.613   6.618   6.468 -0.1950  0.0171  0.3418
  143OSM   H11A15660   2.586   6.707   6.529 -0.0499 -0.1999  0.7240
  143OSM   H11B15661   2.515   6.584   6.428  0.3000 -3.1327  1.5379
  143OSM      P15662   2.780   6.777   6.355 -0.4446 -0.0279 -0.0339
  143OSM    O1315663   2.922   6.750   6.334 -0.5047  0.3733  0.2211
  143OSM    O1415664   2.707   6.872   6.266 -0.3855  0.0455 -0.2654
  143OSM    O1115665   2.769   6.826   6.510  0.1423  0.0651 -0.5170
  143OSM    O1215666   2.706   6.639   6.359  0.3529  0.2091  0.0861
  143OSM    C1S15667   2.840   6.942   6.549 -0.0513  0.0364 -0.8200
  143OSM    H1S15668   2.776   7.030   6.529 -0.8301 -0.7307 -1.8022
  143OSM    H1T15669   2.938   6.960   6.499 -0.4961  1.6153 -1.1697
  143OSM     NF15670   2.941   7.046   6.742 -0.3359  0.0830  0.4402
  143OSM    HNF15671   3.038   7.057   6.725 -0.4744  1.3103  0.3354
  143OSM    C2S15672   2.879   6.923   6.697  0.6800  0.1498  0.3818
  143OSM    H2S15673   2.787   6.907   6.758  0.7664  1.1414  0.7900
  143OSM    C3S15674   2.960   6.793   6.710 -0.4013  0.3911  0.3486
  143OSM    H3S15675   3.037   6.782   6.631 -0.4134  1.2330  0.2183
  143OSM     O315676   2.880   6.675   6.696  0.2731 -0.6471 -0.0996
  143OSM    HO315677   2.800   6.712   6.657  1.4092 -0.0937 -2.0012
  143OSM    C4S15678   3.006   6.785   6.851 -0.0331  0.8220  0.4495
  143OSM    H4S15679   2.924   6.767   6.922  0.9402 -0.5519  1.2691
  143OSM    C5S15680   3.138   6.791   6.883 -0.3157  0.3824 -0.4717
  143OSM    H5S15681   3.216   6.806   6.807  1.0653  0.5063  0.9278
  143OSM    C6S15682   3.177   6.783   7.030 -0.2216 -0.0880 -0.2517
  143OSM    H6S15683   3.225   6.880   7.053  0.1966 -0.1123 -0.9947
  143OSM    H6T15684   3.259   6.709   7.032  0.4569  0.6024 -1.4823
  143OSM    C7S15685   3.076   6.741   7.138 -0.4855 -0.6774 -0.3299
  143OSM    H7S15686   3.034   6.645   7.103  1.2139 -1.3261 -0.6809
  143OSM    H7T15687   2.993   6.815   7.146 -0.2653 -0.3621 -0.8844
  143OSM    C8S15688   3.141   6.709   7.275  0.7073  0.4652 -0.1770
  143OSM    H8S15689   3.202   6.798   7.302 -1.0371  2.0290 -1.1250
  143OSM    H8T15690   3.206   6.621   7.263  0.5100 -0.4026  3.6832
  143OSM    C9S15691   3.042   6.684   7.385 -0.1132 -0.4260 -0.1563
  143OSM    H9S15692   3.008   6.578   7.393  0.8880 -0.7082  0.5159
  143OSM    H9T15693   2.956   6.753   7.372  0.1804  0.3960  1.9737
  143OSM   C10S15694   3.105   6.713   7.526 -0.7989  0.2350 -0.2319
  143OSM   H10S15695   3.165   6.806   7.521 -0.5470  0.1488  0.9322
  143OSM   H10T15696   3.180   6.632   7.538  0.3946  1.0989 -1.5354
  143OSM   C11S15697   3.001   6.734   7.639  0.2217 -0.0141 -0.1953
  143OSM   H11S15698   2.923   6.661   7.607 -0.2620  0.5430 -0.3045
  143OSM   H11T15699   2.945   6.830   7.638  0.8079  0.4122  2.2103
  143OSM   C12S15700   3.062   6.694   7.778 -0.5127 -0.3171  0.2458
  143OSM   H12S15701   3.149   6.759   7.800 -1.1792  0.5413  0.3983
  143OSM   H12T15702   3.093   6.588   7.767 -0.8965 -0.3214 -0.9705
  143OSM   C13S15703   2.962   6.716   7.897  0.5693 -0.0549 -0.0772
  143OSM   H13S15704   3.012   6.694   7.993  0.8181 -2.4220 -0.7041
  143OSM   H13T15705   2.871   6.655   7.882 -0.2381  1.3329 -1.1060
  143OSM   C14S15706   2.917   6.854   7.912  0.0385 -0.7985  1.0614
  143OSM   H14S15707   2.859   6.872   7.819  1.6259 -0.5950  0.0909
  143OSM   H14T15708   3.010   6.914   7.922 -0.9657  0.8868  0.7869
  143OSM   C15S15709   2.831   6.877   8.039 -0.0242 -0.5484  0.4248
  143OSM   H15S15710   2.895   6.843   8.124  0.1385 -2.6748 -0.4943
  143OSM   H15T15711   2.734   6.823   8.039 -0.5506  0.3384  1.6639
  143OSM   C16S15712   2.808   7.028   8.067 -0.2258 -0.2289 -0.1864
  143OSM   H16S15713   2.763   7.078   7.979  0.2606 -0.3150 -0.4894
  143OSM   H16T15714   2.908   7.072   8.088 -0.8849  0.9930  0.4837
  143OSM   C17S15715   2.718   7.054   8.184 -0.0945 -0.0958 -0.5723
  143OSM   H17S15716   2.775   7.027   8.276  1.2501  0.7217 -1.1360
  143OSM   H17T15717   2.632   6.985   8.177  0.1036 -0.5612  1.0104
  143OSM   C18S15718   2.661   7.195   8.195  0.4183 -0.6602 -0.6103
  143OSM   H18S15719   2.591   7.201   8.281  0.2965 -0.1704 -0.7399
  143OSM   H18T15720   2.612   7.228   8.101  1.8569  1.8648 -0.5912
  143OSM   H18U15721   2.740   7.272   8.213  0.4221 -0.6578 -0.6384
  143OSM    C1F15722   2.875   7.160   6.776 -0.4877  0.6117  0.0887
  143OSM     OF15723   2.751   7.155   6.758 -0.4227 -0.2978 -0.3245
  143OSM    C2F15724   2.933   7.283   6.841  0.1874 -0.2035  0.3213
  143OSM    H2F15725   2.886   7.286   6.941 -0.5286 -0.2425 -0.0105
  143OSM    H2G15726   2.896   7.365   6.776  1.9629  0.2228 -0.2225
  143OSM    C3F15727   3.089   7.300   6.862  0.2021  0.0490 -0.1187
  143OSM    H3F15728   3.132   7.323   6.762  0.9975  1.4471  0.5143
  143OSM    H3G15729   3.122   7.202   6.902 -2.8126 -0.7961  0.5314
  143OSM    C4F15730   3.131   7.422   6.936 -0.0015 -0.1256  0.5283
  143OSM    H4F15731   3.075   7.507   6.890  1.9766 -0.7835 -3.5808
  143OSM    H4G15732   3.239   7.444   6.922  0.0671 -1.2711 -0.8785
  143OSM    C5F15733   3.125   7.423   7.087  0.0773 -0.0887 -0.3566
  143OSM    H5F15734   3.033   7.386   7.137 -0.0083  0.0135 -0.4395
  143OSM    H5G15735   3.128   7.530   7.116  1.0618  0.2141 -1.5104
  143OSM    C6F15736   3.241   7.358   7.163  0.4966  0.8076  0.3581
  143OSM    H6F15737   3.332   7.407   7.123 -0.7231  1.5390 -1.7033
  143OSM    H6G15738   3.251   7.252   7.133  2.8378  1.2925 -0.7741
  143OSM    C7F15739   3.243   7.361   7.307  0.1945  0.2579 -0.7318
  143OSM    H7F15740   3.146   7.319   7.341 -0.4085 -0.3326 -3.0125
  143OSM    H7G15741   3.250   7.464   7.346  0.4323 -0.0069 -0.0524
  143OSM    C8F15742   3.359   7.285   7.385 -0.5656  0.0608  0.1506
  143OSM    H8F15743   3.456   7.319   7.342 -0.6502 -0.0024 -0.0889
  143OSM    H8G15744   3.352   7.177   7.361 -0.8274  0.3102 -0.9101
  143OSM    C9F15745   3.369   7.322   7.531 -1.0184 -0.2979 -0.2596
  143OSM    H9F15746   3.362   7.431   7.543  1.4119 -0.1095 -0.1966
  143OSM   C10F15747   3.397   7.233   7.633 -0.3382  0.4218  0.6383
  143OSM   H10F15748   3.392   7.267   7.738 -1.1180  0.8588  0.4702
  143OSM   C11F15749   3.426   7.086   7.633 -0.5523  0.5329 -0.2462
  143OSM   H11F15750   3.530   7.068   7.666 -0.0202  2.2856 -0.8641
  143OSM   H11G15751   3.407   7.040   7.534  2.1065 -1.2020 -0.0253
  143OSM   C12F15752   3.344   7.005   7.734  0.2645 -0.0133  0.4756
  143OSM   H12F15753   3.352   6.897   7.711  0.3598  0.3097 -1.1194
  143OSM   H12G15754   3.236   7.031   7.729  0.6277  1.3115 -1.9629
  143OSM   C13F15755   3.379   7.043   7.880  0.4183 -0.4344  0.1173
  143OSM   H13F15756   3.346   7.149   7.884  1.1837 -0.1854 -0.0810
  143OSM   H13G15757   3.490   7.041   7.882  0.4277 -0.0726  1.7947
  143OSM   C14F15758   3.326   6.955   7.991  0.4383  0.0513 -0.4946
  143OSM   H14F15759   3.360   6.850   7.992  0.4939  0.0688  0.5606
  143OSM   H14G15760   3.216   6.947   7.973 -0.2337  2.8982  1.5743
  143OSM   C15F15761   3.345   7.023   8.127 -0.7242 -0.2782  0.1265
  143OSM   H15F15762   3.303   7.123   8.104 -2.7988 -1.1821 -0.2891
  143OSM   H15G15763   3.454   7.036   8.142 -0.5562 -2.4954  1.2179
  143OSM   C16F15764   3.285   6.957   8.245 -0.1378  0.1438 -0.2360
  143OSM   H16F15765   3.289   7.008   8.344 -3.0302 -1.4268  0.8144
  143OSM   H16G15766   3.317   6.850   8.245 -1.9971 -0.4352 -0.3966
  143OSM   C17F15767   3.130   6.940   8.232 -0.4735  0.2139 -0.2896
  143OSM   H17F15768   3.104   6.901   8.132 -0.6175  4.3917 -2.1058
  143OSM   H17G15769   3.083   7.040   8.241  0.9721  0.7844  1.9627
  143OSM   C18F15770   3.076   6.840   8.340 -0.2927 -0.4254  0.6640
  143OSM   H18F15771   2.966   6.856   8.349 -0.3702  1.5088 -2.2456
  143OSM   H18G15772   3.120   6.866   8.438 -0.4149 -1.3935  0.9912
  143OSM   H18H15773   3.103   6.735   8.313 -0.4572 -0.1426 -0.6888
  144OSM      N15774   1.990   6.070   6.388 -0.1016  0.4664  0.4624
  144OSM    C1515775   1.981   6.082   6.537  0.1968 -0.9205  0.0504
  144OSM   H15A15776   1.974   5.988   6.589  0.0570 -1.8914 -1.6543
  144OSM   H15B15777   1.905   6.151   6.571 -0.0329 -1.1230 -0.0530
  144OSM   H15C15778   2.076   6.123   6.568 -0.8534  1.1802  0.6540
  144OSM    C1415779   2.095   5.969   6.373  0.6170 -0.2651 -0.0314
  144OSM   H14A15780   2.070   5.892   6.445 -0.1039  0.8773  0.9853
  144OSM   H14B15781   2.194   6.001   6.403  0.7444 -1.1210  0.4927
  144OSM   H14C15782   2.093   5.927   6.274 -1.3605 -0.2360 -0.0414
  144OSM    C1315783   1.858   6.014   6.346 -0.2550 -0.1738  0.3419
  144OSM   H13A15784   1.779   6.088   6.353 -1.2798 -1.2188  0.1157
  144OSM   H13B15785   1.828   5.929   6.406  2.0320  0.2626  2.2435
  144OSM   H13C15786   1.862   5.964   6.251 -1.5122  0.3531 -0.0045
  144OSM    C1215787   2.030   6.197   6.316 -0.0610 -0.3224 -0.3019
  144OSM   H12A15788   1.947   6.259   6.286 -0.4532 -0.6993 -0.0138
  144OSM   H12B15789   2.065   6.170   6.217  2.4027  1.2784  0.0550
  144OSM    C1115790   2.142   6.279   6.387  0.1822  0.4324  0.2100
  144OSM   H11A15791   2.092   6.323   6.477  0.0831 -1.4217  1.1061
  144OSM   H11B15792   2.163   6.367   6.323 -0.6831  0.1420 -0.4927
  144OSM      P15793   2.346   6.263   6.535  0.2181  0.1016  0.3100
  144OSM    O1315794   2.472   6.185   6.533 -0.0987  0.2090 -0.5437
  144OSM    O1415795   2.360   6.410   6.540 -0.4936  0.3488  0.3740
  144OSM    O1115796   2.247   6.219   6.653 -0.5205  0.2757 -0.3865
  144OSM    O1215797   2.263   6.211   6.413 -0.0995  0.0093 -0.0157
  144OSM    C1S15798   2.252   6.283   6.778 -0.7243 -0.4339  0.4296
  144OSM    H1S15799   2.187   6.374   6.780 -2.6491 -1.7488  2.0383
  144OSM    H1T15800   2.354   6.314   6.810 -0.5870  0.7821 -1.0453
  144OSM     NF15801   2.183   6.256   7.026 -0.3415  0.0817  1.2050
  144OSM    HNF15802   2.263   6.267   7.084 -1.9183  1.4327  3.2814
  144OSM    C2S15803   2.206   6.182   6.895  0.3867 -0.4704 -0.6604
  144OSM    H2S15804   2.104   6.151   6.865 -1.5100  4.0822  0.1971
  144OSM    C3S15805   2.315   6.067   6.902 -0.2057  0.5648 -0.6023
  144OSM    H3S15806   2.418   6.108   6.911  0.3367 -0.8962  0.0973
  144OSM     O315807   2.330   5.988   6.783  0.4141  0.3518  0.5043
  144OSM    HO315808   2.290   6.040   6.712  1.5132  0.4735 -0.0414
  144OSM    C4S15809   2.297   5.973   7.020  0.4885 -0.3460 -0.1803
  144OSM    H4S15810   2.195   5.930   7.024 -0.1454  1.0814 -0.2394
  144OSM    C5S15811   2.386   5.941   7.117  0.6634  0.2222 -0.1775
  144OSM    H5S15812   2.481   5.996   7.113  0.3709  0.7093 -0.5809
  144OSM    C6S15813   2.371   5.848   7.235  0.5597  0.0894 -0.0026
  144OSM    H6S15814   2.419   5.750   7.210 -1.9522 -1.1623 -0.2232
  144OSM    H6T15815   2.267   5.828   7.267  0.3838 -0.6900 -1.0157
  144OSM    C7S15816   2.447   5.883   7.360 -0.0975  0.6586 -0.3177
  144OSM    H7S15817   2.397   5.962   7.420 -1.1274  0.7529 -1.2770
  144OSM    H7T15818   2.550   5.917   7.338 -0.3608  1.1976 -0.7367
  144OSM    C8S15819   2.462   5.764   7.452  0.2472  0.1090  0.0789
  144OSM    H8S15820   2.533   5.689   7.413 -1.9476 -2.1181  0.0914
  144OSM    H8T15821   2.364   5.711   7.445 -0.2296  0.8936  0.6548
  144OSM    C9S15822   2.478   5.793   7.599  0.2371 -0.2132 -0.2015
  144OSM    H9S15823   2.397   5.864   7.628  2.4345  1.9238  1.0498
  144OSM    H9T15824   2.579   5.832   7.622  0.2172 -0.8341  1.0248
  144OSM   C10S15825   2.458   5.668   7.691  0.4514 -0.2112 -0.4286
  144OSM   H10S15826   2.519   5.579   7.664  1.7101  0.2798  0.6798
  144OSM   H10T15827   2.357   5.625   7.677  0.5202  0.0312 -1.7093
  144OSM   C11S15828   2.459   5.701   7.845 -0.7878 -0.1031  0.4317
  144OSM   H11S15829   2.415   5.803   7.849  2.4039  1.5286 -1.6813
  144OSM   H11T15830   2.560   5.690   7.889 -1.7702 -2.9248  2.2120
  144OSM   C12S15831   2.364   5.601   7.911  0.3693 -0.4299 -0.0632
  144OSM   H12S15832   2.409   5.500   7.915  0.6690 -0.3522 -1.2514
  144OSM   H12T15833   2.262   5.595   7.870  0.0317  5.2414 -0.8866
  144OSM   C13S15834   2.358   5.644   8.055  0.3527  0.3425  0.7681
  144OSM   H13S15835   2.333   5.750   8.075  1.7474  0.5383  1.5922
  144OSM   H13T15836   2.465   5.625   8.081  0.9470  0.5150 -1.3951
  144OSM   C14S15837   2.268   5.561   8.146 -0.4135 -0.3071  0.1576
  144OSM   H14S15838   2.324   5.472   8.182 -0.2646 -0.5400 -0.6328
  144OSM   H14T15839   2.174   5.533   8.094 -1.3530 -0.5943  1.9403
  144OSM   C15S15840   2.224   5.635   8.267 -0.4799 -0.0985  0.5425
  144OSM   H15S15841   2.122   5.603   8.297 -0.4988 -0.8472 -0.3087
  144OSM   H15T15842   2.218   5.740   8.233  1.4053 -0.7284 -2.0162
  144OSM   C16S15843   2.327   5.632   8.380 -0.6631  0.7052  0.7074
  144OSM   H16S15844   2.362   5.527   8.391  0.4087  0.9478 -0.1594
  144OSM   H16T15845   2.274   5.659   8.474 -1.7195  0.5458  0.1750
  144OSM   C17S15846   2.456   5.734   8.371  0.0700 -0.2435 -0.0979
  144OSM   H17S15847   2.411   5.835   8.352  0.4112 -0.3809 -1.8098
  144OSM   H17T15848   2.523   5.699   8.290  1.5788 -1.9599  1.8149
  144OSM   C18S15849   2.544   5.726   8.498  0.2306  0.5689 -0.3593
  144OSM   H18S15850   2.552   5.618   8.523  1.4205  0.8489  0.5667
  144OSM   H18T15851   2.494   5.774   8.585 -0.6339  0.2760 -0.6885
  144OSM   H18U15852   2.643   5.776   8.496  0.3217  0.4960  1.1613
  144OSM    C1F15853   2.082   6.340   7.030  0.2059  0.4428 -0.4496
  144OSM     OF15854   2.016   6.362   6.937 -0.2233  0.4989  0.1379
  144OSM    C2F15855   2.072   6.426   7.152  0.3077 -0.4187  0.5320
  144OSM    H2F15856   2.108   6.521   7.106 -0.9909 -0.1081  0.1086
  144OSM    H2G15857   2.134   6.382   7.232 -3.6599 -2.1462  2.9557
  144OSM    C3F15858   1.926   6.452   7.208  0.7324 -0.2458  0.1188
  144OSM    H3F15859   1.854   6.368   7.216 -1.6419  1.5516 -1.1112
  144OSM    H3G15860   1.874   6.532   7.151  2.0665  0.1700 -0.5413
  144OSM    C4F15861   1.936   6.522   7.346 -0.1930 -0.3660 -0.5581
  144OSM    H4F15862   1.849   6.589   7.363 -0.6261 -1.5907  2.5416
  144OSM    H4G15863   2.020   6.595   7.346 -0.1183 -0.4275  0.7880
  144OSM    C5F15864   1.941   6.422   7.464  0.3009 -0.2725  0.7447
  144OSM    H5F15865   2.037   6.367   7.455 -0.6751 -1.8347 -0.8213
  144OSM    H5G15866   1.861   6.345   7.453  0.1374  0.0231 -0.2853
  144OSM    C6F15867   1.935   6.493   7.605  0.3420 -0.0703 -0.4189
  144OSM    H6F15868   1.852   6.567   7.609 -0.4408 -0.8937 -0.9403
  144OSM    H6G15869   2.037   6.530   7.630  0.6425 -0.9268 -0.3238
  144OSM    C7F15870   1.912   6.385   7.713 -0.6271  0.3688  0.3832
  144OSM    H7F15871   1.996   6.312   7.703 -1.7321 -0.8638 -0.2470
  144OSM    H7G15872   1.821   6.342   7.665  0.1521  2.2312 -3.0807
  144OSM    C8F15873   1.879   6.429   7.854 -0.2814 -0.3676 -0.0383
  144OSM    H8F15874   1.846   6.338   7.907 -0.0496  0.5260  1.6959
  144OSM    H8G15875   1.806   6.513   7.856  1.0916  0.8739  2.0528
  144OSM    C9F15876   2.002   6.496   7.918  1.1340  0.2444  0.1402
  144OSM    H9F15877   2.055   6.565   7.851  1.0757 -0.2308 -0.4066
  144OSM   C10F15878   2.053   6.461   8.037 -0.5220  0.3704 -0.6270
  144OSM   H10F15879   2.146   6.513   8.064 -1.4471  1.2704  1.0052
  144OSM   C11F15880   2.010   6.348   8.129 -0.4521 -0.3404  0.2151
  144OSM   H11F15881   2.094   6.311   8.190 -1.4362 -2.7745  0.2218
  144OSM   H11G15882   1.970   6.265   8.065  0.2152 -0.9715  0.6108
  144OSM   C12F15883   1.885   6.371   8.221 -0.2844 -0.3778 -0.4249
  144OSM   H12F15884   1.791   6.378   8.163 -1.6703  0.8907  1.8028
  144OSM   H12G15885   1.893   6.468   8.275 -0.5759  0.8120 -2.4522
  144OSM   C13F15886   1.856   6.250   8.315 -0.2601 -0.3096 -1.0761
  144OSM   H13F15887   1.935   6.238   8.392 -1.8009  0.1880  0.6516
  144OSM   H13G15888   1.860   6.158   8.254  0.8049 -0.8058 -0.2953
  144OSM   C14F15889   1.723   6.269   8.398 -0.1198 -0.3654  0.0168
  144OSM   H14F15890   1.653   6.285   8.313 -0.4934 -0.1428  0.3656
  144OSM   H14G15891   1.722   6.364   8.455  0.0909 -1.0949  1.2560
  144OSM   C15F15892   1.685   6.148   8.482  0.1287 -0.5399  0.4478
  144OSM   H15F15893   1.777   6.114   8.534 -0.0500  0.0880  1.1918
  144OSM   H15G15894   1.651   6.068   8.413  1.5568  0.1567 -1.1288
  144OSM   C16F15895   1.569   6.173   8.577 -0.9317 -0.1329 -0.2692
  144OSM   H16F15896   1.599   6.265   8.631 -0.6539 -0.8647  0.8825
  144OSM   H16G15897   1.552   6.089   8.648 -1.7987 -0.9991 -1.4614
  144OSM   C17F15898   1.436   6.186   8.506  0.0604  0.2152 -0.3880
  144OSM   H17F15899   1.397   6.096   8.454 -1.2977  0.2004  0.6305
  144OSM   H17G15900   1.454   6.257   8.422 -1.6478 -0.0491 -1.0237
  144OSM   C18F15901   1.330   6.237   8.598  0.6136 -0.5074 -0.0725
  144OSM   H18F15902   1.350   6.342   8.630  0.3844  0.6511 -3.3210
  144OSM   H18G15903   1.319   6.169   8.685 -0.6850 -0.1599  0.0511
  144OSM   H18H15904   1.229   6.243   8.552  0.1578  1.0805  1.0311
  145SAPE     N15905   1.217   2.191  10.750 -0.3437 -0.5833  0.1023
  145SAPE   HN115906   1.147   2.220  10.821  0.6824  1.7378  0.2473
  145SAPE   HN215907   1.150   2.165  10.674 -2.2914 -1.0411  1.8906
  145SAPE   HN315908   1.263   2.104  10.783  0.3524 -0.4104 -0.4018
  145SAPE   C1215909   1.318   2.304  10.724  0.2758 -0.3355  0.2798
  145SAPE  H12A15910   1.371   2.333  10.818  1.9041 -0.2581 -0.6131
  145SAPE  H12B15911   1.270   2.394  10.680  1.8511  0.5085  0.2008
  145SAPE   C1115912   1.417   2.244  10.624 -0.5529 -0.1326 -0.0604
  145SAPE  H11A15913   1.486   2.322  10.584 -0.6566  0.8013  1.5202
  145SAPE  H11B15914   1.378   2.188  10.536  1.8987 -1.5167 -0.3746
  145SAPE     P15915   1.621   2.084  10.626 -0.0506  0.4508  0.2259
  145SAPE   O1315916   1.745   2.089  10.711  0.4312  0.5344  0.0503
  145SAPE   O1415917   1.577   1.948  10.579  0.5988  0.1430  0.3119
  145SAPE   O1215918   1.496   2.146  10.695  0.2664 -0.2112  0.3787
  145SAPE   O1115919   1.649   2.171  10.507 -0.3441 -0.1462  0.6155
  145SAPE    C115920   1.698   2.118  10.382 -0.4217 -0.3964  0.3617
  145SAPE    HA15921   1.792   2.171  10.359  0.2333 -1.8339 -0.4332
  145SAPE    HB15922   1.709   2.007  10.387 -0.0920 -0.3194  2.7860
  145SAPE    C215923   1.599   2.148  10.267  0.5683  0.1729  0.6777
  145SAPE    HS15924   1.499   2.106  10.291 -0.0880 -1.1702 -3.5627
  145SAPE   O2115925   1.638   2.101  10.131  0.1503 -0.7182  0.0284
  145SAPE   C2115926   1.611   1.968  10.111 -0.4319 -0.3223  0.5193
  145SAPE   O2215927   1.564   1.894  10.196  0.2938 -1.2763  0.0949
  145SAPE   C2215928   1.665   1.920   9.979  0.0114  0.2419 -0.2049
  145SAPE   H2R15929   1.710   1.996   9.912  1.9552 -1.5043 -0.9890
  145SAPE   H2S15930   1.739   1.841  10.003  0.0438  0.2552 -0.2596
  145SAPE    C315931   1.579   2.303  10.259 -1.0134 -0.3145  0.1379
  145SAPE    HX15932   1.683   2.337  10.238 -1.0560 -0.0815  0.2994
  145SAPE    HY15933   1.549   2.361  10.349 -0.3047 -0.0388  0.2065
  145SAPE   O3115934   1.503   2.342  10.144 -0.3048 -0.2892  0.3288
  145SAPE   C3115935   1.372   2.328  10.167  0.1681 -0.0958  0.5059
  145SAPE   O3215936   1.323   2.301  10.277  0.6409  0.0192 -0.6643
  145SAPE   C3215937   1.284   2.328  10.039 -0.1387  0.4632  0.3236
  145SAPE   H2X15938   1.348   2.275   9.966 -2.4590 -3.0235  0.5536
  145SAPE   H2Y15939   1.275   2.435  10.009  0.4996  1.1547  2.3987
  145SAPE   C2315940   1.542   1.861   9.898  0.0498 -0.0701  0.0517
  145SAPE   H3R15941   1.449   1.852   9.958 -0.5702 -0.2383 -0.9038
  145SAPE   H3S15942   1.568   1.763   9.851  2.3072  1.3384 -1.8430
  145SAPE   C2415943   1.505   1.958   9.785 -0.4507  0.5121  1.0153
  145SAPE   H4R15944   1.593   1.959   9.717 -1.4100  0.9543 -0.2647
  145SAPE   H4S15945   1.496   2.065   9.812 -0.1431  0.7489  0.2040
  145SAPE   C2515946   1.372   1.938   9.720  0.7835  0.5426 -0.2705
  145SAPE   H5R15947   1.294   1.910   9.793  1.3339  0.0089  0.1236
  145SAPE   C2615948   1.341   1.935   9.593 -0.4515  0.2956  0.2986
  145SAPE   H6R15949   1.238   1.923   9.556 -0.2218  0.7394 -0.5096
  145SAPE   C2715950   1.434   1.949   9.476  0.5523 -0.7992  0.5070
  145SAPE   H7R15951   1.411   1.871   9.400 -0.8547 -0.9382  1.0490
  145SAPE   H7S15952   1.539   1.933   9.508  0.7351  1.4913  1.1868
  145SAPE   C2815953   1.422   2.088   9.425 -0.3102  0.6547 -0.2304
  145SAPE   H8R15954   1.465   2.163   9.494  0.8543  1.5278 -1.8491
  145SAPE   C2915955   1.353   2.137   9.317 -0.1472  0.2563  0.7243
  145SAPE   H9R15956   1.347   2.247   9.316  0.5104  0.2929  0.0574
  145SAPE  C21015957   1.274   2.065   9.207 -0.1472 -0.4894  0.5617
  145SAPE  H10R15958   1.168   2.097   9.220  0.0804  1.0107 -0.9869
  145SAPE  H10S15959   1.279   1.955   9.224 -0.3213 -0.7149 -0.7144
  145SAPE  C21115960   1.301   2.085   9.059 -0.0101  0.5895  0.7223
  145SAPE  H11R15961   1.244   2.170   9.019 -1.1715  0.1128  1.3248
  145SAPE  C21215962   1.394   2.015   8.991  0.2899  0.5966  0.0868
  145SAPE  H12R15963   1.388   2.033   8.882  0.8101 -0.3879 -0.1211
  145SAPE  C21315964   1.468   1.890   9.034  0.0256 -0.7224 -0.2583
  145SAPE  H13R15965   1.393   1.816   9.070 -1.1384 -1.3154 -3.6102
  145SAPE  H13S15966   1.534   1.910   9.121  0.5472  0.8861 -0.9872
  145SAPE  C21415967   1.557   1.824   8.933 -0.7215  0.3013  0.0536
  145SAPE  H14R15968   1.504   1.736   8.891 -0.1482 -0.0897  0.1420
  145SAPE  C21515969   1.674   1.854   8.881  0.2702 -0.3417 -0.4461
  145SAPE  H15R15970   1.730   1.787   8.814 -1.5531 -1.2344 -1.1342
  145SAPE  C21615971   1.756   1.976   8.918 -1.3149 -0.0488  0.2269
  145SAPE  H16R15972   1.859   1.943   8.943 -2.2731 -2.3653  1.4253
  145SAPE  H16S15973   1.710   2.024   9.008 -0.2290 -1.7046  1.7319
  145SAPE  C21715974   1.775   2.087   8.814  0.0633  0.0529 -0.6099
  145SAPE  H17R15975   1.691   2.083   8.742  1.4525  1.9186 -2.4468
  145SAPE  H17S15976   1.868   2.076   8.754 -1.0554  1.7685 -2.8427
  145SAPE  C21815977   1.772   2.237   8.863 -1.1135 -0.5558  0.2506
  145SAPE  H18R15978   1.668   2.259   8.896 -0.9047  1.5254 -0.3164
  145SAPE  H18S15979   1.788   2.298   8.772 -0.4947 -1.6541 -0.3959
  145SAPE  C21915980   1.879   2.278   8.967  0.2357  0.4351  0.9632
  145SAPE  H19R15981   1.869   2.201   9.047 -0.6071  0.2628  0.7067
  145SAPE  H19S15982   1.852   2.369   9.024 -0.8040 -0.4536  1.9633
  145SAPE  C22015983   2.019   2.281   8.904  0.5712  0.5847  0.1406
  145SAPE  H20R15984   2.049   2.190   8.848 -1.1792  0.9777 -1.5566
  145SAPE  H20S15985   2.090   2.310   8.984 -0.1827 -1.0665  1.4562
  145SAPE  H20T15986   2.018   2.371   8.839  1.1266  2.0843  2.1395
  145SAPE   C3315987   1.151   2.262  10.040  0.9728 -0.0068  0.4573
  145SAPE   H3X15988   1.084   2.287  10.126 -0.2494 -0.3714 -0.3607
  145SAPE   H3Y15989   1.163   2.151  10.042  1.8615  0.0868  1.5987
  145SAPE   C3415990   1.066   2.309   9.915  0.9338  0.4083  0.0089
  145SAPE   H4X15991   0.971   2.251   9.912  0.3886  1.3356 -1.9581
  145SAPE   H4Y15992   1.123   2.281   9.824  0.4100  0.6725 -0.4048
  145SAPE   C3515993   1.018   2.455   9.908 -0.3150  0.0752  0.2548
  145SAPE   H5X15994   1.107   2.508   9.867 -0.7691  0.0979 -0.7025
  145SAPE   H5Y15995   0.996   2.495  10.010  0.9929 -1.0164  1.0105
  145SAPE   C3615996   0.900   2.471   9.805 -0.5800  0.2318  0.0664
  145SAPE   H6X15997   0.811   2.409   9.832  1.1205 -2.3218  0.1755
  145SAPE   H6Y15998   0.935   2.426   9.710  0.2236 -1.8870  1.2786
  145SAPE   C3715999   0.870   2.620   9.784  0.5895 -0.0954 -0.3896
  145SAPE   H7X16000   0.946   2.648   9.708  0.4274  0.9354 -0.1911
  145SAPE   H7Y16001   0.881   2.672   9.882  1.4471 -0.4172 -0.3091
  145SAPE   C3816002   0.733   2.643   9.720 -0.4357 -0.7701  0.4044
  145SAPE   H8X16003   0.708   2.752   9.723  1.6599 -0.1552 -1.8133
  145SAPE   H8Y16004   0.646   2.589   9.763 -2.0240 -1.3496 -3.1378
  145SAPE   C3916005   0.732   2.594   9.573  0.2502 -0.5468  1.0440
  145SAPE   H9X16006   0.733   2.483   9.564  0.8092 -0.4148 -1.0909
  145SAPE   H9Y16007   0.820   2.647   9.531 -0.1174 -0.0417  0.9042
  145SAPE  C31016008   0.620   2.653   9.488  0.3493 -0.3827 -0.3936
  145SAPE  H10X16009   0.615   2.761   9.513 -1.3587 -0.2049 -1.3496
  145SAPE  H10Y16010   0.524   2.619   9.531 -0.0164 -0.0231 -0.9047
  145SAPE  C31116011   0.623   2.627   9.342  0.9689  0.2586  0.3955
  145SAPE  H11X16012   0.613   2.518   9.324  0.8142  0.6382 -2.3232
  145SAPE  H11Y16013   0.718   2.656   9.292  0.5724 -1.8228 -1.7435
  145SAPE  C31216014   0.511   2.707   9.272 -0.3833  0.2412  0.0210
  145SAPE  H12X16015   0.548   2.811   9.282  1.4153 -0.5148  1.7830
  145SAPE  H12Y16016   0.414   2.692   9.324  0.5303 -2.2943  1.1705
  145SAPE  C31316017   0.494   2.681   9.119 -1.4151  0.6445  0.7059
  145SAPE  H13X16018   0.464   2.575   9.102  1.5241 -0.1432 -0.0908
  145SAPE  H13Y16019   0.593   2.692   9.070 -1.2907 -1.3373  0.4538
  145SAPE  C31416020   0.387   2.765   9.057  0.1074  0.0216 -0.1984
  145SAPE  H14X16021   0.430   2.867   9.045  1.4255 -0.3665  0.9660
  145SAPE  H14Y16022   0.297   2.760   9.122 -0.4173 -1.8059 -1.0193
  145SAPE  C31516023   0.345   2.715   8.915 -0.4465  0.4931  0.2603
  145SAPE  H15X16024   0.324   2.606   8.911 -0.4526  0.4779  0.6197
  145SAPE  H15Y16025   0.440   2.731   8.860  1.3783  0.4333  3.1613
  145SAPE  C31616026   0.239   2.803   8.857 -0.7701  0.3058 -0.8918
  145SAPE  H16X16027   0.277   2.908   8.851 -3.2465  1.4052  0.9871
  145SAPE  H16Y16028   0.146   2.796   8.917 -1.9027  0.1314 -2.5835
  145SAPE  C31716029   0.208   2.765   8.712 -0.7600  0.3059  0.2716
  145SAPE  H17X16030   0.195   2.655   8.709  1.1831 -0.0010  1.1567
  145SAPE  H17Y16031   0.305   2.777   8.659  0.3144  0.1789  2.0910
  145SAPE  C31816032   0.093   2.841   8.639  0.3657 -0.3900  0.6983
  145SAPE  H18X16033   0.100   2.946   8.673  0.2241  0.3585 -1.4377
  145SAPE  H18Y16034  -0.001   2.798   8.679  0.8321 -1.5125  0.6268
  145SAPE  H18Z16035   0.105   2.836   8.528 -0.2270 -1.7543  0.6732
  146SAPE     N16036   0.179   3.816  10.844 -0.1184 -0.1491  0.5237
  146SAPE   HN116037   0.099   3.880  10.862 -0.7587 -0.9568  0.5986
  146SAPE   HN216038   0.199   3.752  10.923  5.2115  0.5822  0.1651
  146SAPE   HN316039   0.263   3.878  10.855 -1.6784  1.6918  3.0913
  146SAPE   C1216040   0.173   3.761  10.702 -0.1057 -0.4321  0.4407
  146SAPE  H12A16041   0.171   3.650  10.708  4.5822 -0.7565  0.2013
  146SAPE  H12B16042   0.272   3.769  10.653 -0.6542 -0.2788 -0.6628
  146SAPE   C1116043   0.055   3.812  10.629  0.3383  0.2839  0.1949
  146SAPE  H11A16044   0.073   3.781  10.523 -0.4846  2.7912 -0.7464
  146SAPE  H11B16045   0.070   3.921  10.616  3.2299 -0.2967 -2.6714
  146SAPE     P16046  -0.158   3.877  10.762  0.3463 -0.2032 -0.6622
  146SAPE   O1316047  -0.277   3.797  10.815  0.1561 -0.1414  0.2221
  146SAPE   O1416048  -0.072   3.935  10.867 -0.3377 -0.5145 -0.8838
  146SAPE   O1216049  -0.072   3.773  10.677  0.1369 -0.1458  0.3787
  146SAPE   O1116050  -0.195   3.988  10.656  0.6047  0.2364  0.5663
  146SAPE    C116051  -0.263   3.935  10.532 -0.5272 -0.7236 -0.6740
  146SAPE    HA16052  -0.214   3.844  10.490 -0.1060  0.8136 -3.7930
  146SAPE    HB16053  -0.365   3.908  10.567  0.0301  1.7628  3.4925
  146SAPE    C216054  -0.265   4.041  10.427  1.2658  1.1849  0.1521
  146SAPE    HS16055  -0.333   4.122  10.461  0.5216  0.1431  1.2583
  146SAPE   O2116056  -0.326   3.992  10.307  0.2355  0.3006 -0.3600
  146SAPE   C2116057  -0.361   4.085  10.222  0.0970  0.4894  0.3545
  146SAPE   O2216058  -0.364   4.205  10.233  0.1497  0.0693 -0.1225
  146SAPE   C2216059  -0.417   4.014  10.095 -0.1733  0.4984 -0.7567
  146SAPE   H2R16060  -0.398   3.905  10.103 -1.3035  0.2607 -1.0894
  146SAPE   H2S16061  -0.523   4.041  10.078 -0.2452  0.0327 -1.0517
  146SAPE    C316062  -0.128   4.108  10.398 -0.5298 -0.8387 -0.4384
  146SAPE    HX16063  -0.098   4.146  10.498 -1.5815  1.7924 -1.0306
  146SAPE    HY16064  -0.149   4.194  10.331  1.2533 -0.9187 -1.1564
  146SAPE   O3116065  -0.039   4.022  10.324  0.4424 -0.0604  0.3796
  146SAPE   C3116066   0.088   4.034  10.361  0.1623  0.8830 -0.3373
  146SAPE   O3216067   0.141   4.108  10.439 -0.1237 -0.2880  0.1750
  146SAPE   C3216068   0.175   3.939  10.284  0.0235  0.2643 -0.4057
  146SAPE   H2X16069   0.174   3.836  10.326  2.7937  0.6018  0.6723
  146SAPE   H2Y16070   0.276   3.982  10.297  0.9127 -1.8140  0.0833
  146SAPE   C2316071  -0.338   4.059   9.978 -0.0606 -0.3039  0.0364
  146SAPE   H3R16072  -0.337   4.170   9.971  0.5442 -0.3617 -0.8643
  146SAPE   H3S16073  -0.398   4.021   9.893  1.2874  1.6725 -1.9159
  146SAPE   C2416074  -0.190   4.013   9.954  0.5258 -0.0976  0.2851
  146SAPE   H4R16075  -0.132   4.047  10.043  1.2507 -2.0522  0.6115
  146SAPE   H4S16076  -0.149   4.066   9.865  1.1144  0.6182  0.9692
  146SAPE   C2516077  -0.190   3.863   9.937 -0.4681 -0.3299 -0.1821
  146SAPE   H5R16078  -0.207   3.810  10.033  0.3672 -0.3223 -0.0221
  146SAPE   C2616079  -0.175   3.803   9.821  0.0577 -0.6234 -0.1131
  146SAPE   H6R16080  -0.170   3.694   9.823  0.7285 -0.6179 -0.9506
  146SAPE   C2716081  -0.169   3.879   9.688  0.0101 -0.3495  0.1197
  146SAPE   H7R16082  -0.097   3.963   9.680  0.4274 -0.5881  1.1356
  146SAPE   H7S16083  -0.271   3.916   9.662 -0.3124 -1.1150  0.2714
  146SAPE   C2816084  -0.127   3.792   9.574 -0.4546  0.6714  0.5591
  146SAPE   H8R16085  -0.029   3.744   9.586 -1.1086 -0.6633  0.7854
  146SAPE   C2916086  -0.199   3.758   9.467  0.9660 -0.5244 -0.1364
  146SAPE   H9R16087  -0.151   3.708   9.382  1.1119 -2.6956  1.1456
  146SAPE  C21016088  -0.345   3.790   9.451  0.1303 -0.6032  0.1920
  146SAPE  H10R16089  -0.400   3.796   9.547  0.7072  0.6740  0.4601
  146SAPE  H10S16090  -0.395   3.710   9.391 -1.4250  0.6281 -0.2213
  146SAPE  C21116091  -0.354   3.921   9.382  0.4485 -0.1989 -0.5258
  146SAPE  H11R16092  -0.317   4.005   9.441 -2.0178  0.9140 -0.4180
  146SAPE  C21216093  -0.372   3.939   9.248  0.2435  0.1439 -0.2228
  146SAPE  H12R16094  -0.385   4.045   9.223  2.9122  0.5944  0.0223
  146SAPE  C21316095  -0.393   3.822   9.148  0.1955 -0.0471 -0.2504
  146SAPE  H13R16096  -0.454   3.854   9.061 -1.9723  0.5036  1.4149
  146SAPE  H13S16097  -0.450   3.736   9.190 -1.4329  1.0545 -0.1228
  146SAPE  C21416098  -0.259   3.772   9.090  0.1616  0.0916 -1.3001
  146SAPE  H14R16099  -0.169   3.796   9.148  0.3659 -0.2555 -1.4659
  146SAPE  C21516100  -0.240   3.693   8.984 -0.2503 -0.0061 -0.2074
  146SAPE  H15R16101  -0.137   3.665   8.957 -0.5984  0.9595 -2.7949
  146SAPE  C21616102  -0.350   3.643   8.895  0.6726 -0.0376 -0.0975
  146SAPE  H16R16103  -0.337   3.662   8.786 -3.8439  0.9945 -0.6619
  146SAPE  H16S16104  -0.454   3.675   8.918  0.9521  1.8278 -1.2277
  146SAPE  C21716105  -0.336   3.488   8.901  0.0008 -0.3319  0.5507
  146SAPE  H17R16106  -0.339   3.461   9.009  0.1795  1.1158  0.9388
  146SAPE  H17S16107  -0.238   3.457   8.859  0.2938 -0.0619  1.0265
  146SAPE  C21816108  -0.442   3.409   8.826 -0.3021 -0.0463 -0.2706
  146SAPE  H18R16109  -0.449   3.452   8.724  1.2638  1.9662  0.3866
  146SAPE  H18S16110  -0.540   3.418   8.879 -0.5634 -0.1911 -0.7284
  146SAPE  C21916111  -0.402   3.264   8.810  0.7378 -0.8400 -0.1539
  146SAPE  H19R16112  -0.375   3.222   8.909  0.5116 -0.6039  0.0078
  146SAPE  H19S16113  -0.308   3.268   8.750  1.1758  0.0195  0.5730
  146SAPE  C22016114  -0.499   3.186   8.733 -0.5447 -0.1264  0.1184
  146SAPE  H20R16115  -0.436   3.104   8.693  0.8774  0.8451  0.2844
  146SAPE  H20S16116  -0.544   3.241   8.648 -2.7373 -2.3738 -0.3095
  146SAPE  H20T16117  -0.585   3.149   8.794 -0.5489  0.0184  0.2003
  146SAPE   C3316118   0.152   3.935  10.128 -0.3310  0.9903  0.1205
  146SAPE   H3X16119   0.157   4.041  10.096  1.3379  1.0249  0.3912
  146SAPE   H3Y16120   0.051   3.895  10.103  1.4322 -2.3126 -2.5364
  146SAPE   C3416121   0.264   3.852  10.046 -0.0683  0.0457  0.1183
  146SAPE   H4X16122   0.259   3.749  10.086 -0.8815  0.5537  1.3576
  146SAPE   H4Y16123   0.367   3.889  10.064  0.5091  0.0858 -2.6990
  146SAPE   C3516124   0.240   3.858   9.896  0.0436  0.6693  0.5018
  146SAPE   H5X16125   0.130   3.849   9.885  0.2034  0.0305 -0.8616
  146SAPE   H5Y16126   0.309   3.777   9.862 -0.0190  1.3498 -1.3834
  146SAPE   C3616127   0.275   3.990   9.824 -0.4317  0.4626 -0.7397
  146SAPE   H6X16128   0.373   4.029   9.859 -0.0878 -0.0708 -1.0868
  146SAPE   H6Y16129   0.213   4.079   9.846  2.7403  3.0475 -1.4021
  146SAPE   C3716130   0.295   3.980   9.675  0.4152  0.2040  0.3435
  146SAPE   H7X16131   0.199   3.947   9.630 -2.0324  4.5357  1.7750
  146SAPE   H7Y16132   0.363   3.894   9.657  0.9304  0.7059 -0.1978
  146SAPE   C3816133   0.353   4.099   9.591  0.9996 -0.4012 -0.9184
  146SAPE   H8X16134   0.455   4.120   9.629  1.2093  0.9930 -2.1308
  146SAPE   H8Y16135   0.294   4.194   9.594  1.5428  0.0154 -2.4204
  146SAPE   C3916136   0.346   4.071   9.440  0.8762  0.4106 -0.2639
  146SAPE   H9X16137   0.392   4.154   9.383  1.4781  0.6426  0.5368
  146SAPE   H9Y16138   0.239   4.063   9.411  1.2290 -3.0240 -1.1108
  146SAPE  C31016139   0.402   3.941   9.394  0.0635  0.9007 -0.5882
  146SAPE  H10X16140   0.352   3.851   9.433  0.9642  0.2398 -0.9269
  146SAPE  H10Y16141   0.502   3.925   9.439 -0.8442 -0.1672  1.1447
  146SAPE  C31116142   0.415   3.918   9.240 -0.2872 -0.0337 -0.2477
  146SAPE  H11X16143   0.313   3.921   9.196 -0.6710 -1.8805  0.4293
  146SAPE  H11Y16144   0.447   3.813   9.228  0.4284 -0.0300  1.3504
  146SAPE  C31216145   0.506   4.016   9.170  0.2071  0.2844 -0.4741
  146SAPE  H12X16146   0.610   4.016   9.207  0.3605 -1.6525 -0.7996
  146SAPE  H12Y16147   0.455   4.113   9.189 -1.6534 -0.7999  0.4110
  146SAPE  C31316148   0.512   3.996   9.017 -0.3211  0.3513  0.4870
  146SAPE  H13X16149   0.576   4.077   8.977  0.3532  0.5788  1.9764
  146SAPE  H13Y16150   0.412   4.009   8.969 -0.0626  0.6107  0.0151
  146SAPE  C31416151   0.565   3.857   8.974  0.0672 -0.2610  0.5577
  146SAPE  H14X16152   0.498   3.773   9.001  0.6471 -1.6112 -1.9336
  146SAPE  H14Y16153   0.660   3.837   9.029 -0.2790 -0.7752  0.9810
  146SAPE  C31516154   0.595   3.865   8.825  0.6623  1.0453  0.2879
  146SAPE  H15X16155   0.661   3.953   8.805  0.0433  1.5650  0.5059
  146SAPE  H15Y16156   0.497   3.874   8.773  0.0696  1.6949  1.4762
  146SAPE  C31616157   0.670   3.739   8.772 -0.3132  0.3145 -0.0460
  146SAPE  H16X16158   0.610   3.647   8.791 -0.2095  0.3862  0.6633
  146SAPE  H16Y16159   0.760   3.725   8.836 -0.4662  2.2117  0.6385
  146SAPE  C31716160   0.718   3.749   8.631  0.4912  0.8454 -0.3230
  146SAPE  H17X16161   0.829   3.741   8.626  0.6582  2.6721 -0.2361
  146SAPE  H17Y16162   0.701   3.851   8.592 -0.2641  0.4961 -0.9305
  146SAPE  C31816163   0.648   3.642   8.548  0.1187  0.3388  0.2855
  146SAPE  H18X16164   0.663   3.537   8.580 -0.9652 -0.1200 -0.6426
  146SAPE  H18Y16165   0.674   3.654   8.441  1.3922  1.8940  0.7429
  146SAPE  H18Z16166   0.537   3.649   8.559 -0.1676 -2.8226  0.4285
  147SAPE     N16167   3.119   5.025  11.115  0.4187  0.2548  0.2274
  147SAPE   HN116168   3.101   5.124  11.139 -0.7484 -0.4019  2.2942
  147SAPE   HN216169   3.084   4.998  11.021  2.6836 -0.7743 -0.3879
  147SAPE   HN316170   3.063   4.965  11.178 -0.0861  1.0807  0.5806
  147SAPE   C1216171   3.263   4.989  11.115 -0.7920 -0.3143  0.2936
  147SAPE  H12A16172   3.297   5.006  11.220  1.6560  1.7532 -0.7377
  147SAPE  H12B16173   3.321   5.043  11.037 -0.9488 -2.1339 -1.1506
  147SAPE   C1116174   3.286   4.840  11.073  0.0159 -0.4621 -0.1830
  147SAPE  H11A16175   3.248   4.783  11.161 -0.2482 -2.1504 -1.3580
  147SAPE  H11B16176   3.396   4.837  11.060  0.2394  2.0409  0.5384
  147SAPE     P16177   3.215   4.656  10.914 -0.3371  0.0576  0.0685
  147SAPE   O1316178   3.357   4.626  10.901 -0.0428 -0.8120  0.0285
  147SAPE   O1416179   3.126   4.582  11.002 -0.2505 -0.0847 -0.2949
  147SAPE   O1216180   3.214   4.806  10.950  0.6201 -0.3457 -0.4432
  147SAPE   O1116181   3.150   4.651  10.777  0.6986 -0.1334  0.3807
  147SAPE    C116182   3.158   4.762  10.682  0.3985  0.0894 -0.4325
  147SAPE    HA16183   3.253   4.819  10.692 -0.1291  0.8558  0.3784
  147SAPE    HB16184   3.160   4.724  10.578 -3.5506 -2.1581  0.1335
  147SAPE    C216185   3.041   4.860  10.692  0.0847  0.0288 -0.1637
  147SAPE    HS16186   3.043   4.909  10.792 -0.5162  0.8056 -0.5162
  147SAPE   O2116187   2.917   4.787  10.674  0.2402 -0.4192 -0.1693
  147SAPE   C2116188   2.804   4.842  10.718 -0.6980 -0.0321 -0.5192
  147SAPE   O2216189   2.808   4.940  10.796 -0.1704  0.5819 -0.7586
  147SAPE   C2216190   2.681   4.753  10.678 -0.5072  0.5512  0.9841
  147SAPE   H2R16191   2.665   4.684  10.764  1.7435 -1.9895 -0.4629
  147SAPE   H2S16192   2.595   4.821  10.658 -0.0233  0.5770 -1.3690
  147SAPE    C316193   3.059   4.977  10.588  0.0159 -0.0836 -0.3027
  147SAPE    HX16194   3.150   5.034  10.614  0.2794 -0.5835 -0.1184
  147SAPE    HY16195   2.970   5.040  10.607 -1.0614 -1.6839  0.1222
  147SAPE   O3116196   3.065   4.927  10.452  0.0483 -0.0527 -0.1131
  147SAPE   C3116197   2.952   4.901  10.396 -0.4240 -0.2912  0.4261
  147SAPE   O3216198   2.843   4.938  10.438 -0.3460 -0.9448  0.6853
  147SAPE   C3216199   2.980   4.824  10.263  0.4419 -0.0541 -0.1532
  147SAPE   H2X16200   3.063   4.872  10.207  0.0503  1.8008  0.7629
  147SAPE   H2Y16201   2.885   4.812  10.207  1.4956 -1.1289 -1.7739
  147SAPE   C2316202   2.706   4.659  10.551  0.7537 -0.1639 -0.4633
  147SAPE   H3R16203   2.766   4.571  10.582 -0.8419 -1.3525 -0.6288
  147SAPE   H3S16204   2.767   4.704  10.470  0.3884  1.3518  0.0762
  147SAPE   C2416205   2.569   4.626  10.492 -0.2418  0.2188 -0.4428
  147SAPE   H4R16206   2.518   4.722  10.469  0.8959  0.5560 -1.6133
  147SAPE   H4S16207   2.505   4.589  10.576 -0.4671 -0.2082 -0.7954
  147SAPE   C2516208   2.562   4.520  10.388  0.0716 -0.6318 -1.0871
  147SAPE   H5R16209   2.609   4.427  10.422 -1.0743 -0.8564 -0.0410
  147SAPE   C2616210   2.528   4.541  10.257 -0.4729  0.0843  0.3317
  147SAPE   H6R16211   2.534   4.457  10.187 -2.5464 -0.2608  0.5361
  147SAPE   C2716212   2.483   4.672  10.193 -0.0454 -0.4759  0.0425
  147SAPE   H7R16213   2.403   4.704  10.263 -0.0820 -0.6153  0.0660
  147SAPE   H7S16214   2.434   4.658  10.094 -0.5869 -0.1066  0.2544
  147SAPE   C2816215   2.584   4.791  10.190 -0.0573  0.7534  0.2075
  147SAPE   H8R16216   2.630   4.824  10.284 -0.9145  1.0428  0.5366
  147SAPE   C2916217   2.622   4.866  10.084  0.2263  0.0934 -0.5579
  147SAPE   H9R16218   2.693   4.945  10.109  0.4443 -0.0266 -0.7859
  147SAPE  C21016219   2.587   4.840   9.941 -0.4061 -0.5766 -0.2223
  147SAPE  H10R16220   2.488   4.881   9.913 -0.2912  1.7000  2.2655
  147SAPE  H10S16221   2.583   4.729   9.927  1.4152 -0.5752 -0.9689
  147SAPE  C21116222   2.703   4.885   9.859  0.4917 -0.0664 -0.1255
  147SAPE  H11R16223   2.791   4.921   9.915 -0.3841  1.2705  0.4265
  147SAPE  C21216224   2.708   4.899   9.721  0.1731  0.8998  0.5420
  147SAPE  H12R16225   2.803   4.907   9.666  0.0163 -2.6517 -0.4839
  147SAPE  C21316226   2.590   4.867   9.637 -0.4079 -0.6411 -0.0071
  147SAPE  H13R16227   2.579   4.946   9.560 -1.4673 -1.6532 -0.9370
  147SAPE  H13S16228   2.498   4.863   9.699  0.9156 -1.4972  1.9963
  147SAPE  C21416229   2.602   4.734   9.565  0.3990  0.5984 -0.5053
  147SAPE  H14R16230   2.666   4.663   9.618 -1.6311 -0.1458  1.0477
  147SAPE  C21516231   2.544   4.694   9.449 -0.6930  1.1205 -0.8572
  147SAPE  H15R16232   2.569   4.595   9.409 -2.5626  0.3345 -0.2101
  147SAPE  C21616233   2.450   4.779   9.369 -0.4118  0.0813  0.4279
  147SAPE  H16R16234   2.402   4.862   9.425  0.7737  1.3714 -0.4000
  147SAPE  H16S16235   2.371   4.708   9.336  1.0682 -2.2394  1.5592
  147SAPE  C21716236   2.522   4.813   9.238 -0.4217  0.6704  0.1586
  147SAPE  H17R16237   2.565   4.724   9.187 -1.9537  0.6039 -1.0897
  147SAPE  H17S16238   2.610   4.871   9.274  1.1052 -0.3257 -1.8090
  147SAPE  C21816239   2.439   4.896   9.143 -0.4530 -0.6904  0.3931
  147SAPE  H18R16240   2.402   4.988   9.193 -0.3703 -0.5159  0.1409
  147SAPE  H18S16241   2.354   4.829   9.116  1.5850 -2.6289 -1.7892
  147SAPE  C21916242   2.507   4.921   9.005  0.2574  0.6169  0.5752
  147SAPE  H19R16243   2.587   4.845   8.999  0.0971  0.5068 -0.1602
  147SAPE  H19S16244   2.576   5.007   8.991 -0.5145  1.1388 -0.1224
  147SAPE  C22016245   2.412   4.903   8.884 -0.1191 -0.1114 -0.1501
  147SAPE  H20R16246   2.389   4.798   8.858  1.4028 -0.3601 -0.5701
  147SAPE  H20S16247   2.471   4.935   8.796  2.6145  2.4784  2.3742
  147SAPE  H20T16248   2.325   4.972   8.889  0.3426  0.4187  2.5301
  147SAPE   C3316249   3.029   4.682  10.296 -0.1255 -0.4394 -0.1329
  147SAPE   H3X16250   2.962   4.627  10.366  0.5739 -1.2985 -0.1165
  147SAPE   H3Y16251   3.137   4.689  10.322  0.5480 -1.0905 -2.4977
  147SAPE   C3416252   3.020   4.600  10.163  0.3290 -0.1573  0.5482
  147SAPE   H4X16253   3.088   4.512  10.162  0.8305  0.2308  0.4711
  147SAPE   H4Y16254   3.059   4.668  10.084  0.6586 -0.1198  0.7422
  147SAPE   C3516255   2.875   4.540  10.129 -0.1826  0.7434  0.0060
  147SAPE   H5X16256   2.808   4.626  10.105  0.5146  1.5211  0.7727
  147SAPE   H5Y16257   2.837   4.483  10.216 -0.7857  0.7527 -0.2502
  147SAPE   C3616258   2.876   4.451  10.004 -0.3334  0.2185 -0.5452
  147SAPE   H6X16259   2.772   4.420   9.981 -0.0395 -2.8221  1.6572
  147SAPE   H6Y16260   2.947   4.366  10.014 -0.7283  0.0401  1.0006
  147SAPE   C3716261   2.933   4.527   9.878  0.3831 -0.0946  0.1393
  147SAPE   H7X16262   3.041   4.549   9.892  0.3541  0.1716 -0.0428
  147SAPE   H7Y16263   2.871   4.619   9.884  0.8740  0.1179  2.7886
  147SAPE   C3816264   2.909   4.455   9.744  0.3401 -0.0659  0.3114
  147SAPE   H8X16265   2.802   4.426   9.738  0.1359  0.2048  1.9805
  147SAPE   H8Y16266   2.971   4.364   9.746 -1.4594 -1.5566  5.6068
  147SAPE   C3916267   2.944   4.557   9.631  0.9191 -0.1310  0.5467
  147SAPE   H9X16268   3.047   4.594   9.645  1.7709 -1.9207 -0.6751
  147SAPE   H9Y16269   2.875   4.643   9.643 -3.1099 -3.0959  0.8016
  147SAPE  C31016270   2.923   4.494   9.488 -0.0115 -0.3039  0.6316
  147SAPE  H10X16271   2.816   4.467   9.474 -0.1837 -0.4274  1.9938
  147SAPE  H10Y16272   2.988   4.407   9.466 -0.2302 -0.2365 -0.3112
  147SAPE  C31116273   2.932   4.603   9.378  0.2545 -0.3397 -0.6307
  147SAPE  H11X16274   3.024   4.664   9.394 -1.3245  1.5458  2.2047
  147SAPE  H11Y16275   2.849   4.678   9.383  0.7503  0.1895 -0.1737
  147SAPE  C31216276   2.929   4.547   9.240  0.3914 -0.1765  0.0371
  147SAPE  H12X16277   2.851   4.471   9.219 -0.2154  0.4425  0.0343
  147SAPE  H12Y16278   3.014   4.484   9.204  0.5447 -0.4433  0.8486
  147SAPE  C31316279   2.918   4.667   9.141 -0.8871 -0.4568 -0.1419
  147SAPE  H13X16280   2.987   4.749   9.171 -0.8106 -0.2005 -1.0123
  147SAPE  H13Y16281   2.818   4.715   9.148  0.3334  2.0927  2.5288
  147SAPE  C31416282   2.949   4.638   8.990  0.0708 -0.3557 -0.3451
  147SAPE  H14X16283   2.867   4.589   8.933 -0.5481 -1.6460  1.5697
  147SAPE  H14Y16284   3.031   4.563   8.986 -0.8278 -1.4235  0.4406
  147SAPE  C31516285   2.991   4.767   8.925  0.9408 -0.4260 -0.4134
  147SAPE  H15X16286   3.029   4.740   8.824  1.9614 -0.0489 -0.1417
  147SAPE  H15Y16287   3.073   4.813   8.985  0.1542  1.8505 -0.9673
  147SAPE  C31616288   2.887   4.874   8.908  0.0215 -0.2831  0.5100
  147SAPE  H16X16289   2.863   4.920   9.006  3.0623  0.1957  1.1116
  147SAPE  H16Y16290   2.789   4.827   8.882  0.0184 -0.5226  0.9492
  147SAPE  C31716291   2.931   4.987   8.807 -0.0655  0.4586 -0.5176
  147SAPE  H17X16292   2.925   4.946   8.704 -0.2973  2.5184 -1.3694
  147SAPE  H17Y16293   3.034   5.016   8.838 -0.6009  0.0545  1.8004
  147SAPE  C31816294   2.836   5.103   8.819 -0.3455 -0.1064 -0.0631
  147SAPE  H18X16295   2.787   5.108   8.919 -4.0504  1.2000 -1.7637
  147SAPE  H18Y16296   2.750   5.109   8.749 -0.1671 -0.8972 -0.3595
  147SAPE  H18Z16297   2.898   5.196   8.812 -0.4747 -0.0646 -0.7114
  148SAPE     N16298   3.753   1.162  10.639  0.1153  0.3666  0.5411
  148SAPE   HN116299   3.789   1.246  10.589 -0.8694  0.6174  0.2221
  148SAPE   HN216300   3.723   1.090  10.570  0.1526  0.5694  0.3109
  148SAPE   HN316301   3.673   1.189  10.700  0.5094  0.1467  1.1591
  148SAPE   C1216302   3.854   1.110  10.728 -0.0262  0.3047 -0.6218
  148SAPE  H12A16303   3.796   1.075  10.816 -1.0998  1.6121 -0.7765
  148SAPE  H12B16304   3.907   1.198  10.770  1.3080 -1.0789  0.7360
  148SAPE   C1116305   3.930   0.990  10.660  0.7183  0.0976 -0.3522
  148SAPE  H11A16306   3.988   0.953  10.746  0.8213  2.6696  0.7741
  148SAPE  H11B16307   4.003   1.019  10.582 -1.8295  1.5158 -2.3929
  148SAPE     P16308   3.906   0.747  10.598 -0.0376  0.1928  0.2678
  148SAPE   O1316309   4.047   0.742  10.557  0.0640  0.2772  0.5187
  148SAPE   O1416310   3.880   0.693  10.735  0.1244 -0.2355 -0.5834
  148SAPE   O1216311   3.845   0.893  10.592  0.6223 -0.2287  0.2111
  148SAPE   O1116312   3.822   0.661  10.493  0.4067  0.3279 -0.1608
  148SAPE    C116313   3.782   0.725  10.370 -0.1963 -0.0454 -0.0053
  148SAPE    HA16314   3.701   0.799  10.385 -1.0119 -1.2060  1.4887
  148SAPE    HB16315   3.877   0.756  10.320  0.1308 -3.1495 -1.5541
  148SAPE    C216316   3.722   0.619  10.268 -0.5759 -0.2797 -0.0410
  148SAPE    HS16317   3.664   0.543  10.325 -1.9192  0.2386 -0.6697
  148SAPE   O2116318   3.840   0.567  10.201 -0.1101 -0.2918 -0.0917
  148SAPE   C2116319   3.810   0.450  10.139  0.0668 -0.2650  0.2374
  148SAPE   O2216320   3.713   0.383  10.163  0.5570  0.6421  0.2024
  148SAPE   C2216321   3.928   0.394  10.057 -0.9129  0.0322  0.1047
  148SAPE   H2R16322   3.942   0.455   9.966 -3.9750 -1.7221 -1.7101
  148SAPE   H2S16323   4.015   0.396  10.127  0.5569 -1.3140 -1.6116
  148SAPE    C316324   3.621   0.672  10.161  0.1158 -0.1624 -0.3677
  148SAPE    HX16325   3.548   0.718  10.232  0.3513 -0.2375 -0.0752
  148SAPE    HY16326   3.552   0.594  10.122 -1.4876  1.2880 -0.5241
  148SAPE   O3116327   3.673   0.751  10.053 -0.0095 -0.0954 -0.7102
  148SAPE   C3116328   3.676   0.880  10.061  0.5623 -0.5700 -0.8461
  148SAPE   O3216329   3.641   0.946  10.161  0.7141  0.5834  0.4917
  148SAPE   C3216330   3.722   0.941   9.929  0.0702 -0.1985  0.5381
  148SAPE   H2X16331   3.645   0.909   9.856 -1.0945 -1.7015  2.3028
  148SAPE   H2Y16332   3.825   0.902   9.910  1.2112  2.0683  1.6063
  148SAPE   C2316333   3.910   0.248  10.010 -0.5303 -0.2630 -0.2523
  148SAPE   H3R16334   3.865   0.186  10.091 -1.0781  0.4811  0.0195
  148SAPE   H3S16335   4.006   0.197   9.985  1.1583  3.2654 -1.6949
  148SAPE   C2416336   3.826   0.244   9.877 -0.0921  0.0851  0.0510
  148SAPE   H4R16337   3.732   0.299   9.894  0.7628  1.5046  0.3508
  148SAPE   H4S16338   3.802   0.139   9.850  2.4398 -0.9735  1.5324
  148SAPE   C2516339   3.897   0.304   9.754 -0.3505  0.8592  0.2330
  148SAPE   H5R16340   3.988   0.250   9.725 -0.2017  0.7136  0.9403
  148SAPE   C2616341   3.864   0.407   9.679  0.3269 -0.7835 -0.2095
  148SAPE   H6R16342   3.924   0.433   9.591 -2.2186 -0.5419 -1.9931
  148SAPE   C2716343   3.741   0.497   9.704  0.6497 -0.4660 -0.4719
  148SAPE   H7R16344   3.701   0.470   9.805  0.4071  0.9160 -0.1782
  148SAPE   H7S16345   3.660   0.490   9.629 -0.1655  1.3057  0.2100
  148SAPE   C2816346   3.790   0.640   9.721 -0.8982  0.5007 -0.0350
  148SAPE   H8R16347   3.813   0.673   9.824  1.2655  1.2048 -0.6902
  148SAPE   C2916348   3.835   0.727   9.627  0.1198 -0.2072 -0.3884
  148SAPE   H9R16349   3.874   0.823   9.663  0.7764 -1.3166  2.0823
  148SAPE  C21016350   3.831   0.703   9.475  0.0835  0.3994 -0.2510
  148SAPE  H10R16351   3.767   0.617   9.448 -1.8566  1.2267  1.4316
  148SAPE  H10S16352   3.935   0.674   9.447  0.0558 -1.4408  1.3663
  148SAPE  C21116353   3.796   0.823   9.402 -0.0210  0.0479  0.2676
  148SAPE  H11R16354   3.824   0.914   9.456 -0.9405  0.7854 -0.4494
  148SAPE  C21216355   3.738   0.838   9.278  0.0602 -0.2927 -0.1752
  148SAPE  H12R16356   3.733   0.937   9.231 -0.1366 -0.7825 -1.2003
  148SAPE  C21316357   3.683   0.722   9.201 -0.6043  0.2628 -0.4115
  148SAPE  H13R16358   3.580   0.706   9.240  0.0233 -0.7981  0.9110
  148SAPE  H13S16359   3.743   0.630   9.214  0.0831  0.7023 -0.4182
  148SAPE  C21416360   3.674   0.743   9.050 -0.1366 -0.2874 -0.0859
  148SAPE  H14R16361   3.598   0.807   9.004 -0.4709 -2.2000 -2.4642
  148SAPE  C21516362   3.745   0.665   8.961  0.7182  1.4967  0.7410
  148SAPE  H15R16363   3.709   0.662   8.857  0.3612 -1.5886  0.8616
  148SAPE  C21616364   3.845   0.555   8.981 -0.0474 -0.7387  0.0271
  148SAPE  H16R16365   3.857   0.539   9.091  0.7754 -0.4142 -0.0091
  148SAPE  H16S16366   3.930   0.582   8.915 -1.7972  1.2399 -1.5741
  148SAPE  C21716367   3.779   0.422   8.934 -0.7525 -0.5587 -0.3269
  148SAPE  H17R16368   3.768   0.424   8.823  1.3069 -1.0391 -0.5966
  148SAPE  H17S16369   3.686   0.400   8.990  0.1409 -1.9321  0.6783
  148SAPE  C21816370   3.881   0.304   8.961  0.2231 -0.4087 -1.0181
  148SAPE  H18R16371   3.902   0.326   9.068  1.6360  3.3856 -1.8994
  148SAPE  H18S16372   3.982   0.316   8.915  1.4084 -1.6714  1.0757
  148SAPE  C21916373   3.832   0.166   8.954 -0.6117  0.1906 -0.3191
  148SAPE  H19R16374   3.727   0.160   8.992 -0.0594 -1.2075  1.0880
  148SAPE  H19S16375   3.888   0.091   9.013 -0.5105 -1.0415 -1.9460
  148SAPE  C22016376   3.823   0.119   8.808  0.9587  0.2501  0.1358
  148SAPE  H20R16377   3.920   0.102   8.756  0.8564  0.2790 -0.0645
  148SAPE  H20S16378   3.777   0.205   8.755 -1.0575  0.0135  1.4331
  148SAPE  H20T16379   3.746   0.042   8.785 -1.1627  2.7734 -1.7624
  148SAPE   C3316380   3.725   1.096   9.935 -0.6253  0.8948  0.4615
  148SAPE   H3X16381   3.781   1.123  10.027  0.9676  1.3735 -0.6217
  148SAPE   H3Y16382   3.620   1.133   9.947 -1.0378 -0.2470  0.4578
  148SAPE   C3416383   3.796   1.158   9.813 -0.5355  0.0386  0.6079
  148SAPE   H4X16384   3.880   1.103   9.766 -2.6127 -1.6771 -1.4016
  148SAPE   H4Y16385   3.841   1.255   9.843 -1.0331  1.5038 -2.8742
  148SAPE   C3516386   3.698   1.174   9.696 -0.0677  0.1447  0.4893
  148SAPE   H5X16387   3.617   1.248   9.715 -0.6461 -0.4209  0.2722
  148SAPE   H5Y16388   3.650   1.074   9.690 -1.2672  0.5384  2.5075
  148SAPE   C3616389   3.770   1.221   9.568  0.0451 -0.1559 -0.5629
  148SAPE   H6X16390   3.843   1.151   9.522  2.1562  1.7287 -0.2923
  148SAPE   H6Y16391   3.831   1.305   9.608  0.1775 -0.8928  0.8371
  148SAPE   C3716392   3.659   1.268   9.472  0.0585  0.0695  0.2261
  148SAPE   H7X16393   3.576   1.319   9.525 -0.7344  0.0407 -0.9487
  148SAPE   H7Y16394   3.611   1.175   9.434 -1.4489  1.4293 -1.3224
  148SAPE   C3816395   3.706   1.360   9.361 -0.4515  0.5114  0.7457
  148SAPE   H8X16396   3.782   1.313   9.295 -1.5015 -0.6996  0.3574
  148SAPE   H8Y16397   3.758   1.445   9.409  1.1492 -1.6278  3.0791
  148SAPE   C3916398   3.594   1.416   9.267 -0.0006  0.8032 -0.2038
  148SAPE   H9X16399   3.527   1.476   9.332 -2.9720 -0.7824 -1.5971
  148SAPE   H9Y16400   3.528   1.333   9.235  0.7452  0.8608 -2.0558
  148SAPE  C31016401   3.649   1.494   9.141  0.2087  0.3392 -0.2812
  148SAPE  H10X16402   3.726   1.426   9.098 -0.4421 -0.0912 -0.7710
  148SAPE  H10Y16403   3.710   1.579   9.179 -1.3949  1.3703  0.0792
  148SAPE  C31116404   3.538   1.528   9.039 -0.3896  0.8576  0.1040
  148SAPE  H11X16405   3.563   1.589   8.950  0.6565 -0.0680 -0.2563
  148SAPE  H11Y16406   3.458   1.585   9.090 -1.5860  1.5375 -2.3785
  148SAPE  C31216407   3.461   1.405   8.971 -0.6760 -0.6493 -0.2788
  148SAPE  H12X16408   3.419   1.345   9.054 -0.5616 -0.5419 -0.1416
  148SAPE  H12Y16409   3.537   1.340   8.921 -2.0237  0.6816 -4.4723
  148SAPE  C31316410   3.349   1.430   8.866 -0.1853 -0.1393  0.5581
  148SAPE  H13X16411   3.403   1.482   8.784 -1.5646 -0.9614 -0.9409
  148SAPE  H13Y16412   3.276   1.500   8.912  0.4127 -0.4431  1.9997
  148SAPE  C31416413   3.281   1.304   8.820  0.0027 -0.3825  0.6003
  148SAPE  H14X16414   3.224   1.257   8.904 -0.1214 -0.8764  0.2483
  148SAPE  H14Y16415   3.371   1.240   8.803  0.7382  0.5678  0.8710
  148SAPE  C31516416   3.202   1.312   8.689 -0.5672 -0.3035 -0.0966
  148SAPE  H15X16417   3.263   1.323   8.597 -0.4676 -1.1896 -0.1482
  148SAPE  H15Y16418   3.164   1.416   8.691  0.8189  0.2128 -0.1101
  148SAPE  C31616419   3.081   1.222   8.673  0.3241  0.1208  0.6193
  148SAPE  H16X16420   3.017   1.267   8.593  3.3611 -1.2404 -2.9029
  148SAPE  H16Y16421   3.014   1.232   8.761  0.6624  0.6748  0.8197
  148SAPE  C31716422   3.112   1.074   8.646 -0.1808 -0.4496  0.2459
  148SAPE  H17X16423   3.157   1.031   8.738  0.3950  0.5439  0.4428
  148SAPE  H17Y16424   3.188   1.069   8.565 -0.6110 -1.3532 -0.1207
  148SAPE  C31816425   2.983   1.008   8.605 -0.2454  0.3406 -0.5832
  148SAPE  H18X16426   2.936   1.054   8.516 -2.0508  1.4715  0.8718
  148SAPE  H18Y16427   2.903   1.022   8.680  0.0036 -0.4364 -0.1569
  148SAPE  H18Z16428   2.994   0.901   8.575  1.3607  0.4001 -0.2827
  149SAPE     N16429   5.347   2.390  11.010  0.0180  0.2466 -0.0038
  149SAPE   HN116430   5.245   2.410  11.016  0.4689  2.3383  2.5139
  149SAPE   HN216431   5.382   2.441  10.926  0.5448 -0.4212 -0.2037
  149SAPE   HN316432   5.368   2.288  11.001  3.3127  0.7118  1.0716
  149SAPE   C1216433   5.428   2.438  11.127  0.6679  0.2117 -0.0607
  149SAPE  H12A16434   5.524   2.381  11.128 -0.3650 -1.7709  3.5599
  149SAPE  H12B16435   5.362   2.417  11.213 -1.0429  0.3091 -1.3102
  149SAPE   C1116436   5.445   2.588  11.120 -0.4506 -0.5198  0.2175
  149SAPE  H11A16437   5.468   2.633  11.219 -0.1491  0.7700 -0.4233
  149SAPE  H11B16438   5.349   2.638  11.098  0.0024  0.3813  0.2539
  149SAPE     P16439   5.625   2.768  11.024  0.7926  0.1246 -0.2300
  149SAPE   O1316440   5.691   2.773  11.154  0.7136 -0.0890  0.7121
  149SAPE   O1416441   5.709   2.792  10.907  0.1760 -0.2657  0.1555
  149SAPE   O1216442   5.538   2.632  11.020  0.3236  0.2690  0.5782
  149SAPE   O1116443   5.517   2.882  11.021 -0.1214  0.4975 -0.2577
  149SAPE    C116444   5.413   2.883  10.918 -0.4993 -0.5006  0.2308
  149SAPE    HA16445   5.386   2.781  10.884 -0.3724 -0.7661  0.9000
  149SAPE    HB16446   5.328   2.935  10.967  0.7002  1.6942  0.1289
  149SAPE    C216447   5.449   2.959  10.781  0.9047 -0.2907 -0.7422
  149SAPE    HS16448   5.357   2.947  10.720  0.2919  1.1704 -0.1595
  149SAPE   O2116449   5.558   2.906  10.706 -0.2542  0.4714 -0.3397
  149SAPE   C2116450   5.522   2.785  10.652 -0.3494 -0.2681 -0.1037
  149SAPE   O2216451   5.414   2.731  10.669 -0.5199  0.2187  0.4633
  149SAPE   C2216452   5.635   2.741  10.555  0.2851 -1.1932 -0.9379
  149SAPE   H2R16453   5.640   2.819  10.476 -1.3964  0.1950  0.2629
  149SAPE   H2S16454   5.728   2.759  10.614 -1.2309  2.4081  0.6419
  149SAPE    C316455   5.470   3.106  10.791 -0.3476 -0.2182 -1.3260
  149SAPE    HX16456   5.559   3.102  10.856 -1.8865  0.3496  0.9473
  149SAPE    HY16457   5.389   3.163  10.842  1.1379  0.3558  0.4864
  149SAPE   O3116458   5.498   3.173  10.661 -0.3186  0.7307  0.2988
  149SAPE   C3116459   5.588   3.268  10.655 -0.1668 -0.0030  0.3951
  149SAPE   O3216460   5.664   3.298  10.744 -0.1147  0.3472 -0.1711
  149SAPE   C3216461   5.586   3.336  10.516  0.4016 -0.4196 -0.0590
  149SAPE   H2X16462   5.575   3.440  10.551  0.0908 -1.3450  2.8196
  149SAPE   H2Y16463   5.497   3.319  10.452  1.4214  2.3349 -2.4808
  149SAPE   C2316464   5.610   2.609  10.475 -0.3628 -0.6502 -0.1230
  149SAPE   H3R16465   5.583   2.527  10.544  0.9784 -0.4787  0.6401
  149SAPE   H3S16466   5.704   2.586  10.419  0.3330  0.9372  0.3382
  149SAPE   C2416467   5.495   2.613  10.372  0.2542  0.7959 -0.0316
  149SAPE   H4R16468   5.502   2.710  10.319 -0.7330  0.6123 -0.5137
  149SAPE   H4S16469   5.399   2.623  10.425  0.8472  0.4951  1.1383
  149SAPE   C2516470   5.487   2.499  10.277  0.2089  0.1587 -0.3473
  149SAPE   H5R16471   5.492   2.399  10.322 -0.2655 -0.0136 -0.6753
  149SAPE   C2616472   5.495   2.496  10.146  0.1402 -0.5040 -0.9546
  149SAPE   H6R16473   5.474   2.399  10.100  0.9171 -0.8418 -0.6214
  149SAPE   C2716474   5.492   2.604  10.040  0.0242  0.0847 -0.3019
  149SAPE   H7R16475   5.464   2.700  10.089  2.4327 -0.2047  1.7852
  149SAPE   H7S16476   5.405   2.578   9.975 -0.7899 -0.1961  0.8746
  149SAPE   C2816477   5.627   2.603   9.977 -0.3943  0.5893 -0.3588
  149SAPE   H8R16478   5.715   2.615  10.042 -0.8797  0.7289  0.2849
  149SAPE   C2916479   5.646   2.595   9.844 -0.0310 -0.4798  0.9028
  149SAPE   H9R16480   5.747   2.593   9.800 -0.6563  2.0832 -0.8968
  149SAPE  C21016481   5.531   2.587   9.747 -1.1551 -0.4585 -0.1614
  149SAPE  H10R16482   5.468   2.498   9.772 -0.8920 -0.6962 -0.3372
  149SAPE  H10S16483   5.571   2.553   9.649 -0.3442 -0.4282  0.1552
  149SAPE  C21116484   5.452   2.712   9.741  0.3890 -0.1498 -0.2325
  149SAPE  H11R16485   5.439   2.771   9.833 -1.4064  0.4700 -0.8219
  149SAPE  C21216486   5.396   2.760   9.628 -0.0923 -0.2424  1.0330
  149SAPE  H12R16487   5.365   2.866   9.630  1.5390  0.2592  1.6855
  149SAPE  C21316488   5.403   2.704   9.482 -0.1140  0.0575  0.4748
  149SAPE  H13R16489   5.336   2.616   9.468  1.0144 -1.0277  1.5747
  149SAPE  H13S16490   5.504   2.665   9.458 -1.3668 -1.2192 -3.4990
  149SAPE  C21416491   5.362   2.811   9.383 -0.0886 -0.0918  0.2773
  149SAPE  H14R16492   5.254   2.830   9.386 -0.3460 -1.5138  1.0404
  149SAPE  C21516493   5.436   2.879   9.290 -0.4004  0.1688 -0.1090
  149SAPE  H15R16494   5.387   2.954   9.226 -2.1087 -0.9434 -0.1613
  149SAPE  C21616495   5.584   2.866   9.273 -0.2688  0.5586  0.1803
  149SAPE  H16R16496   5.633   2.828   9.365 -2.6499  0.8225  1.6235
  149SAPE  H16S16497   5.634   2.964   9.257  3.2056 -0.9669  0.7716
  149SAPE  C21716498   5.617   2.771   9.150 -0.0991  0.0151 -0.3813
  149SAPE  H17R16499   5.544   2.688   9.161  1.2896 -1.1636  0.3189
  149SAPE  H17S16500   5.722   2.735   9.159 -0.7067 -2.3124 -1.7799
  149SAPE  C21816501   5.598   2.825   9.007 -0.4204 -0.0258 -0.2279
  149SAPE  H18R16502   5.673   2.905   8.990 -1.2135  0.4499 -1.6608
  149SAPE  H18S16503   5.496   2.866   8.991 -0.3985  0.7722  1.5247
  149SAPE  C21916504   5.618   2.711   8.912  0.3618  0.0254 -0.2388
  149SAPE  H19R16505   5.519   2.665   8.893  0.1672 -0.0702  0.9069
  149SAPE  H19S16506   5.688   2.633   8.950  2.1932  1.3755 -0.7049
  149SAPE  C22016507   5.676   2.751   8.777  0.5917  0.0344 -0.1023
  149SAPE  H20R16508   5.786   2.756   8.789  0.5345  0.0099  0.4630
  149SAPE  H20S16509   5.642   2.854   8.755  0.2628 -0.4219 -1.8579
  149SAPE  H20T16510   5.638   2.687   8.694 -1.8305 -1.2954  1.8641
  149SAPE   C3316511   5.724   3.323  10.452 -0.8867  0.2869 -0.4031
  149SAPE   H3X16512   5.794   3.345  10.535  0.0684 -0.6375 -0.9450
  149SAPE   H3Y16513   5.739   3.393  10.366  0.1330 -0.7108 -1.0678
  149SAPE   C3416514   5.747   3.179  10.392  0.7955  0.1528 -0.0948
  149SAPE   H4X16515   5.726   3.176  10.283 -0.5422 -1.6784  0.1748
  149SAPE   H4Y16516   5.680   3.105  10.442  1.2422 -0.7217 -0.7522
  149SAPE   C3516517   5.895   3.125  10.410  0.5525  0.4698 -0.6909
  149SAPE   H5X16518   5.929   3.150  10.512  1.7810 -0.5201 -0.8260
  149SAPE   H5Y16519   5.958   3.181  10.338  0.7523 -2.2279 -2.8085
  149SAPE   C3616520   5.921   2.976  10.369 -0.2925 -0.2052  0.0770
  149SAPE   H6X16521   5.895   2.915  10.458 -3.6458  0.1515 -0.5065
  149SAPE   H6Y16522   6.031   2.964  10.365 -0.0000  2.0802  0.0166
  149SAPE   C3716523   5.853   2.927  10.241  0.0381 -0.0132  0.0996
  149SAPE   H7X16524   5.746   2.922  10.271  0.8386 -0.4926  3.2375
  149SAPE   H7Y16525   5.886   2.822  10.226  0.7859  0.1421  0.5991
  149SAPE   C3816526   5.887   3.004  10.118  0.3906  0.3749 -0.0812
  149SAPE   H8X16527   5.998   3.008  10.112  0.4225  0.7696  0.6130
  149SAPE   H8Y16528   5.848   3.108  10.129 -1.3067 -0.1808 -0.4622
  149SAPE   C3916529   5.825   2.940   9.996  0.1898  0.5331 -0.2523
  149SAPE   H9X16530   5.714   2.931  10.006  0.5245 -1.5232  2.7457
  149SAPE   H9Y16531   5.879   2.845   9.978 -1.8501 -0.6899 -0.2442
  149SAPE  C31016532   5.843   3.016   9.866  0.4599 -0.4966 -0.6178
  149SAPE  H10X16533   5.950   3.030   9.842  0.8662 -0.9950  0.8042
  149SAPE  H10Y16534   5.797   3.117   9.861  1.0096  0.3601  4.9627
  149SAPE  C31116535   5.784   2.936   9.742  0.1741  0.0314 -0.1075
  149SAPE  H11X16536   5.679   2.905   9.760  0.4873 -0.3147  1.2768
  149SAPE  H11Y16537   5.834   2.840   9.718 -0.0135 -0.0455 -0.1946
  149SAPE  C31216538   5.798   3.014   9.619  0.1123 -0.1208  0.8202
  149SAPE  H12X16539   5.749   3.113   9.627 -1.1579 -0.5432 -0.8788
  149SAPE  H12Y16540   5.735   2.948   9.555  0.4965 -0.2374  0.5590
  149SAPE  C31316541   5.940   3.026   9.581 -0.6980  0.4632 -0.0903
  149SAPE  H13X16542   6.000   2.933   9.580 -0.8195  0.3829 -0.0046
  149SAPE  H13Y16543   5.990   3.100   9.648  0.2567  0.4795 -0.7926
  149SAPE  C31416544   5.961   3.085   9.433 -0.0972  0.2827  0.5172
  149SAPE  H14X16545   5.887   3.167   9.428  0.1862  0.4623 -1.3208
  149SAPE  H14Y16546   5.945   3.009   9.354  2.6069 -0.6960  0.8071
  149SAPE  C31516547   6.096   3.136   9.399 -0.5371  0.0313 -0.0553
  149SAPE  H15X16548   6.163   3.047   9.405 -1.4567 -0.7880 -1.3942
  149SAPE  H15Y16549   6.142   3.205   9.472  0.7757  0.6038 -1.3736
  149SAPE  C31616550   6.108   3.214   9.266  0.3433  0.3084 -0.1667
  149SAPE  H16X16551   6.208   3.263   9.259  1.7512 -2.2485  1.0344
  149SAPE  H16Y16552   6.024   3.287   9.270  1.0660  1.1289  0.3354
  149SAPE  C31716553   6.088   3.131   9.139  0.4507 -0.1185  0.1782
  149SAPE  H17X16554   6.030   3.040   9.162  2.4591 -1.2915  0.8504
  149SAPE  H17Y16555   6.178   3.077   9.103  1.7025  3.0410 -1.9042
  149SAPE  C31816556   6.031   3.190   9.009 -0.9648  0.0859 -0.0753
  149SAPE  H18X16557   6.101   3.263   8.963 -0.6353 -0.8251 -1.0494
  149SAPE  H18Y16558   5.936   3.242   9.033 -0.1002  1.5932  0.1995
  149SAPE  H18Z16559   6.010   3.105   8.941 -3.8901  1.1577 -0.6356
  150SAPE     N16560   0.922   3.853  10.967  0.4544 -0.1088 -0.3376
  150SAPE   HN116561   0.981   3.807  11.040 -0.1735 -1.1246 -0.4473
  150SAPE   HN216562   0.896   3.948  11.002  1.3752 -0.0194  0.1384
  150SAPE   HN316563   0.834   3.799  10.957  0.4458  0.0978 -1.5360
  150SAPE   C1216564   0.984   3.862  10.828  0.6371 -0.1443 -1.1294
  150SAPE  H12A16565   1.046   3.769  10.827  0.9235 -0.4314  4.7515
  150SAPE  H12B16566   1.043   3.956  10.821  0.1266  0.3511  0.7331
  150SAPE   C1116567   0.878   3.859  10.721  0.1405 -0.5335  0.5214
  150SAPE  H11A16568   0.929   3.875  10.623 -0.9905  0.7109  0.1192
  150SAPE  H11B16569   0.809   3.946  10.722  0.4575 -0.2745  1.7906
  150SAPE     P16570   0.802   3.630  10.638 -0.1822  0.0059  0.2990
  150SAPE   O1316571   0.941   3.585  10.630  0.1828  0.0810 -0.4629
  150SAPE   O1416572   0.707   3.530  10.689 -0.1071  0.2705 -0.5250
  150SAPE   O1216573   0.794   3.748  10.737  0.0596  0.2411 -0.3390
  150SAPE   O1116574   0.754   3.695  10.505  0.4227 -0.1589 -0.2669
  150SAPE    C116575   0.640   3.782  10.499  0.1745  0.7563 -0.3056
  150SAPE    HA16576   0.567   3.754  10.577  3.4479 -1.3378  2.2754
  150SAPE    HB16577   0.669   3.882  10.537  2.3067  0.0292  0.1758
  150SAPE    C216578   0.570   3.793  10.366 -0.2614  0.9335  0.1059
  150SAPE    HS16579   0.464   3.828  10.369 -1.4558 -2.2933 -0.7224
  150SAPE   O2116580   0.576   3.661  10.300 -0.2901  0.2815  0.3641
  150SAPE   C2116581   0.502   3.567  10.363 -0.3318  0.7018  0.3247
  150SAPE   O2216582   0.422   3.596  10.444 -0.4705 -0.4544 -0.2843
  150SAPE   C2216583   0.530   3.431  10.294 -0.2929  0.3302 -0.5691
  150SAPE   H2R16584   0.637   3.403  10.294 -0.0969  0.8488  1.6107
  150SAPE   H2S16585   0.483   3.363  10.368  0.8655  2.5024  2.3816
  150SAPE    C316586   0.651   3.892  10.269  0.5006 -0.1199  0.0694
  150SAPE    HX16587   0.758   3.870  10.285  1.1766  2.0492 -1.0989
  150SAPE    HY16588   0.631   3.993  10.310 -0.2047 -0.2577  0.0924
  150SAPE   O3116589   0.622   3.890  10.128  0.0515 -0.2836  0.2365
  150SAPE   C3116590   0.697   3.965  10.046 -0.0771  0.4390 -0.4811
  150SAPE   O3216591   0.774   4.050  10.089  0.4253  0.6190 -0.3111
  150SAPE   C3216592   0.673   3.923   9.905  0.1090  0.6844 -1.5679
  150SAPE   H2X16593   0.568   3.892   9.885  0.2878 -0.1511 -1.2329
  150SAPE   H2Y16594   0.732   3.834   9.876 -1.5090 -0.7706 -0.5776
  150SAPE   C2316595   0.472   3.415  10.153 -0.2764  1.0343  0.5906
  150SAPE   H3R16596   0.516   3.471  10.068  0.1434  0.0450  0.1444
  150SAPE   H3S16597   0.365   3.442  10.150  0.0850  2.4525 -1.0477
  150SAPE   C2416598   0.484   3.261  10.111  0.7811 -0.3125 -0.4445
  150SAPE   H4R16599   0.444   3.211  10.201 -0.9655  1.9118  0.1008
  150SAPE   H4S16600   0.594   3.243  10.112  0.9390  0.5859  1.0946
  150SAPE   C2516601   0.409   3.204   9.995 -0.1477 -0.4211 -0.0885
  150SAPE   H5R16602   0.300   3.192  10.005  0.0391 -1.6307  0.7106
  150SAPE   C2616603   0.451   3.187   9.870 -0.1517  0.0489 -0.2858
  150SAPE   H6R16604   0.376   3.143   9.803 -1.1199 -2.5627  2.3167
  150SAPE   C2716605   0.576   3.212   9.798 -0.1096 -0.6370 -0.6209
  150SAPE   H7R16606   0.660   3.224   9.870  0.4889  2.4712 -1.6791
  150SAPE   H7S16607   0.558   3.303   9.737  0.8585 -1.3433 -2.0146
  150SAPE   C2816608   0.599   3.105   9.701 -1.0888  0.1920 -0.0208
  150SAPE   H8R16609   0.606   3.003   9.742  0.1356  0.4706  0.5241
  150SAPE   C2916610   0.598   3.112   9.567 -0.0295 -1.6358  0.3026
  150SAPE   H9R16611   0.626   3.017   9.519 -0.4980 -2.3620  1.4136
  150SAPE  C21016612   0.566   3.236   9.492  0.0615 -1.1337  1.0229
  150SAPE  H10R16613   0.469   3.277   9.526 -0.1300 -0.7943  0.1080
  150SAPE  H10S16614   0.537   3.222   9.385 -1.0814  3.1639  0.5848
  150SAPE  C21116615   0.661   3.355   9.507  0.6514 -0.3831  1.1788
  150SAPE  H11R16616   0.727   3.341   9.594  0.1291 -0.2605  1.5967
  150SAPE  C21216617   0.678   3.463   9.424 -0.5033  0.0742  0.3035
  150SAPE  H12R16618   0.739   3.543   9.469  1.8109  1.1394 -4.1072
  150SAPE  C21316619   0.606   3.510   9.294 -0.3174 -0.8566  0.1979
  150SAPE  H13R16620   0.530   3.588   9.315  1.1391  0.3529  1.1659
  150SAPE  H13S16621   0.538   3.430   9.259 -2.1531  1.3805 -1.6701
  150SAPE  C21416622   0.697   3.554   9.175  0.2873  0.1759 -0.6277
  150SAPE  H14R16623   0.780   3.617   9.212 -0.1881 -0.2224  1.2559
  150SAPE  C21516624   0.693   3.521   9.047 -0.3311  0.3550 -0.1069
  150SAPE  H15R16625   0.763   3.572   8.978 -2.0886  1.5611 -1.0743
  150SAPE  C21616626   0.589   3.440   8.970  0.7485  0.2382  0.4642
  150SAPE  H16R16627   0.516   3.501   8.913  0.4042 -1.7575 -1.3753
  150SAPE  H16S16628   0.530   3.364   9.026  0.9278 -0.9698 -0.9184
  150SAPE  C21716629   0.648   3.354   8.853 -0.4806  0.3432  0.4293
  150SAPE  H17R16630   0.751   3.318   8.876  0.5264  2.0692 -1.1009
  150SAPE  H17S16631   0.678   3.426   8.774  2.7383 -0.5153  0.7473
  150SAPE  C21816632   0.552   3.248   8.792  0.5725  0.1759 -0.0082
  150SAPE  H18R16633   0.467   3.320   8.783  1.3030  1.0594 -0.0361
  150SAPE  H18S16634   0.533   3.166   8.864 -2.6652 -0.6519 -1.6326
  150SAPE  C21916635   0.576   3.191   8.653  0.9392  0.1002 -0.2863
  150SAPE  H19R16636   0.648   3.107   8.650 -0.5953 -1.5621  3.5262
  150SAPE  H19S16637   0.611   3.273   8.586  0.8447 -1.2716 -2.0933
  150SAPE  C22016638   0.439   3.149   8.593  0.1191 -0.2225 -0.1365
  150SAPE  H20R16639   0.413   3.045   8.619  2.4464 -1.1457 -1.2464
  150SAPE  H20S16640   0.428   3.165   8.483 -2.2364  1.2324  0.2360
  150SAPE  H20T16641   0.359   3.212   8.638 -0.9720 -0.4704 -1.6496
  150SAPE   C3316642   0.713   4.029   9.803  0.4732 -0.5052  0.0669
  150SAPE   H3X16643   0.818   4.065   9.810  0.3915 -0.1939 -0.2948
  150SAPE   H3Y16644   0.632   4.104   9.818  0.2177 -0.5617 -0.9800
  150SAPE   C3416645   0.689   3.971   9.660  0.0757  0.5597  0.3581
  150SAPE   H4X16646   0.659   4.048   9.586 -1.5657 -1.0886 -0.7760
  150SAPE   H4Y16647   0.608   3.895   9.663 -1.9398  2.6199  0.1167
  150SAPE   C3516648   0.817   3.903   9.609  0.4204 -0.2954  0.4910
  150SAPE   H5X16649   0.828   3.801   9.653 -2.9667 -1.1903 -0.4861
  150SAPE   H5Y16650   0.901   3.972   9.633 -0.3097  0.6976  0.2272
  150SAPE   C3616651   0.813   3.894   9.458 -0.6250  0.4033  0.7295
  150SAPE   H6X16652   0.782   3.993   9.418  0.3468  1.2647  2.0246
  150SAPE   H6Y16653   0.729   3.824   9.437 -1.1558  1.1042  0.4988
  150SAPE   C3716654   0.945   3.844   9.391 -0.0762  0.1401 -0.0133
  150SAPE   H7X16655   0.944   3.735   9.414 -2.1147  0.0713 -0.2989
  150SAPE   H7Y16656   1.034   3.897   9.431  0.0486  1.1633 -1.5857
  150SAPE   C3816657   0.944   3.873   9.242  0.2127 -0.6147 -0.3601
  150SAPE   H8X16658   0.939   3.979   9.209  1.5327 -0.2150  0.6560
  150SAPE   H8Y16659   0.846   3.827   9.214  1.0541 -1.8028 -1.4481
  150SAPE   C3916660   1.042   3.786   9.160  0.0241  0.1576  0.5241
  150SAPE   H9X16661   0.996   3.686   9.176 -1.6756  0.9461  0.8541
  150SAPE   H9Y16662   1.145   3.802   9.197 -0.0325 -0.2256  0.8565
  150SAPE  C31016663   1.030   3.814   9.008  0.6034  0.0036 -0.2264
  150SAPE  H10X16664   1.035   3.925   8.997 -0.4072  0.6079  3.8747
  150SAPE  H10Y16665   0.927   3.790   8.977  0.0657  0.6066  1.0041
  150SAPE  C31116666   1.133   3.733   8.930 -0.1205  0.3190  0.0311
  150SAPE  H11X16667   1.227   3.785   8.960  0.3591  0.2314 -1.2508
  150SAPE  H11Y16668   1.128   3.752   8.821 -0.3090  3.6068  0.5013
  150SAPE  C31216669   1.147   3.586   8.961 -0.1580  0.2345 -0.2701
  150SAPE  H12X16670   1.124   3.568   9.068  0.8681  0.7743  0.0537
  150SAPE  H12Y16671   1.254   3.557   8.951 -0.0109  0.8602 -0.5941
  150SAPE  C31316672   1.060   3.488   8.878 -0.0075  0.1817  0.4846
  150SAPE  H13X16673   1.049   3.537   8.779 -1.8878 -0.8260  0.1499
  150SAPE  H13Y16674   0.954   3.488   8.915 -0.2985  1.4673 -0.2846
  150SAPE  C31416675   1.116   3.349   8.877 -0.0145  0.0093  0.5532
  150SAPE  H14X16676   1.226   3.364   8.868  0.1344 -0.4086  1.5957
  150SAPE  H14Y16677   1.085   3.302   8.781 -1.6966  2.2291 -0.0856
  150SAPE  C31516678   1.085   3.252   8.988  0.0667  0.4901 -0.2810
  150SAPE  H15X16679   0.980   3.217   8.980  0.1936  0.0642 -0.0982
  150SAPE  H15Y16680   1.099   3.298   9.088 -2.1013 -1.1299  0.8687
  150SAPE  C31616681   1.160   3.124   8.963  0.0799  0.0710 -0.0660
  150SAPE  H16X16682   1.262   3.147   9.001  0.3086 -0.3748 -0.4006
  150SAPE  H16Y16683   1.163   3.097   8.856 -0.4867 -0.5438  0.0660
  150SAPE  C31716684   1.118   3.002   9.047  0.4954 -0.0835 -0.2148
  150SAPE  H17X16685   1.011   2.974   9.036 -0.1924  1.6383  1.5310
  150SAPE  H17Y16686   1.128   3.044   9.149 -1.2223  0.8578 -0.3868
  150SAPE  C31816687   1.208   2.876   9.030  0.1083 -0.3200 -0.9725
  150SAPE  H18X16688   1.316   2.901   9.042 -0.0290 -1.0004  3.1372
  150SAPE  H18Y16689   1.190   2.826   8.933 -1.8153 -1.0522 -0.2888
  150SAPE  H18Z16690   1.192   2.802   9.111  1.4062 -1.1700 -1.4715
  151SAPE     N16691   3.757   6.299  10.673 -0.5260  0.1571  0.1191
  151SAPE   HN116692   3.779   6.230  10.747 -0.2681  0.8262  0.6824
  151SAPE   HN216693   3.666   6.290  10.624  0.8164  1.2531 -2.8494
  151SAPE   HN316694   3.831   6.287  10.601 -0.0457 -2.9599  1.0221
  151SAPE   C1216695   3.775   6.435  10.738 -0.8892 -0.4849 -0.5145
  151SAPE  H12A16696   3.693   6.453  10.811 -1.1462  1.0731 -1.1528
  151SAPE  H12B16697   3.770   6.512  10.658  2.0171 -0.6157 -0.9280
  151SAPE   C1116698   3.914   6.441  10.815  0.5807 -0.0447 -0.9552
  151SAPE  H11A16699   3.896   6.361  10.890 -0.7662  0.8696 -0.2511
  151SAPE  H11B16700   3.915   6.538  10.869  0.4119  0.6211 -2.1198
  151SAPE     P16701   4.087   6.530  10.640  0.0311  0.1046  0.1580
  151SAPE   O1316702   4.084   6.667  10.707  0.1637 -0.2376 -0.2002
  151SAPE   O1416703   4.220   6.481  10.589 -0.4491 -0.5659 -0.0835
  151SAPE   O1216704   4.029   6.419  10.733 -0.1125  0.5345 -0.5102
  151SAPE   O1116705   3.983   6.521  10.527 -0.3996 -0.4785  0.2291
  151SAPE    C116706   3.940   6.630  10.444 -0.1207  0.1980  0.9376
  151SAPE    HA16707   3.844   6.676  10.473  0.2448  1.7152 -0.1609
  151SAPE    HB16708   4.004   6.719  10.462 -1.2621  1.7912 -2.1865
  151SAPE    C216709   3.963   6.593  10.298  0.0532  0.1013  1.0474
  151SAPE    HS16710   3.929   6.686  10.248  0.6491  0.7701  1.8458
  151SAPE   O2116711   3.891   6.471  10.256 -0.5454 -0.0679  0.1659
  151SAPE   C2116712   3.761   6.489  10.221  0.6009 -0.5916  0.0711
  151SAPE   O2216713   3.702   6.591  10.244  0.0774 -0.3306  0.2684
  151SAPE   C2216714   3.695   6.357  10.160 -0.4720  0.1722 -0.6573
  151SAPE   H2R16715   3.742   6.323  10.065  0.1018 -0.4511 -0.1577
  151SAPE   H2S16716   3.726   6.277  10.231 -3.1761 -1.4943 -1.1612
  151SAPE    C316717   4.109   6.582  10.258 -0.7660  0.2515 -0.0250
  151SAPE    HX16718   4.170   6.498  10.298  1.1263  1.0314 -1.1374
  151SAPE    HY16719   4.162   6.676  10.286 -1.5014  0.6441  0.0794
  151SAPE   O3116720   4.115   6.575  10.108 -0.8159 -0.8063  1.0483
  151SAPE   C3116721   4.127   6.685  10.045 -0.2652  0.5281  0.3332
  151SAPE   O3216722   4.141   6.797  10.097  0.3205  0.1102  0.0544
  151SAPE   C3216723   4.124   6.663   9.890 -0.2282 -0.2511 -0.3328
  151SAPE   H2X16724   4.230   6.639   9.864  0.0826  1.6415 -0.9861
  151SAPE   H2Y16725   4.098   6.759   9.840  0.0056  0.0159  0.0517
  151SAPE   C2316726   3.543   6.374  10.151 -0.0202 -0.2143  0.5233
  151SAPE   H3R16727   3.512   6.447  10.073  0.7497 -0.0365  0.3792
  151SAPE   H3S16728   3.513   6.396  10.256 -1.0481  2.0385 -0.1822
  151SAPE   C2416729   3.477   6.239  10.105  0.4832 -0.0259 -0.4877
  151SAPE   H4R16730   3.509   6.171  10.187  1.1984 -0.4546 -1.1038
  151SAPE   H4S16731   3.526   6.215  10.008 -0.8068 -0.8933 -0.9530
  151SAPE   C2516732   3.329   6.255  10.093 -0.5747 -0.0982 -0.3571
  151SAPE   H5R16733   3.294   6.310  10.182 -2.6661  0.3068 -1.3644
  151SAPE   C2616734   3.250   6.226   9.987 -0.5424 -0.5721 -0.3885
  151SAPE   H6R16735   3.149   6.270   9.984 -0.2343  0.1631 -0.3419
  151SAPE   C2716736   3.279   6.159   9.864 -0.3064  0.1739 -0.4499
  151SAPE   H7R16737   3.379   6.111   9.874 -0.0588  1.0934  2.3767
  151SAPE   H7S16738   3.301   6.222   9.775  1.7931  0.2221  0.0370
  151SAPE   C2816739   3.177   6.045   9.847 -0.5216 -0.0722  0.5561
  151SAPE   H8R16740   3.146   5.984   9.933 -0.8851  1.6112  1.6673
  151SAPE   C2916741   3.141   6.004   9.721  0.5779  0.9660 -0.3941
  151SAPE   H9R16742   3.059   5.930   9.722  0.9772  0.5248  0.1431
  151SAPE  C21016743   3.185   6.050   9.586 -0.4975 -0.0692 -0.8732
  151SAPE  H10R16744   3.222   5.962   9.529  0.5989 -0.2786  0.1234
  151SAPE  H10S16745   3.276   6.111   9.602 -0.5769 -0.4504  1.2808
  151SAPE  C21116746   3.084   6.139   9.514 -0.3132  0.0448 -0.5573
  151SAPE  H11R16747   3.007   6.172   9.586  0.4490 -1.1285  0.8493
  151SAPE  C21216748   3.076   6.183   9.392 -1.0142  0.0058 -0.6496
  151SAPE  H12R16749   3.003   6.259   9.362 -0.6204  0.0016 -1.6535
  151SAPE  C21316750   3.164   6.148   9.276 -0.2172  0.0252  0.7393
  151SAPE  H13R16751   3.164   6.040   9.251  2.6822  0.0893  0.0170
  151SAPE  H13S16752   3.268   6.175   9.303  0.4929 -0.0897 -1.6046
  151SAPE  C21416753   3.138   6.223   9.149 -0.1280 -0.1478 -1.2987
  151SAPE  H14R16754   3.193   6.318   9.144  0.6518 -0.5474 -0.5401
  151SAPE  C21516755   3.085   6.180   9.038  0.0811  0.3389  1.2668
  151SAPE  H15R16756   3.054   6.254   8.962  0.5326 -2.5231 -1.9632
  151SAPE  C21616757   3.034   6.046   9.005 -0.0087 -0.1331  1.0717
  151SAPE  H16R16758   3.022   5.970   9.085 -0.8024  0.2324  1.3008
  151SAPE  H16S16759   3.092   5.989   8.928 -0.1007 -0.0828  0.9646
  151SAPE  C21716760   2.892   6.046   8.947 -0.4598  0.1548  0.2798
  151SAPE  H17R16761   2.825   6.099   9.017 -0.6456  1.3939 -0.8119
  151SAPE  H17S16762   2.849   5.944   8.939  0.9549 -0.6841  2.2780
  151SAPE  C21816763   2.886   6.113   8.806  0.0603 -0.1252  0.2313
  151SAPE  H18R16764   2.975   6.084   8.745  0.3644 -2.2094  1.5601
  151SAPE  H18S16765   2.882   6.223   8.817  1.0118 -0.0960  0.3693
  151SAPE  C21916766   2.754   6.074   8.741  0.7201 -0.4538  0.0009
  151SAPE  H19R16767   2.659   6.116   8.780 -1.4474 -0.9118 -4.1729
  151SAPE  H19S16768   2.737   5.966   8.760  1.0398 -0.5451 -0.2212
  151SAPE  C22016769   2.750   6.095   8.591 -0.1807  0.2351  0.5841
  151SAPE  H20R16770   2.783   6.195   8.556 -0.3305 -0.6084 -2.1496
  151SAPE  H20S16771   2.650   6.084   8.546 -0.1359  2.4373 -0.1801
  151SAPE  H20T16772   2.818   6.021   8.543 -1.6326  0.0622 -1.2998
  151SAPE   C3316773   4.037   6.548   9.843 -0.2598  0.0373  0.3275
  151SAPE   H3X16774   4.060   6.459   9.905  0.3384  0.9311  1.4316
  151SAPE   H3Y16775   4.071   6.519   9.741  2.3558 -0.1686  1.1814
  151SAPE   C3416776   3.887   6.589   9.834  0.0752  0.1946 -0.1192
  151SAPE   H4X16777   3.876   6.675   9.763 -0.4672 -0.4883 -0.8858
  151SAPE   H4Y16778   3.844   6.622   9.931  1.9201  0.2545  0.7140
  151SAPE   C3516779   3.798   6.467   9.792  0.1428  0.6725  0.6362
  151SAPE   H5X16780   3.805   6.387   9.868  0.0531 -1.5944 -1.6014
  151SAPE   H5Y16781   3.860   6.421   9.711 -0.9143  0.8923 -0.3236
  151SAPE   C3616782   3.654   6.492   9.759  0.6599 -0.3871 -0.1131
  151SAPE   H6X16783   3.639   6.585   9.700 -3.0941 -1.7595 -1.6422
  151SAPE   H6Y16784   3.609   6.515   9.858  0.8044  0.2128 -0.1783
  151SAPE   C3716785   3.576   6.379   9.694  0.5399  1.0315 -0.3403
  151SAPE   H7X16786   3.469   6.396   9.668  1.0887  1.8208 -2.2301
  151SAPE   H7Y16787   3.583   6.298   9.770 -0.6386  2.5439  1.4786
  151SAPE   C3816788   3.648   6.324   9.569 -0.0664 -0.0266 -0.2833
  151SAPE   H8X16789   3.600   6.231   9.531  0.1548  0.2118 -1.1914
  151SAPE   H8Y16790   3.755   6.293   9.576 -0.4438 -1.1325  1.0657
  151SAPE   C3916791   3.633   6.413   9.437  0.2018 -0.7888  0.2606
  151SAPE   H9X16792   3.698   6.365   9.361 -1.7510  0.3645 -2.3207
  151SAPE   H9Y16793   3.663   6.517   9.464 -2.5084  0.9581 -2.6948
  151SAPE  C31016794   3.498   6.405   9.367  0.1887 -0.0153 -0.0617
  151SAPE  H10X16795   3.427   6.445   9.442  3.4354  3.0556  1.6893
  151SAPE  H10Y16796   3.463   6.304   9.338 -0.7816  0.3413 -0.1881
  151SAPE  C31116797   3.498   6.490   9.236 -0.0972  0.1479  0.3838
  151SAPE  H11X16798   3.527   6.596   9.255 -1.4742  0.4164  1.1935
  151SAPE  H11Y16799   3.393   6.515   9.210 -0.2169 -1.1533 -0.4362
  151SAPE  C31216800   3.558   6.417   9.115  0.7723 -0.2572  0.0331
  151SAPE  H12X16801   3.505   6.321   9.096  0.5115 -0.0227 -0.4617
  151SAPE  H12Y16802   3.664   6.394   9.138  0.6633 -1.0999 -0.2689
  151SAPE  C31316803   3.541   6.493   8.982 -0.2981 -0.1435  0.2332
  151SAPE  H13X16804   3.633   6.553   8.962  0.3269 -0.3111  2.3473
  151SAPE  H13Y16805   3.453   6.560   8.990  0.2225  0.9639 -2.4384
  151SAPE  C31416806   3.514   6.413   8.848  0.6134 -0.1629 -0.4062
  151SAPE  H14X16807   3.606   6.358   8.820 -0.1654 -0.8016 -1.8229
  151SAPE  H14Y16808   3.500   6.496   8.775 -0.7561  1.9177  2.0488
  151SAPE  C31516809   3.394   6.316   8.848 -0.6702 -0.8324 -0.2909
  151SAPE  H15X16810   3.301   6.365   8.883  1.0936  2.0319  0.7936
  151SAPE  H15Y16811   3.416   6.243   8.928 -0.7108 -0.0373  0.4659
  151SAPE  C31616812   3.378   6.248   8.712  0.5334  0.3378  0.6459
  151SAPE  H16X16813   3.468   6.196   8.674 -1.8595 -2.3047 -1.9168
  151SAPE  H16Y16814   3.341   6.319   8.635 -0.0163 -1.4369 -0.8008
  151SAPE  C31716815   3.264   6.145   8.718  1.2773  0.0989  0.3881
  151SAPE  H17X16816   3.186   6.204   8.772  2.0429  0.3480  1.2528
  151SAPE  H17Y16817   3.292   6.058   8.780 -1.0275  0.0065  1.4185
  151SAPE  C31816818   3.198   6.102   8.589 -0.3316 -0.3068  0.2129
  151SAPE  H18X16819   3.151   6.183   8.530  0.7787  1.4953  1.7139
  151SAPE  H18Y16820   3.111   6.035   8.609 -2.0117  1.4761 -0.7665
  151SAPE  H18Z16821   3.275   6.042   8.536  0.0439  0.5310 -0.1965
  152SAPE     N16822   6.607   6.311  10.791 -0.0521  0.2824 -0.1833
  152SAPE   HN116823   6.551   6.272  10.713 -2.7647  2.7510  0.3596
  152SAPE   HN216824   6.562   6.396  10.829 -1.0256 -0.6153  0.7145
  152SAPE   HN316825   6.701   6.341  10.756  0.3341 -1.1135 -0.4071
  152SAPE   C1216826   6.610   6.210  10.907 -0.2215 -0.4346  0.4922
  152SAPE  H12A16827   6.528   6.228  10.979 -0.7794  0.5412 -0.3619
  152SAPE  H12B16828   6.710   6.230  10.953  0.6929  1.0686 -1.9528
  152SAPE   C1116829   6.606   6.064  10.866  0.3985 -0.4234 -0.4255
  152SAPE  H11A16830   6.640   6.006  10.954  2.5263  1.0742 -0.1866
  152SAPE  H11B16831   6.671   6.049  10.777  0.3082  0.3856 -0.6314
  152SAPE     P16832   6.361   5.966  10.895  0.2299  0.6074  0.3990
  152SAPE   O1316833   6.378   5.817  10.897  0.4919 -0.4957 -0.5076
  152SAPE   O1416834   6.336   6.034  11.022 -0.4619  0.0618  0.1609
  152SAPE   O1216835   6.477   6.028  10.813  0.3987 -0.5822 -0.3188
  152SAPE   O1116836   6.239   6.002  10.804 -0.0573 -0.2042 -0.2503
  152SAPE    C116837   6.236   6.129  10.734  0.3054 -0.3510  0.6011
  152SAPE    HA16838   6.135   6.174  10.747  0.7277  0.3760  1.4912
  152SAPE    HB16839   6.317   6.199  10.766 -0.1744  0.6718 -0.3639
  152SAPE    C216840   6.249   6.101  10.582 -0.3056  0.7961 -0.3983
  152SAPE    HS16841   6.349   6.055  10.573 -0.4294 -0.3992  2.9735
  152SAPE   O2116842   6.241   6.225  10.514  1.3739 -0.0467 -0.5335
  152SAPE   C2116843   6.336   6.314  10.529  0.6164 -0.0570 -0.1433
  152SAPE   O2216844   6.452   6.290  10.566 -0.0710  0.5253 -0.1094
  152SAPE   C2216845   6.278   6.451  10.504 -0.4321 -0.1236  0.3606
  152SAPE   H2R16846   6.173   6.463  10.538 -0.7148  1.3392 -0.9149
  152SAPE   H2S16847   6.345   6.517  10.564 -2.0039  0.4650  1.5285
  152SAPE    C316848   6.142   6.002  10.534  0.1556  0.2532 -0.2450
  152SAPE    HX16849   6.050   6.063  10.523 -0.6096 -0.5809  1.1753
  152SAPE    HY16850   6.119   5.923  10.609  0.0639 -0.3855 -0.9331
  152SAPE   O3116851   6.170   5.935  10.411 -0.0653 -0.8230  0.4267
  152SAPE   C3116852   6.221   5.815  10.417 -0.6256  0.6706 -0.6357
  152SAPE   O3216853   6.259   5.759  10.518 -0.6680 -0.5096 -0.1994
  152SAPE   C3216854   6.190   5.738  10.283  0.1352  0.0149 -0.3348
  152SAPE   H2X16855   6.262   5.766  10.204 -1.3689  1.3881 -1.2645
  152SAPE   H2Y16856   6.092   5.788  10.272  0.7275  1.8218  1.8360
  152SAPE   C2316857   6.305   6.478  10.359  0.4114 -0.7047 -0.4120
  152SAPE   H3R16858   6.228   6.428  10.297 -3.1741  2.2888  1.2497
  152SAPE   H3S16859   6.407   6.442  10.332  0.4880 -1.1505  0.4288
  152SAPE   C2416860   6.302   6.623  10.321 -0.1720  0.1446 -0.7003
  152SAPE   H4R16861   6.361   6.635  10.228 -0.1595  1.5461 -0.5366
  152SAPE   H4S16862   6.351   6.694  10.391 -0.4618  0.0965 -0.4421
  152SAPE   C2516863   6.159   6.673  10.294 -0.3572 -0.1400 -0.3823
  152SAPE   H5R16864   6.106   6.722  10.377 -0.5425 -2.1446  0.7482
  152SAPE   C2616865   6.093   6.668  10.178  0.1415 -0.3781 -0.6664
  152SAPE   H6R16866   5.993   6.715  10.181  0.6287  0.6707  1.0413
  152SAPE   C2716867   6.131   6.603  10.048 -0.2726 -0.4190  0.5062
  152SAPE   H7R16868   6.038   6.579   9.992 -0.1448 -2.6830  1.1551
  152SAPE   H7S16869   6.184   6.510  10.078  0.4401  0.7124  2.9801
  152SAPE   C2816870   6.227   6.683   9.960  0.4550  0.1586 -0.0768
  152SAPE   H8R16871   6.307   6.736  10.013 -0.3839 -0.7648  2.2055
  152SAPE   C2916872   6.215   6.707   9.826  0.2534  0.2245  0.1019
  152SAPE   H9R16873   6.295   6.765   9.779  0.1277  0.4602  0.1777
  152SAPE  C21016874   6.116   6.647   9.726 -0.0683 -0.0484  0.0776
  152SAPE  H10R16875   6.075   6.728   9.663  0.0330 -1.7111 -2.2601
  152SAPE  H10S16876   6.046   6.576   9.775  3.7537 -3.0999  1.7024
  152SAPE  C21116877   6.198   6.554   9.641  0.2830 -0.5121 -0.1905
  152SAPE  H11R16878   6.251   6.474   9.696 -1.1920 -2.9988 -2.1844
  152SAPE  C21216879   6.192   6.544   9.505  0.0372  0.2146 -0.5027
  152SAPE  H12R16880   6.274   6.489   9.455  1.3677  0.4546  1.3120
  152SAPE  C21316881   6.113   6.625   9.412 -1.0826 -0.5878  0.4435
  152SAPE  H13R16882   6.003   6.627   9.428 -1.1622  2.8158  0.2469
  152SAPE  H13S16883   6.125   6.593   9.306  2.0311  0.4322  0.3925
  152SAPE  C21416884   6.166   6.768   9.398 -0.9844 -0.7707 -0.2114
  152SAPE  H14R16885   6.135   6.836   9.478 -0.2203  0.7367 -1.1472
  152SAPE  C21516886   6.270   6.816   9.322  0.2327  0.4083  0.0140
  152SAPE  H15R16887   6.306   6.920   9.327  1.3578 -0.0274  1.7772
  152SAPE  C21616888   6.356   6.735   9.235 -0.0760  0.5251 -0.0733
  152SAPE  H16R16889   6.363   6.634   9.279  1.0102  0.1605 -1.0400
  152SAPE  H16S16890   6.458   6.777   9.243 -0.1290  0.4084  1.6016
  152SAPE  C21716891   6.309   6.746   9.088  0.8985 -0.1205  0.0844
  152SAPE  H17R16892   6.313   6.854   9.063 -0.3570 -0.1896 -0.4734
  152SAPE  H17S16893   6.200   6.727   9.087  1.0592 -1.0836 -0.5651
  152SAPE  C21816894   6.388   6.665   8.979 -0.6099  0.3682  0.4037
  152SAPE  H18R16895   6.378   6.555   8.987 -0.1530 -0.1411 -3.7527
  152SAPE  H18S16896   6.496   6.689   8.980  0.5711 -4.0249 -1.0301
  152SAPE  C21916897   6.335   6.693   8.833  0.5934 -0.4324  0.2897
  152SAPE  H19R16898   6.405   6.639   8.765  0.4280 -1.3446  0.8237
  152SAPE  H19S16899   6.335   6.802   8.812  1.6878 -0.8005 -1.8606
  152SAPE  C22016900   6.197   6.630   8.815 -0.0038  0.3588  0.1763
  152SAPE  H20R16901   6.191   6.519   8.820 -2.5985  0.4332  0.2960
  152SAPE  H20S16902   6.149   6.674   8.725 -2.0415  1.8558  1.9277
  152SAPE  H20T16903   6.133   6.675   8.893 -2.6511  0.6740 -2.0271
  152SAPE   C3316904   6.171   5.579  10.290  0.3418 -0.7787 -0.7607
  152SAPE   H3X16905   6.100   5.549  10.370 -1.9295  1.1550 -1.8930
  152SAPE   H3Y16906   6.266   5.527  10.311  0.7983  0.4942  0.4619
  152SAPE   C3416907   6.121   5.519  10.151  0.0771 -0.2084 -0.6359
  152SAPE   H4X16908   6.022   5.568  10.137 -1.1130 -2.3633 -0.2107
  152SAPE   H4Y16909   6.101   5.410  10.160 -0.2151 -0.3551 -2.6307
  152SAPE   C3516910   6.225   5.541  10.043  0.4932  0.4778  0.6027
  152SAPE   H5X16911   6.326   5.510  10.078  0.6658  1.5965  1.1405
  152SAPE   H5Y16912   6.233   5.647  10.010 -1.0223  0.5791  0.4684
  152SAPE   C3616913   6.178   5.484   9.908  0.6384  0.2257  0.5220
  152SAPE   H6X16914   6.075   5.524   9.894  0.5725  0.1056  0.6516
  152SAPE   H6Y16915   6.158   5.375   9.915  1.4814  0.0540  0.4155
  152SAPE   C3716916   6.275   5.509   9.791 -0.2368 -0.0901 -0.4856
  152SAPE   H7X16917   6.370   5.455   9.810  0.8576  0.9689 -2.5544
  152SAPE   H7Y16918   6.297   5.616   9.807 -0.6757 -0.0694  0.0137
  152SAPE   C3816919   6.215   5.482   9.660 -0.4701  0.6590  0.6187
  152SAPE   H8X16920   6.130   5.547   9.630 -1.5639 -1.1622 -0.4849
  152SAPE   H8Y16921   6.170   5.381   9.667  1.6524 -0.2944  1.1969
  152SAPE   C3916922   6.324   5.485   9.548 -0.6821  0.1887  0.3752
  152SAPE   H9X16923   6.396   5.402   9.561 -0.2115  0.0032 -2.7260
  152SAPE   H9Y16924   6.389   5.574   9.561  1.0314 -1.2193  2.0342
  152SAPE  C31016925   6.265   5.485   9.407  0.6077  0.2860 -0.3176
  152SAPE  H10X16926   6.194   5.567   9.384  1.5743  0.8118 -1.5811
  152SAPE  H10Y16927   6.202   5.396   9.384  0.6321  0.2621 -0.2930
  152SAPE  C31116928   6.373   5.474   9.306 -0.3765  0.1790 -0.3478
  152SAPE  H11X16929   6.406   5.368   9.304  0.5462  0.4524  0.1834
  152SAPE  H11Y16930   6.462   5.527   9.345  1.2404 -2.8863  0.4732
  152SAPE  C31216931   6.327   5.527   9.173  0.4144  0.1100  0.4771
  152SAPE  H12X16932   6.218   5.519   9.154  0.3964  0.4301  0.4318
  152SAPE  H12Y16933   6.385   5.463   9.103  2.7688  1.8166  0.7474
  152SAPE  C31316934   6.346   5.674   9.152 -0.0437  0.3622 -0.0719
  152SAPE  H13X16935   6.455   5.693   9.143  0.1982 -0.3730  1.0766
  152SAPE  H13Y16936   6.316   5.727   9.245  0.9968  1.1341 -0.1616
  152SAPE  C31416937   6.273   5.730   9.029 -0.0164 -0.2461  0.3899
  152SAPE  H14X16938   6.164   5.725   9.051  0.1522  0.4471  1.4568
  152SAPE  H14Y16939   6.283   5.672   8.935 -1.5408 -0.3802  0.2861
  152SAPE  C31516940   6.319   5.869   8.985 -0.3569 -0.2406 -0.4276
  152SAPE  H15X16941   6.430   5.861   8.983 -0.4652 -1.8819 -0.9855
  152SAPE  H15Y16942   6.283   5.939   9.064 -1.2615 -2.2446  1.0425
  152SAPE  C31616943   6.270   5.928   8.847  0.8482 -0.2740 -0.3982
  152SAPE  H16X16944   6.159   5.924   8.849  0.8205  0.5549  0.8847
  152SAPE  H16Y16945   6.298   5.857   8.766  0.1139  1.8646 -2.6543
  152SAPE  C31716946   6.322   6.065   8.813 -0.4872 -0.1385  0.3727
  152SAPE  H17X16947   6.433   6.075   8.817 -0.1655 -2.5493 -0.7824
  152SAPE  H17Y16948   6.278   6.135   8.887  0.3665  1.2569 -0.3966
  152SAPE  C31816949   6.271   6.127   8.683 -0.6403 -0.5297 -0.7722
  152SAPE  H18X16950   6.337   6.086   8.603  3.7924  1.5706  1.4835
  152SAPE  H18Y16951   6.271   6.238   8.674  1.2858 -0.3172  1.1235
  152SAPE  H18Z16952   6.167   6.089   8.671  0.1041 -3.0835  0.2769
  153SAPE     N16953   5.590   6.165  10.865 -0.2418  0.0320  0.5722
  153SAPE   HN116954   5.643   6.076  10.877 -0.4043 -0.0853  0.4229
  153SAPE   HN216955   5.596   6.234  10.943  0.4696  2.9559 -1.8770
  153SAPE   HN316956   5.492   6.131  10.856 -0.7034  1.5265 -0.4052
  153SAPE   C1216957   5.641   6.227  10.739 -0.1432 -0.0495  0.0883
  153SAPE  H12A16958   5.644   6.151  10.658 -2.1274 -1.2904  1.1082
  153SAPE  H12B16959   5.746   6.257  10.761 -0.5527  0.0870  2.0533
  153SAPE   C1116960   5.560   6.349  10.697 -0.4272 -0.2775  0.6351
  153SAPE  H11A16961   5.466   6.327  10.641 -0.0283  1.5764 -0.8591
  153SAPE  H11B16962   5.618   6.395  10.614 -2.0642 -2.9698 -2.2389
  153SAPE     P16963   5.612   6.561  10.838 -0.0322 -0.2340  0.1069
  153SAPE   O1316964   5.525   6.639  10.930  0.5652  0.6717  0.0481
  153SAPE   O1416965   5.745   6.527  10.889  0.4191 -0.1120 -0.1600
  153SAPE   O1216966   5.530   6.434  10.810 -0.2548  0.0968 -0.1042
  153SAPE   O1116967   5.617   6.624  10.703 -0.2308 -0.9008  0.5685
  153SAPE    C116968   5.533   6.740  10.675  0.7839  0.0983 -0.2916
  153SAPE    HA16969   5.426   6.712  10.673  0.2274  1.7276  2.2371
  153SAPE    HB16970   5.541   6.825  10.746 -1.5643  1.2782 -1.3420
  153SAPE    C216971   5.575   6.805  10.536 -0.0375  0.1271 -0.3423
  153SAPE    HS16972   5.498   6.878  10.505  0.5322  0.4530 -0.9916
  153SAPE   O2116973   5.592   6.706  10.432 -0.0198  0.3380 -0.0060
  153SAPE   C2116974   5.485   6.647  10.385  0.0642  0.7185  0.4843
  153SAPE   O2216975   5.374   6.656  10.435 -0.4391  0.3693  0.8375
  153SAPE   C2216976   5.519   6.573  10.256 -0.7109  0.3534  0.0820
  153SAPE   H2R16977   5.620   6.615  10.237 -1.2488  2.4628  1.5834
  153SAPE   H2S16978   5.518   6.465  10.282 -0.6682  0.6653  1.4674
  153SAPE    C316979   5.703   6.886  10.549  0.2095 -0.2723 -0.1567
  153SAPE    HX16980   5.793   6.825  10.575 -0.0615 -0.3474  0.6486
  153SAPE    HY16981   5.686   6.954  10.635  0.4393 -0.9786  0.4644
  153SAPE   O3116982   5.730   6.971  10.430  0.9796  0.3133 -0.0777
  153SAPE   C3116983   5.810   6.910  10.331  0.0996  0.0309  0.1840
  153SAPE   O3216984   5.850   6.796  10.334  0.7645  0.6385  0.3640
  153SAPE   C3216985   5.824   7.004  10.212  0.3932 -0.2645  0.5379
  153SAPE   H2X16986   5.880   7.096  10.240 -0.1482  1.1388 -2.6165
  153SAPE   H2Y16987   5.721   7.035  10.185 -0.0487 -2.2396 -0.2507
  153SAPE   C2316988   5.412   6.613  10.149  0.3438 -0.0311  0.2472
  153SAPE   H3R16989   5.306   6.605  10.184 -0.1220  1.6181 -0.7192
  153SAPE   H3S16990   5.424   6.534  10.072  2.2643 -1.7366  2.1625
  153SAPE   C2416991   5.438   6.749  10.090  0.1116  0.2134  0.4076
  153SAPE   H4R16992   5.547   6.766  10.077  0.2605  0.2007  1.5636
  153SAPE   H4S16993   5.418   6.823  10.171 -0.0751 -0.5885  1.1045
  153SAPE   C2516994   5.346   6.783   9.980 -0.1711 -0.4655  0.3549
  153SAPE   H5R16995   5.242   6.745   9.981 -0.3743  0.0731  0.2107
  153SAPE   C2616996   5.378   6.853   9.868 -0.1563 -0.1473 -0.1994
  153SAPE   H6R16997   5.302   6.880   9.794  0.8616 -0.0338 -1.2390
  153SAPE   C2716998   5.520   6.899   9.829  0.1387  0.4828  0.0004
  153SAPE   H7R16999   5.573   6.960   9.905 -2.9751  1.6445  1.4150
  153SAPE   H7S17000   5.512   6.970   9.744  1.1104  0.1566 -0.3695
  153SAPE   C2817001   5.602   6.773   9.794 -1.0748 -0.3082  0.1503
  153SAPE   H8R17002   5.644   6.714   9.876  1.4553 -0.3327 -1.0752
  153SAPE   C2917003   5.646   6.728   9.676 -0.3238  0.0263 -0.4879
  153SAPE   H9R17004   5.698   6.632   9.663 -1.6127 -0.7282 -0.1551
  153SAPE  C21017005   5.625   6.803   9.547  0.2841  0.2026  0.4930
  153SAPE  H10R17006   5.658   6.909   9.546  1.4673 -0.1488 -0.3708
  153SAPE  H10S17007   5.515   6.807   9.536  0.3942 -1.3950 -2.2923
  153SAPE  C21117008   5.667   6.730   9.425  0.0099 -0.4904  0.6835
  153SAPE  H11R17009   5.685   6.621   9.430 -0.7917 -0.6679 -0.0600
  153SAPE  C21217010   5.678   6.789   9.306  0.1417  0.4696 -0.1331
  153SAPE  H12R17011   5.702   6.714   9.229  1.6220 -1.2681  1.8937
  153SAPE  C21317012   5.649   6.933   9.269 -0.2902 -0.0652  0.2255
  153SAPE  H13R17013   5.737   6.997   9.294 -0.1825  0.8607 -2.2250
  153SAPE  H13S17014   5.573   6.984   9.332  0.4789  2.3705 -0.7224
  153SAPE  C21417015   5.607   6.964   9.128  0.3972  0.0015 -0.0856
  153SAPE  H14R17016   5.499   6.973   9.108  0.5524 -1.2095 -1.6128
  153SAPE  C21517017   5.694   6.958   9.026 -0.5492  0.1520  0.5073
  153SAPE  H15R17018   5.649   6.983   8.929 -1.7507 -1.4371  0.6013
  153SAPE  C21617019   5.842   6.934   9.053 -0.1135 -0.3568  0.6550
  153SAPE  H16R17020   5.872   6.827   9.059 -3.5779 -1.5029 -0.0037
  153SAPE  H16S17021   5.873   6.984   9.147 -0.4569  2.8118 -0.7969
  153SAPE  C21717022   5.921   7.000   8.941  0.6035  0.3309  0.9620
  153SAPE  H17R17023   6.031   6.991   8.955  0.7492 -0.4073 -0.5100
  153SAPE  H17S17024   5.898   7.109   8.942 -0.5635  0.0925  1.4331
  153SAPE  C21817025   5.904   6.942   8.800  0.4945  0.3618  0.1056
  153SAPE  H18R17026   5.798   6.956   8.770 -0.0492 -1.0795  1.2324
  153SAPE  H18S17027   5.929   6.835   8.811 -2.0032 -0.3805 -0.7966
  153SAPE  C21917028   5.984   7.006   8.679 -0.7218 -0.0634  0.1585
  153SAPE  H19R17029   5.939   6.967   8.585 -1.9290  2.6219 -0.4612
  153SAPE  H19S17030   6.084   6.958   8.692 -1.2342 -0.5197  3.0463
  153SAPE  C22017031   5.982   7.161   8.672  0.6517  0.5388 -0.0387
  153SAPE  H20R17032   5.880   7.194   8.642  1.3855  1.9986 -1.0725
  153SAPE  H20S17033   6.053   7.188   8.590  0.2211 -1.7028 -1.2391
  153SAPE  H20T17034   6.020   7.208   8.765 -1.6452  0.9653  0.7365
  153SAPE   C3317035   5.881   6.945  10.081 -0.2062  0.3796 -0.7658
  153SAPE   H3X17036   5.819   6.857  10.052  1.0012 -1.1741  1.1047
  153SAPE   H3Y17037   5.978   6.899  10.108 -0.1806  1.5971  1.4747
  153SAPE   C3417038   5.882   7.043   9.965 -0.3683 -0.0797  0.2093
  153SAPE   H4X17039   5.947   7.130   9.989 -1.9310  0.4514  3.0129
  153SAPE   H4Y17040   5.777   7.077   9.946  0.4646  2.3622 -0.4920
  153SAPE   C3517041   5.944   6.994   9.838  0.0728 -0.2505 -0.2670
  153SAPE   H5X17042   5.886   6.908   9.798  1.2678 -1.2397  0.0322
  153SAPE   H5Y17043   6.045   6.948   9.842  0.0796 -0.3898 -1.5222
  153SAPE   C3617044   5.924   7.089   9.720 -1.1738 -0.4116  0.1892
  153SAPE   H6X17045   5.982   7.182   9.734  1.2353 -1.3381 -2.7185
  153SAPE   H6Y17046   5.818   7.123   9.715 -1.6443 -1.8308  0.0615
  153SAPE   C3717047   5.953   7.017   9.585  0.5757 -0.7313  0.0504
  153SAPE   H7X17048   5.891   6.926   9.569  1.7581 -1.3755 -1.0338
  153SAPE   H7Y17049   6.060   6.990   9.597  1.0429  0.4606 -1.2338
  153SAPE   C3817050   5.935   7.117   9.474  0.6481  0.0880  0.2235
  153SAPE   H8X17051   5.840   7.172   9.490  0.2678  0.1085 -1.8760
  153SAPE   H8Y17052   5.932   7.063   9.377  0.5420 -1.8942  1.2803
  153SAPE   C3917053   6.055   7.216   9.450  0.0754  0.5076  0.3805
  153SAPE   H9X17054   6.147   7.155   9.454 -0.0570  0.2456 -0.3439
  153SAPE   H9Y17055   6.060   7.307   9.513  2.4984  1.8065 -1.5167
  153SAPE  C31017056   6.031   7.264   9.302  0.0579  0.0152 -0.0978
  153SAPE  H10X17057   5.938   7.323   9.293  0.1138 -0.0432 -1.3149
  153SAPE  H10Y17058   6.012   7.180   9.231  0.3979 -0.9907  0.9689
  153SAPE  C31117059   6.152   7.337   9.243  0.0851  0.4960 -0.1752
  153SAPE  H11X17060   6.202   7.402   9.319  0.0853  0.8239 -0.4525
  153SAPE  H11Y17061   6.117   7.398   9.157 -0.3438 -2.3104 -2.1147
  153SAPE  C31217062   6.258   7.240   9.191 -0.3597  0.2642 -0.7677
  153SAPE  H12X17063   6.198   7.168   9.132 -2.2383  1.2631 -0.1422
  153SAPE  H12Y17064   6.308   7.182   9.272 -2.1966  0.0190  0.2316
  153SAPE  C31317065   6.372   7.311   9.120  0.1800  0.0956  0.3981
  153SAPE  H13X17066   6.428   7.380   9.186  2.4222  0.4263 -1.7067
  153SAPE  H13Y17067   6.330   7.371   9.036 -0.2341 -0.5500  0.1333
  153SAPE  C31417068   6.475   7.208   9.057  0.1943 -0.3405 -0.4361
  153SAPE  H14X17069   6.419   7.146   8.984 -1.7572 -0.6085  1.2140
  153SAPE  H14Y17070   6.515   7.143   9.137  1.3083  0.1416 -0.5760
  153SAPE  C31517071   6.599   7.270   8.989 -0.0266 -0.3256  0.4567
  153SAPE  H15X17072   6.634   7.360   9.045 -2.1214  0.8196  0.0303
  153SAPE  H15Y17073   6.558   7.311   8.894 -1.9686 -1.3569  0.7981
  153SAPE  C31617074   6.710   7.169   8.963 -0.2800 -0.2880  0.2998
  153SAPE  H16X17075   6.740   7.119   9.058  1.5195  0.2526  0.0526
  153SAPE  H16Y17076   6.799   7.228   8.935 -2.0512  1.2700 -2.3812
  153SAPE  C31717077   6.667   7.059   8.857 -0.1980  0.4949 -0.4405
  153SAPE  H17X17078   6.720   7.065   8.760 -1.0349  0.6857 -0.8906
  153SAPE  H17Y17079   6.566   7.097   8.832 -0.0643  2.3233  1.5838
  153SAPE  C31817080   6.676   6.914   8.901  0.9421  0.1511 -1.0193
  153SAPE  H18X17081   6.778   6.873   8.887  0.3866 -1.8231  0.2924
  153SAPE  H18Y17082   6.606   6.839   8.856 -0.5012 -0.4186  1.9121
  153SAPE  H18Z17083   6.655   6.908   9.010 -1.3519  1.7946 -1.2851
  154SAPE     N17084   1.480   1.037  11.040 -0.3179 -0.2670  0.3850
  154SAPE   HN117085   1.430   1.047  11.130  0.3844  0.5052  0.6981
  154SAPE   HN217086   1.515   0.939  11.035  1.2721  0.2832  0.2408
  154SAPE   HN317087   1.565   1.096  11.039  1.0420 -2.1174  0.7142
  154SAPE   C1217088   1.392   1.071  10.930  0.5328  0.3042  0.7145
  154SAPE  H12A17089   1.437   1.039  10.834  1.1809  0.2135  1.0442
  154SAPE  H12B17090   1.374   1.181  10.932 -0.1505  0.1830  1.4407
  154SAPE   C1117091   1.257   0.997  10.946 -0.5242 -0.5101  0.0926
  154SAPE  H11A17092   1.189   1.021  10.861 -2.0562 -2.8497  0.5588
  154SAPE  H11B17093   1.217   1.031  11.044  0.0521 -0.8012  0.4287
  154SAPE     P17094   1.170   0.743  10.938  0.1777  0.3452  0.4566
  154SAPE   O1317095   1.227   0.612  10.980 -0.3267  0.1661  0.2217
  154SAPE   O1417096   1.059   0.793  11.024  0.3312  0.5977 -0.4255
  154SAPE   O1217097   1.276   0.853  10.936 -0.2968 -0.6545  0.1419
  154SAPE   O1117098   1.127   0.740  10.785 -0.5915 -0.3728 -0.1213
  154SAPE    C117099   1.231   0.706  10.689  0.2626  0.2110  0.2783
  154SAPE    HA17100   1.302   0.789  10.669  0.8919  0.3139  2.6553
  154SAPE    HB17101   1.290   0.620  10.728 -0.9892 -0.6630  0.2992
  154SAPE    C217102   1.175   0.647  10.559 -1.2738  0.6905  0.1188
  154SAPE    HS17103   1.267   0.622  10.502 -0.2318  0.1841  1.9301
  154SAPE   O2117104   1.090   0.741  10.495  0.6170  0.0813 -0.0131
  154SAPE   C2117105   1.125   0.799  10.386 -0.3451 -0.2238  1.0094
  154SAPE   O2217106   1.242   0.793  10.341 -0.0982  0.2880 -0.0264
  154SAPE   C2217107   1.006   0.860  10.306 -0.0963  0.0301  0.1503
  154SAPE   H2R17108   1.013   0.824  10.202  2.2610 -0.9338  0.5987
  154SAPE   H2S17109   0.917   0.818  10.359 -0.0334  1.7766  1.7735
  154SAPE    C317110   1.099   0.514  10.589  0.0257  0.1103  0.2610
  154SAPE    HX17111   1.014   0.533  10.658  1.2674 -1.4565  2.3411
  154SAPE    HY17112   1.169   0.447  10.643 -0.8260  0.7821  2.2793
  154SAPE   O3117113   1.071   0.444  10.466  0.2246  0.1027 -0.3632
  154SAPE   C3117114   0.959   0.470  10.401 -0.5931 -0.2318  0.1600
  154SAPE   O3217115   0.870   0.546  10.433  0.9354  0.8205  0.2345
  154SAPE   C3217116   0.956   0.393  10.270 -0.3334 -0.1980 -0.4155
  154SAPE   H2X17117   1.015   0.299  10.272  2.4764  1.3814 -2.1569
  154SAPE   H2Y17118   1.002   0.459  10.194  0.3662 -1.9730 -1.6149
  154SAPE   C2317119   1.009   1.016  10.310  0.0180  0.0614  0.0743
  154SAPE   H3R17120   1.092   1.033  10.238  1.8185  0.0872  2.0542
  154SAPE   H3S17121   1.040   1.056  10.410 -2.1819  2.3702 -0.0703
  154SAPE   C2417122   0.875   1.088  10.275  0.2662 -0.2325 -0.7273
  154SAPE   H4R17123   0.818   1.099  10.369  0.2019  0.2922 -0.8279
  154SAPE   H4S17124   0.817   1.032  10.198 -2.2782  0.6443  0.4438
  154SAPE   C2517125   0.917   1.225  10.226 -0.1537  0.6139 -0.3725
  154SAPE   H5R17126   0.966   1.283  10.306 -1.1973  0.2492  0.5533
  154SAPE   C2617127   0.910   1.276  10.101 -0.5762  0.0081 -0.1838
  154SAPE   H6R17128   0.918   1.385  10.087 -1.3356 -0.3676 -5.2308
  154SAPE   C2717129   0.864   1.222   9.975 -0.3730  0.2556  0.1540
  154SAPE   H7R17130   0.873   1.111   9.974 -0.6692  0.2203 -1.2885
  154SAPE   H7S17131   0.921   1.262   9.889 -1.1481  0.0701 -0.4560
  154SAPE   C2817132   0.714   1.255   9.957  0.8040 -0.0055 -0.4222
  154SAPE   H8R17133   0.657   1.264  10.051 -0.3151  0.4899 -1.1203
  154SAPE   C2917134   0.649   1.281   9.840 -0.7730  0.2641  0.6430
  154SAPE   H9R17135   0.539   1.290   9.838 -1.0510 -2.3447  0.6601
  154SAPE  C21017136   0.714   1.273   9.701  0.3706 -1.1382  0.8164
  154SAPE  H10R17137   0.805   1.335   9.712  1.8030 -2.5110 -2.0287
  154SAPE  H10S17138   0.652   1.329   9.627 -1.4580 -1.3307  2.1270
  154SAPE  C21117139   0.732   1.140   9.634  0.0704  0.9757 -0.2663
  154SAPE  H11R17140   0.701   1.054   9.695  0.2315  0.8035 -0.4252
  154SAPE  C21217141   0.774   1.119   9.503  0.6888  0.2856 -0.3944
  154SAPE  H12R17142   0.805   1.019   9.471 -0.4561 -0.1200 -0.2815
  154SAPE  C21317143   0.807   1.226   9.402 -0.7039 -0.3356  0.0064
  154SAPE  H13R17144   0.917   1.224   9.384 -0.6619  0.6105  0.0858
  154SAPE  H13S17145   0.775   1.328   9.432  1.3544  0.2406  0.4513
  154SAPE  C21417146   0.748   1.192   9.267 -0.3479 -0.0274  0.4894
  154SAPE  H14R17147   0.675   1.269   9.237  0.2933  0.4353  0.0876
  154SAPE  C21517148   0.793   1.107   9.172  0.2603  0.2912 -0.2875
  154SAPE  H15R17149   0.753   1.093   9.070  1.6248  2.8617 -1.2691
  154SAPE  C21617150   0.911   1.016   9.180  0.8534 -0.2666  0.4485
  154SAPE  H16R17151   0.963   1.027   9.277  0.1793  1.9701  0.6204
  154SAPE  H16S17152   0.982   1.050   9.102  2.9600  0.2602  2.4946
  154SAPE  C21717153   0.881   0.864   9.163 -0.0706 -1.2936  1.1716
  154SAPE  H17R17154   0.845   0.865   9.058 -0.1514  0.5105  1.1866
  154SAPE  H17S17155   0.796   0.837   9.230 -0.8506 -0.8033  0.3899
  154SAPE  C21817156   1.000   0.773   9.161  0.1271  0.1306 -0.6946
  154SAPE  H18R17157   1.085   0.809   9.100  0.8927  1.5738  1.1232
  154SAPE  H18S17158   0.971   0.683   9.102 -1.4685  0.8650 -1.0808
  154SAPE  C21917159   1.039   0.738   9.306  0.2683  0.1077 -0.1796
  154SAPE  H19R17160   0.952   0.683   9.348  1.6764 -3.0360 -1.0872
  154SAPE  H19S17161   1.046   0.833   9.363  1.5917 -0.9265  1.4540
  154SAPE  C22017162   1.156   0.649   9.332  0.1038 -0.0384  0.4330
  154SAPE  H20R17163   1.179   0.660   9.441 -0.8481  0.0637  0.6344
  154SAPE  H20S17164   1.241   0.678   9.267 -0.8955  3.1139  0.3393
  154SAPE  H20T17165   1.127   0.544   9.311 -2.9465  0.8204 -0.1604
  154SAPE   C3317166   0.816   0.368  10.225 -0.3983  0.4652  0.2199
  154SAPE   H3X17167   0.760   0.464  10.226 -0.2480  0.5542  0.1603
  154SAPE   H3Y17168   0.763   0.304  10.298  0.2916 -0.8543 -0.4101
  154SAPE   C3417169   0.798   0.299  10.082  0.6696 -0.3584 -0.0087
  154SAPE   H4X17170   0.689   0.301  10.059  0.1623 -2.6909  1.7168
  154SAPE   H4Y17171   0.841   0.197  10.098  0.4367 -0.5034 -0.3011
  154SAPE   C3517172   0.869   0.355   9.961  0.3509  0.1523 -0.4231
  154SAPE   H5X17173   0.878   0.287   9.873  0.5800  0.6111 -0.7566
  154SAPE   H5Y17174   0.974   0.386   9.978  0.2473  0.5778 -0.5469
  154SAPE   C3617175   0.796   0.482   9.912 -0.0510 -0.1445  0.4807
  154SAPE   H6X17176   0.770   0.533  10.008 -2.1871 -2.4137  1.2261
  154SAPE   H6Y17177   0.704   0.464   9.851  0.6106 -1.6561 -0.0995
  154SAPE   C3717178   0.882   0.577   9.824 -0.3407  0.3248  0.1131
  154SAPE   H7X17179   0.820   0.667   9.806 -0.2715  0.4872  0.6788
  154SAPE   H7Y17180   0.910   0.544   9.722 -0.0309  1.0938 -0.0538
  154SAPE   C3817181   1.008   0.637   9.883 -0.0719  0.2900 -0.7240
  154SAPE   H8X17182   1.088   0.563   9.908 -0.5194  0.1981  0.5146
  154SAPE   H8Y17183   0.982   0.673   9.985  1.1923 -1.1699  0.1701
  154SAPE   C3917184   1.074   0.741   9.785  0.2635  0.8309 -0.4274
  154SAPE   H9X17185   1.026   0.840   9.798 -0.1409  0.3538  2.3228
  154SAPE   H9Y17186   1.071   0.714   9.677 -0.4951  0.1710 -0.2511
  154SAPE  C31017187   1.223   0.777   9.825 -0.0429  0.6717  0.2116
  154SAPE  H10X17188   1.281   0.682   9.829 -1.3836 -0.2274 -0.6074
  154SAPE  H10Y17189   1.205   0.839   9.915 -1.2056  4.1735 -2.2452
  154SAPE  C31117190   1.287   0.864   9.715  0.0672  0.5674 -0.4424
  154SAPE  H11X17191   1.310   0.793   9.632  1.1328  1.4940 -0.9767
  154SAPE  H11Y17192   1.387   0.902   9.746  0.2707 -0.8291  0.6991
  154SAPE  C31217193   1.203   0.975   9.665  0.0654 -0.0291 -0.6837
  154SAPE  H12X17194   1.181   1.044   9.749  0.5512 -0.8035  0.0894
  154SAPE  H12Y17195   1.099   0.947   9.639 -0.3999 -1.3578  2.2981
  154SAPE  C31317196   1.270   1.061   9.554  0.5237  0.6120 -0.6499
  154SAPE  H13X17197   1.372   1.087   9.590 -0.1520  1.4133  0.7523
  154SAPE  H13Y17198   1.206   1.149   9.530  0.3876  0.3859 -1.1258
  154SAPE  C31417199   1.312   0.991   9.421  0.5382  0.3305 -0.8476
  154SAPE  H14X17200   1.217   0.950   9.380  0.9270 -1.0401 -0.4291
  154SAPE  H14Y17201   1.378   0.903   9.434 -1.1981 -0.7003  1.7591
  154SAPE  C31517202   1.373   1.077   9.315 -0.5399 -0.9577  0.1133
  154SAPE  H15X17203   1.462   1.123   9.363 -1.6958 -1.0315  2.4648
  154SAPE  H15Y17204   1.295   1.155   9.303  0.0576 -0.4194 -0.3188
  154SAPE  C31617205   1.412   1.001   9.190  0.0564 -0.0510 -0.2599
  154SAPE  H16X17206   1.323   0.972   9.130 -0.2136  0.9862 -0.3761
  154SAPE  H16Y17207   1.474   0.916   9.227 -1.2454 -0.2688  1.5412
  154SAPE  C31717208   1.499   1.093   9.102  0.0685  0.2005 -0.4852
  154SAPE  H17X17209   1.595   1.105   9.158 -0.9733  1.7412  1.0459
  154SAPE  H17Y17210   1.440   1.186   9.095  0.9603  0.9219  0.9244
  154SAPE  C31817211   1.536   1.032   8.965  0.6305 -0.0284  0.5469
  154SAPE  H18X17212   1.606   1.094   8.906  0.5173  2.1900  2.5608
  154SAPE  H18Y17213   1.453   1.011   8.894  0.6632 -1.4211  0.8885
  154SAPE  H18Z17214   1.595   0.941   8.990  1.5041  0.8291  1.7499
  155SAPE     N17215   2.011   0.885  11.052  0.0882  0.0502  0.0100
  155SAPE   HN117216   2.102   0.888  11.101  0.0182  1.3335  0.1029
  155SAPE   HN217217   1.952   0.818  11.104  0.6326 -0.3185  0.1501
  155SAPE   HN317218   2.028   0.843  10.958 -0.4158  0.2198 -0.1610
  155SAPE   C1217219   1.941   1.018  11.047 -0.1818 -0.2463  1.1537
  155SAPE  H12A17220   2.020   1.093  11.068 -1.0934  1.3732 -0.8977
  155SAPE  H12B17221   1.874   1.022  11.135  0.8926 -2.3759  2.1409
  155SAPE   C1117222   1.878   1.055  10.912 -0.0816 -0.2289  0.5210
  155SAPE  H11A17223   1.773   1.021  10.920 -0.7031  1.5196  0.2148
  155SAPE  H11B17224   1.925   1.001  10.827 -1.7608 -1.8516  0.5553
  155SAPE     P17225   1.740   1.274  10.888 -0.0539  0.0493  0.4614
  155SAPE   O1317226   1.638   1.237  10.981 -0.2642  0.0918 -0.9270
  155SAPE   O1417227   1.773   1.415  10.882  0.3757 -0.1094 -0.3290
  155SAPE   O1217228   1.873   1.196  10.900 -0.7867  0.1425  0.0509
  155SAPE   O1117229   1.683   1.235  10.748 -0.8012  0.5838 -0.3187
  155SAPE    C117230   1.770   1.198  10.643 -0.0895  0.0676 -0.2234
  155SAPE    HA17231   1.867   1.251  10.626 -0.2506 -0.3611 -2.9561
  155SAPE    HB17232   1.788   1.089  10.651 -4.4424 -0.7263  0.7336
  155SAPE    C217233   1.695   1.209  10.502 -0.2733 -0.4348 -0.1990
  155SAPE    HS17234   1.757   1.148  10.433  2.5191  3.1106 -1.1500
  155SAPE   O2117235   1.696   1.349  10.455  0.4844  0.1899 -0.6070
  155SAPE   C2117236   1.802   1.385  10.378 -0.2978  0.1761 -0.0538
  155SAPE   O2217237   1.893   1.313  10.343  0.0565 -0.3652 -0.8182
  155SAPE   C2217238   1.786   1.536  10.359 -0.6131 -0.4698  0.2444
  155SAPE   H2R17239   1.689   1.557  10.310  0.0185  0.4349 -0.6581
  155SAPE   H2S17240   1.805   1.575  10.461  1.5495 -1.1814  0.1585
  155SAPE    C317241   1.555   1.142  10.493  0.5891 -0.5835 -1.0116
  155SAPE    HX17242   1.480   1.217  10.526 -0.4057 -1.4608 -1.2515
  155SAPE    HY17243   1.558   1.057  10.564 -1.2350  0.4070  0.3334
  155SAPE   O3117244   1.524   1.111  10.356 -0.0808  0.3807 -0.3976
  155SAPE   C3117245   1.391   1.115  10.322  0.2759 -0.4849 -0.0679
  155SAPE   O3217246   1.300   1.139  10.400  0.0006  0.0064  0.3273
  155SAPE   C3217247   1.375   1.100  10.165 -0.9435  0.1946  0.4868
  155SAPE   H2X17248   1.278   1.047  10.161 -0.5448 -0.5686  0.8202
  155SAPE   H2Y17249   1.442   1.026  10.118  0.1278  0.3477  1.7215
  155SAPE   C2317250   1.907   1.587  10.280  0.5536 -0.5662 -0.2174
  155SAPE   H3R17251   1.884   1.557  10.175 -0.1447 -0.3619 -0.1265
  155SAPE   H3S17252   2.007   1.548  10.312  1.0335  0.6439 -0.1814
  155SAPE   C2417253   1.909   1.739  10.277  0.0617  0.1374 -0.0017
  155SAPE   H4R17254   1.812   1.787  10.254 -0.8355 -1.3051  0.6543
  155SAPE   H4S17255   1.972   1.780  10.194  0.0912  1.4827  0.6611
  155SAPE   C2517256   1.974   1.798  10.407  0.2240 -0.4452 -0.1677
  155SAPE   H5R17257   1.929   1.755  10.498  0.5607 -1.7308 -0.5937
  155SAPE   C2617258   2.074   1.888  10.420  0.2933 -0.4377  0.3515
  155SAPE   H6R17259   2.105   1.917  10.521 -2.1314 -3.4522  2.1285
  155SAPE   C2717260   2.151   1.949  10.300  1.0278 -0.4493  0.9372
  155SAPE   H7R17261   2.197   1.871  10.235  0.7059 -0.9502  1.3059
  155SAPE   H7S17262   2.240   2.003  10.339  0.0571  2.3676 -0.4760
  155SAPE   C2817263   2.066   2.043  10.215 -0.6565  0.0974 -0.1409
  155SAPE   H8R17264   2.024   2.125  10.275  2.5199  1.3015  0.6236
  155SAPE   C2917265   2.042   2.043  10.083 -0.0229  0.5371  0.5285
  155SAPE   H9R17266   1.987   2.128  10.040  0.2596 -0.3197 -1.6842
  155SAPE  C21017267   2.086   1.942   9.983 -0.1795 -0.6642  0.2372
  155SAPE  H10R17268   2.069   1.836  10.012  1.1297 -1.0281 -0.2533
  155SAPE  H10S17269   2.197   1.945   9.974 -0.1314 -0.7343  0.7736
  155SAPE  C21117270   2.038   1.964   9.842  0.0453 -0.2389  0.5693
  155SAPE  H11R17271   2.046   2.066   9.800 -1.0903  0.3059  1.6032
  155SAPE  C21217272   1.977   1.869   9.766 -0.8736  0.4786 -0.0647
  155SAPE  H12R17273   1.957   1.899   9.662  1.0224  2.5411  0.0958
  155SAPE  C21317274   1.949   1.723   9.801 -0.9248 -0.4490 -0.3290
  155SAPE  H13R17275   1.851   1.706   9.851 -1.6776  1.0773 -1.1991
  155SAPE  H13S17276   2.024   1.683   9.873 -0.2307 -2.3907 -2.0404
  155SAPE  C21417277   1.958   1.638   9.677  0.0539  0.0370  0.5792
  155SAPE  H14R17278   2.058   1.641   9.630 -0.8612  1.8976 -1.3853
  155SAPE  C21517279   1.863   1.581   9.602  1.0518 -0.2943 -0.0002
  155SAPE  H15R17280   1.890   1.523   9.512 -0.1386  0.0316 -0.5834
  155SAPE  C21617281   1.719   1.585   9.634  0.5443  0.7688  0.8607
  155SAPE  H16R17282   1.705   1.622   9.737  2.0295 -0.4232  1.5383
  155SAPE  H16S17283   1.674   1.483   9.637 -2.4539  2.0202  3.2692
  155SAPE  C21717284   1.649   1.673   9.528 -0.0386  0.3542  0.1617
  155SAPE  H17R17285   1.672   1.781   9.545 -1.6497  1.0118 -1.5569
  155SAPE  H17S17286   1.540   1.656   9.539 -0.2087  2.0074  1.3833
  155SAPE  C21817287   1.679   1.640   9.376 -0.7420 -0.5892 -0.2976
  155SAPE  H18R17288   1.783   1.603   9.360 -0.8601 -0.9650 -0.2112
  155SAPE  H18S17289   1.667   1.738   9.326  0.4679 -0.4021 -0.2592
  155SAPE  C21917290   1.585   1.539   9.314 -0.0991  0.4479  0.4264
  155SAPE  H19R17291   1.479   1.571   9.325 -0.4048 -0.5469  0.4339
  155SAPE  H19S17292   1.596   1.436   9.354 -3.7326 -0.9343 -1.7009
  155SAPE  C22017293   1.617   1.527   9.162 -0.0430 -0.3034 -0.4078
  155SAPE  H20R17294   1.687   1.606   9.129 -1.3113  1.8935  1.7779
  155SAPE  H20S17295   1.525   1.540   9.101 -0.2177  0.8523  0.0796
  155SAPE  H20T17296   1.663   1.427   9.147  0.6691 -0.0902  0.2690
  155SAPE   C3317297   1.367   1.229  10.090 -0.2320 -0.1462  0.5327
  155SAPE   H3X17298   1.430   1.313  10.126  0.1917  0.4183 -1.4154
  155SAPE   H3Y17299   1.265   1.273  10.087  0.8097  2.4557  0.6964
  155SAPE   C3417300   1.418   1.209   9.943  0.2032  0.1085 -0.3954
  155SAPE   H4X17301   1.393   1.295   9.877  2.2093 -0.3593 -1.8636
  155SAPE   H4Y17302   1.360   1.128   9.894 -2.2613  0.6811  1.3902
  155SAPE   C3517303   1.569   1.183   9.915  0.0849 -0.0059 -0.4499
  155SAPE   H5X17304   1.585   1.079   9.952 -1.7424  0.7867  3.0439
  155SAPE   H5Y17305   1.637   1.245   9.977  0.4069 -2.2886  1.6456
  155SAPE   C3617306   1.602   1.206   9.770 -0.5865 -0.0419  0.0962
  155SAPE   H6X17307   1.584   1.310   9.733  2.1832  0.4893  0.0769
  155SAPE   H6Y17308   1.529   1.142   9.716  1.1684 -0.1762 -2.2829
  155SAPE   C3717309   1.741   1.164   9.727 -0.5334  0.4513  0.2260
  155SAPE   H7X17310   1.762   1.060   9.758 -0.1742 -0.4037 -2.6143
  155SAPE   H7Y17311   1.818   1.235   9.765  1.2446 -1.4198  0.2614
  155SAPE   C3817312   1.742   1.167   9.568 -0.2730 -0.2744 -0.4290
  155SAPE   H8X17313   1.724   1.267   9.524 -0.6689 -1.7141 -3.8539
  155SAPE   H8Y17314   1.658   1.098   9.543  0.3957 -0.9094 -0.9515
  155SAPE   C3917315   1.859   1.096   9.506  0.4465 -0.5001  0.3209
  155SAPE   H9X17316   1.851   0.992   9.544  0.0707  0.1753  2.2142
  155SAPE   H9Y17317   1.950   1.140   9.553  0.2360 -1.1181  1.3378
  155SAPE  C31017318   1.862   1.101   9.343  0.1967 -0.0376  0.1656
  155SAPE  H10X17319   1.776   1.049   9.296 -0.7258 -0.3223  2.0570
  155SAPE  H10Y17320   1.943   1.028   9.321  0.2369  0.2923 -0.8228
  155SAPE  C31117321   1.893   1.243   9.278 -0.2355  0.3264 -0.1083
  155SAPE  H11X17322   1.981   1.281   9.333 -0.8689  0.6753  0.6885
  155SAPE  H11Y17323   1.808   1.313   9.295  0.0802  0.2160  2.2145
  155SAPE  C31217324   1.921   1.225   9.130  0.0205  0.3406 -0.1971
  155SAPE  H12X17325   1.926   1.331   9.096 -1.2611  0.8864  1.1671
  155SAPE  H12Y17326   1.830   1.190   9.076 -1.0532  2.6968 -0.0432
  155SAPE  C31317327   2.054   1.168   9.095  0.8976  0.2792 -0.6096
  155SAPE  H13X17328   2.051   1.062   9.129 -1.0697  0.2436 -0.7582
  155SAPE  H13Y17329   2.132   1.220   9.154 -0.8881  0.9452  1.2652
  155SAPE  C31417330   2.081   1.180   8.940 -0.0829 -0.4543  0.0619
  155SAPE  H14X17331   2.159   1.111   8.900 -1.1087 -0.9662 -1.1102
  155SAPE  H14Y17332   2.108   1.286   8.920 -0.8499  0.0655  1.6783
  155SAPE  C31517333   1.959   1.156   8.851  0.8406  0.6883  0.8063
  155SAPE  H15X17334   1.881   1.229   8.882  0.5778  0.8604 -0.2472
  155SAPE  H15Y17335   1.920   1.052   8.862  0.0522  0.6406 -1.8568
  155SAPE  C31617336   1.977   1.186   8.704  0.4493 -0.2912 -0.0987
  155SAPE  H16X17337   2.046   1.108   8.664  0.1404 -0.9379  0.6177
  155SAPE  H16Y17338   2.027   1.284   8.689  0.4695 -0.0319  1.5628
  155SAPE  C31717339   1.850   1.206   8.617  0.2335  0.2259 -0.3601
  155SAPE  H17X17340   1.774   1.126   8.634  2.2994 -1.7542  0.1358
  155SAPE  H17Y17341   1.868   1.198   8.507 -0.2765 -2.1951 -0.3314
  155SAPE  C31817342   1.769   1.332   8.641 -0.5437 -0.4436 -0.0339
  155SAPE  H18X17343   1.833   1.419   8.614  0.5014 -1.2566 -0.2799
  155SAPE  H18Y17344   1.753   1.344   8.750  1.8885  0.8097  0.2738
  155SAPE  H18Z17345   1.668   1.332   8.596 -0.7376 -1.6425  0.3778
  156SAPE     N17346   4.281   6.014  10.584 -0.2141  0.9379 -0.0148
  156SAPE   HN117347   4.242   5.929  10.539 -0.2449  0.0884  1.5855
  156SAPE   HN217348   4.218   6.049  10.659 -1.1180 -0.0548 -0.2937
  156SAPE   HN317349   4.292   6.090  10.513  0.7859  2.5696  1.7903
  156SAPE   C1217350   4.402   5.969  10.648 -0.8680 -0.0572  0.3616
  156SAPE  H12A17351   4.372   5.941  10.751  1.1694  0.8487  1.2593
  156SAPE  H12B17352   4.471   6.054  10.665  0.2566 -0.7564 -0.5144
  156SAPE   C1117353   4.476   5.855  10.563 -0.0579  0.4722 -0.3015
  156SAPE  H11A17354   4.561   5.834  10.630  1.2773 -1.3248 -2.4303
  156SAPE  H11B17355   4.521   5.882  10.465  1.0429 -1.6553 -0.4301
  156SAPE     P17356   4.390   5.608  10.632  0.1628 -0.2851  0.1054
  156SAPE   O1317357   4.471   5.634  10.751 -0.8354  0.1417 -0.0172
  156SAPE   O1417358   4.252   5.558  10.638 -0.0582 -0.2021 -0.4802
  156SAPE   O1217359   4.387   5.736  10.544  0.3485 -0.8295  0.0840
  156SAPE   O1117360   4.478   5.512  10.542  0.4392  0.6041 -0.3993
  156SAPE    C117361   4.617   5.522  10.539  0.1408  0.5912 -0.7786
  156SAPE    HA17362   4.652   5.627  10.537 -0.8962  0.9369 -1.9882
  156SAPE    HB17363   4.658   5.492  10.638  2.1719  1.4857 -1.3153
  156SAPE    C217364   4.682   5.439  10.430  0.1247  0.3991 -0.0540
  156SAPE    HS17365   4.793   5.442  10.442  0.0190 -2.0377  2.3724
  156SAPE   O2117366   4.637   5.498  10.304 -0.2198  0.1406  0.0795
  156SAPE   C2117367   4.696   5.601  10.259  0.2586  0.4393  0.3306
  156SAPE   O2217368   4.793   5.652  10.316 -0.3719 -0.1360 -0.2795
  156SAPE   C2217369   4.637   5.643  10.119 -0.7404  0.1055 -0.2076
  156SAPE   H2R17370   4.608   5.750  10.125 -0.8905  0.3811 -3.7723
  156SAPE   H2S17371   4.728   5.649  10.055 -1.8533  0.3435 -1.8415
  156SAPE    C317372   4.646   5.291  10.437 -0.2583  0.3336 -0.3588
  156SAPE    HX17373   4.535   5.281  10.441 -0.2568  0.0395 -1.0002
  156SAPE    HY17374   4.687   5.243  10.529 -0.1079  2.1917  0.5921
  156SAPE   O3117375   4.702   5.225  10.326  0.2878  0.0889  0.3364
  156SAPE   C3117376   4.628   5.178  10.231  0.0347  0.0477 -0.7693
  156SAPE   O3217377   4.504   5.161  10.247 -0.6065  0.7608 -0.2887
  156SAPE   C3217378   4.709   5.136  10.108 -0.4331  0.8851  0.6815
  156SAPE   H2X17379   4.727   5.028  10.129  0.7273  0.5037 -1.9378
  156SAPE   H2Y17380   4.805   5.192  10.104 -0.4575  0.8235 -1.7533
  156SAPE   C2317381   4.526   5.559  10.063 -0.2480 -0.2351  0.4334
  156SAPE   H3R17382   4.437   5.552  10.130 -0.4330 -1.8733  0.0402
  156SAPE   H3S17383   4.556   5.453  10.053 -0.3143 -0.1784 -0.4381
  156SAPE   C2417384   4.473   5.595   9.916  0.6592  0.1523  0.4587
  156SAPE   H4R17385   4.415   5.689   9.925 -0.5809 -0.5032 -0.5166
  156SAPE   H4S17386   4.397   5.519   9.891  0.3936  0.7191 -0.5292
  156SAPE   C2517387   4.586   5.590   9.815 -0.9417 -0.0624 -0.2227
  156SAPE   H5R17388   4.678   5.642   9.848 -0.4281 -1.8257  1.3135
  156SAPE   C2617389   4.570   5.541   9.687 -0.2696 -0.0824 -0.3992
  156SAPE   H6R17390   4.649   5.549   9.611  0.9537 -1.3352  0.6883
  156SAPE   C2717391   4.445   5.499   9.626  0.4661  0.5823 -0.2138
  156SAPE   H7R17392   4.353   5.490   9.688  1.4683  1.4103  1.4606
  156SAPE   H7S17393   4.460   5.394   9.594  0.0852  0.1026  1.1132
  156SAPE   C2817394   4.412   5.593   9.509  0.8481  0.4032 -0.6381
  156SAPE   H8R17395   4.338   5.671   9.531 -0.3599 -0.0490 -2.7699
  156SAPE   C2917396   4.445   5.590   9.378  0.9338  0.2674 -0.8755
  156SAPE   H9R17397   4.415   5.666   9.304 -0.0723  1.5013  0.7320
  156SAPE  C21017398   4.540   5.481   9.326  0.4455 -0.7435 -0.2439
  156SAPE  H10R17399   4.477   5.409   9.270  0.1924  1.3107 -2.7732
  156SAPE  H10S17400   4.590   5.424   9.407 -0.3387 -1.0162  0.0640
  156SAPE  C21117401   4.644   5.547   9.244  0.0934 -0.0325  0.4504
  156SAPE  H11R17402   4.739   5.556   9.299 -0.1771 -1.8421  1.2813
  156SAPE  C21217403   4.637   5.595   9.115  0.5906  0.7310 -0.8010
  156SAPE  H12R17404   4.732   5.635   9.075  0.3057  0.9696 -1.2497
  156SAPE  C21317405   4.518   5.599   9.035  0.4276 -0.2109  0.1934
  156SAPE  H13R17406   4.471   5.699   9.029 -0.5840 -0.6274  1.0238
  156SAPE  H13S17407   4.433   5.543   9.079 -0.0789  0.6155  0.2839
  156SAPE  C21417408   4.540   5.538   8.898 -1.3598  0.5691  0.0391
  156SAPE  H14R17409   4.634   5.481   8.895 -0.9723  1.2258 -1.2244
  156SAPE  C21517410   4.463   5.544   8.785 -0.0831 -0.3247  0.3422
  156SAPE  H15R17411   4.496   5.490   8.695  0.4085  2.0666 -0.9809
  156SAPE  C21617412   4.339   5.637   8.774  0.8074 -0.8323  0.9580
  156SAPE  H16R17413   4.271   5.644   8.861 -1.0529  1.6511 -0.5843
  156SAPE  H16S17414   4.270   5.601   8.695 -1.6856  0.0974  2.6117
  156SAPE  C21717415   4.391   5.774   8.732  0.1878  0.4468  0.4497
  156SAPE  H17R17416   4.434   5.755   8.631  1.3765  3.2877  0.3341
  156SAPE  H17S17417   4.472   5.811   8.798  0.1091  1.7474 -0.1435
  156SAPE  C21817418   4.289   5.882   8.709 -0.0313 -0.6344  0.6804
  156SAPE  H18R17419   4.234   5.903   8.803 -0.6797 -0.2008  0.2169
  156SAPE  H18S17420   4.218   5.852   8.630  1.8604  1.7822 -2.1716
  156SAPE  C21917421   4.368   6.009   8.654 -0.0179  0.4165 -0.1198
  156SAPE  H19R17422   4.429   5.978   8.567 -0.0911 -1.9010  0.5796
  156SAPE  H19S17423   4.436   6.045   8.734 -1.5241 -1.4743  2.1897
  156SAPE  C22017424   4.273   6.114   8.616  0.7330 -0.1065  0.2897
  156SAPE  H20R17425   4.191   6.077   8.551  0.3095  0.7054  0.3433
  156SAPE  H20S17426   4.316   6.208   8.576 -2.0874  0.6011 -1.3680
  156SAPE  H20T17427   4.224   6.144   8.711 -0.1092 -0.9952  0.1606
  156SAPE   C3317428   4.635   5.154   9.976 -0.0615  0.3846  0.7598
  156SAPE   H3X17429   4.634   5.262   9.951  2.1568  0.5472  1.1849
  156SAPE   H3Y17430   4.531   5.115   9.964 -0.2262  0.6334  1.3546
  156SAPE   C3417431   4.720   5.100   9.859 -0.0936 -0.1545  0.7661
  156SAPE   H4X17432   4.724   4.989   9.859 -3.1240 -0.4392 -2.0882
  156SAPE   H4Y17433   4.821   5.140   9.879 -0.8601  1.4006  1.6699
  156SAPE   C3517434   4.686   5.151   9.714 -0.0763 -0.3651 -0.5493
  156SAPE   H5X17435   4.676   5.261   9.718  0.1442 -0.3578 -0.1457
  156SAPE   H5Y17436   4.582   5.119   9.691 -0.2981  1.5531 -2.4542
  156SAPE   C3617437   4.789   5.102   9.609  0.7145  0.1090 -0.0555
  156SAPE   H6X17438   4.782   4.991   9.613  2.0516  0.0438  2.3328
  156SAPE   H6Y17439   4.893   5.138   9.626  0.9430 -0.0289 -1.0493
  156SAPE   C3717440   4.736   5.146   9.474  0.5266 -0.3502 -0.1082
  156SAPE   H7X17441   4.724   5.256   9.480  2.1963 -0.2193  2.5781
  156SAPE   H7Y17442   4.631   5.120   9.446  0.1865 -0.2896  1.0547
  156SAPE   C3817443   4.840   5.098   9.368  0.4066  0.7409 -0.4940
  156SAPE   H8X17444   4.878   4.998   9.397  1.7734  1.7282  1.3397
  156SAPE   H8Y17445   4.927   5.167   9.371  0.6895  0.3818 -0.3926
  156SAPE   C3917446   4.781   5.096   9.228  0.7333 -0.1390 -0.3214
  156SAPE   H9X17447   4.721   5.188   9.208  0.5957 -0.0838  0.3452
  156SAPE   H9Y17448   4.703   5.017   9.230 -0.2667  0.8490  0.8136
  156SAPE  C31017449   4.887   5.067   9.121  0.6023  0.1813  0.6824
  156SAPE  H10X17450   4.916   4.963   9.148  0.8446  0.3023  0.8944
  156SAPE  H10Y17451   4.977   5.133   9.118 -0.2926  1.3970 -1.2042
  156SAPE  C31117452   4.849   5.054   8.969  0.1323 -0.0868  0.3768
  156SAPE  H11X17453   4.751   5.003   8.960  0.7784 -1.7106  1.9665
  156SAPE  H11Y17454   4.929   5.002   8.913  1.4454  1.8784  0.3195
  156SAPE  C31217455   4.849   5.190   8.897 -0.3726 -0.0896  0.7542
  156SAPE  H12X17456   4.958   5.209   8.898 -0.2805 -0.5449  2.0995
  156SAPE  H12Y17457   4.809   5.266   8.968 -0.0844 -1.3714  2.3536
  156SAPE  C31317458   4.786   5.194   8.756  0.3913 -0.6850 -0.5832
  156SAPE  H13X17459   4.677   5.177   8.772 -0.2759  2.7120 -0.7188
  156SAPE  H13Y17460   4.840   5.109   8.710  0.4353 -1.4110  0.7326
  156SAPE  C31417461   4.794   5.318   8.673  0.4237 -0.5730  0.2868
  156SAPE  H14X17462   4.898   5.337   8.640 -0.0891  2.2735  0.0812
  156SAPE  H14Y17463   4.774   5.397   8.748  1.1240 -1.0800  1.0177
  156SAPE  C31517464   4.692   5.329   8.559 -0.1417  0.7184 -0.0289
  156SAPE  H15X17465   4.590   5.309   8.597  0.6293 -1.0249  1.2509
  156SAPE  H15Y17466   4.717   5.247   8.489 -1.1407  2.1539 -2.1719
  156SAPE  C31617467   4.685   5.459   8.476 -0.8935 -0.5398  0.0431
  156SAPE  H16X17468   4.768   5.475   8.405 -0.9576  4.6422  0.7872
  156SAPE  H16Y17469   4.705   5.535   8.554  0.5321 -0.4380 -0.3946
  156SAPE  C31717470   4.548   5.478   8.410  0.4007 -0.4314  0.1310
  156SAPE  H17X17471   4.559   5.580   8.367  1.4027  0.9662  3.3895
  156SAPE  H17Y17472   4.470   5.463   8.488  1.3923 -1.9781  0.8690
  156SAPE  C31817473   4.529   5.386   8.291 -0.2861  0.4194  0.0694
  156SAPE  H18X17474   4.426   5.394   8.248 -0.4142  0.9455  0.4634
  156SAPE  H18Y17475   4.542   5.280   8.321 -0.0092 -0.1142 -1.7930
  156SAPE  H18Z17476   4.607   5.407   8.215  1.0708 -2.9102  0.3568
  157SAPE     N17477   3.757   5.835  11.255 -0.2610 -0.5277  0.3753
  157SAPE   HN117478   3.849   5.817  11.299  1.3450 -0.0210 -2.5387
  157SAPE   HN217479   3.762   5.921  11.197  0.6781 -0.3600  0.6832
  157SAPE   HN317480   3.681   5.838  11.326  1.4163 -1.7690  2.3380
  157SAPE   C1217481   3.770   5.722  11.154  0.1372 -0.1360 -0.1375
  157SAPE  H12A17482   3.670   5.705  11.109 -0.5433 -2.1955  1.9483
  157SAPE  H12B17483   3.805   5.625  11.195 -0.1766 -0.2687 -0.1857
  157SAPE   C1117484   3.853   5.770  11.033 -0.1682  0.2801  0.6482
  157SAPE  H11A17485   3.864   5.679  10.970  0.8031 -0.7248  2.2069
  157SAPE  H11B17486   3.952   5.794  11.077  0.7861 -3.5056  0.9085
  157SAPE     P17487   3.874   5.962  10.866  0.4560 -0.0572  0.1773
  157SAPE   O1317488   3.788   6.078  10.821  0.3774  0.3185 -0.0649
  157SAPE   O1417489   4.006   5.992  10.927  0.4190 -0.0972 -0.2955
  157SAPE   O1217490   3.794   5.881  10.973  0.2360  0.2890  0.1367
  157SAPE   O1117491   3.891   5.859  10.748 -0.4429 -0.3012  0.0642
  157SAPE    C117492   3.774   5.808  10.680  0.0796  0.5800  0.1959
  157SAPE    HA17493   3.798   5.708  10.638 -0.3082  0.2128  0.8311
  157SAPE    HB17494   3.685   5.788  10.743  1.4486 -1.9640  1.4283
  157SAPE    C217495   3.741   5.892  10.556 -0.5494  0.1649 -0.3085
  157SAPE    HS17496   3.714   5.993  10.593  0.9555 -0.2142  2.0910
  157SAPE   O2117497   3.636   5.833  10.475  0.2280  0.5369 -0.2580
  157SAPE   C2117498   3.602   5.898  10.365  0.1731  0.6172 -0.1218
  157SAPE   O2217499   3.636   6.010  10.336  0.3785  0.0131 -0.0643
  157SAPE   C2217500   3.529   5.799  10.276  0.1622  0.2222  0.4341
  157SAPE   H2R17501   3.472   5.725  10.336 -0.8306 -0.7295 -1.5753
  157SAPE   H2S17502   3.464   5.867  10.217  3.6854  1.7814 -1.9654
  157SAPE    C317503   3.871   5.915  10.471 -0.0593  1.1953 -0.0422
  157SAPE    HX17504   3.949   5.965  10.531 -1.2361  1.2040  1.5365
  157SAPE    HY17505   3.840   5.975  10.383 -2.3631  1.5593  0.9544
  157SAPE   O3117506   3.918   5.782  10.432 -0.1754 -0.1506  0.0643
  157SAPE   C3117507   4.051   5.775  10.414 -0.4170  0.8879  0.2181
  157SAPE   O3217508   4.125   5.871  10.434  0.7107 -0.4518  0.1399
  157SAPE   C3217509   4.081   5.627  10.356  0.0299  0.3194 -0.3713
  157SAPE   H2X17510   3.985   5.574  10.373 -0.3394  1.5217  1.6971
  157SAPE   H2Y17511   4.159   5.590  10.425 -1.3796 -0.8892  0.6407
  157SAPE   C2317512   3.617   5.710  10.185 -0.6870  0.0779 -0.1069
  157SAPE   H3R17513   3.555   5.638  10.128 -0.0239 -0.5659 -0.0192
  157SAPE   H3S17514   3.691   5.658  10.249 -2.3223 -1.8899  0.2744
  157SAPE   C2417515   3.686   5.794  10.071 -0.6872  0.3998  0.2307
  157SAPE   H4R17516   3.748   5.713  10.028  1.2580  1.2280  1.3274
  157SAPE   H4S17517   3.765   5.865  10.103  0.6970 -1.3722  0.9565
  157SAPE   C2517518   3.593   5.867   9.975 -0.0881 -0.1091 -0.4244
  157SAPE   H5R17519   3.538   5.948  10.026  0.4238  0.4877 -0.7988
  157SAPE   C2617520   3.577   5.851   9.841 -0.6385  0.6179 -0.1674
  157SAPE   H6R17521   3.500   5.911   9.792 -0.9401 -0.3370 -0.8924
  157SAPE   C2717522   3.642   5.749   9.753  0.1093  0.0083  0.0401
  157SAPE   H7R17523   3.701   5.675   9.811 -1.1657 -1.9413 -1.0322
  157SAPE   H7S17524   3.709   5.805   9.684  0.1128  0.3326  0.3022
  157SAPE   C2817525   3.539   5.672   9.673  0.1076  0.0060 -0.0784
  157SAPE   H8R17526   3.482   5.607   9.741 -2.6288  3.1061  0.8680
  157SAPE   C2917527   3.513   5.685   9.545 -0.5043  0.1870 -0.3450
  157SAPE   H9R17528   3.433   5.622   9.501 -0.0962 -0.6432  0.0755
  157SAPE  C21017529   3.595   5.766   9.448  0.3733  0.3576 -0.0357
  157SAPE  H10R17530   3.608   5.713   9.352  0.4440  1.9307 -0.9248
  157SAPE  H10S17531   3.689   5.814   9.483 -0.6727  1.8550  0.8409
  157SAPE  C21117532   3.524   5.902   9.415 -0.0799  0.4944 -0.1645
  157SAPE  H11R17533   3.466   5.949   9.496  0.2621 -0.2478  0.5395
  157SAPE  C21217534   3.534   5.964   9.298  0.2865  0.4989  0.3920
  157SAPE  H12R17535   3.486   6.063   9.288 -2.4013 -0.5989  1.4835
  157SAPE  C21317536   3.618   5.905   9.179  0.7378  0.1410 -0.0637
  157SAPE  H13R17537   3.585   5.803   9.152 -0.5809  0.4528  0.3119
  157SAPE  H13S17538   3.720   5.902   9.224  0.4523 -2.3683  0.5764
  157SAPE  C21417539   3.613   6.001   9.059 -0.1388 -0.0344 -0.9304
  157SAPE  H14R17540   3.661   6.098   9.075  2.7660 -1.5565  0.3909
  157SAPE  C21517541   3.559   5.975   8.938  0.2069  0.2188 -0.0972
  157SAPE  H15R17542   3.557   6.054   8.862  1.6067  1.0281  0.6523
  157SAPE  C21617543   3.478   5.858   8.897  0.1346 -0.2208  0.2286
  157SAPE  H16R17544   3.393   5.880   8.829 -0.3145 -0.0659  0.8252
  157SAPE  H16S17545   3.418   5.822   8.984 -0.1617 -0.5871 -0.1219
  157SAPE  C21717546   3.555   5.736   8.839 -0.4001 -0.2400  0.2892
  157SAPE  H17R17547   3.649   5.726   8.898 -0.2402  1.9832  0.4851
  157SAPE  H17S17548   3.569   5.761   8.732 -0.4665  2.6436  0.8694
  157SAPE  C21817549   3.462   5.612   8.847  0.2633  0.0197 -0.0679
  157SAPE  H18R17550   3.378   5.628   8.776 -0.9571 -3.5746  0.3481
  157SAPE  H18S17551   3.433   5.581   8.950  1.7177  0.0067  0.3629
  157SAPE  C21917552   3.527   5.483   8.777 -0.0614 -0.1376  0.3521
  157SAPE  H19R17553   3.621   5.463   8.833  1.0523  0.1961 -1.3181
  157SAPE  H19S17554   3.562   5.504   8.673 -0.7542 -0.2550  0.0862
  157SAPE  C22017555   3.440   5.359   8.775  0.3428 -0.8863 -0.5734
  157SAPE  H20R17556   3.347   5.378   8.717  0.9164  1.2057 -0.9039
  157SAPE  H20S17557   3.406   5.334   8.878 -0.4088 -0.1513 -0.6370
  157SAPE  H20T17558   3.497   5.267   8.750  2.0645 -0.9685  2.9751
  157SAPE   C3317559   4.134   5.632  10.210 -0.1308  0.0382  0.4805
  157SAPE   H3X17560   4.179   5.533  10.192 -0.9722 -0.2895  0.1251
  157SAPE   H3Y17561   4.219   5.701  10.188 -0.3505  0.0377 -0.3848
  157SAPE   C3417562   4.030   5.655  10.101 -0.2748  0.3312  0.7294
  157SAPE   H4X17563   3.994   5.759  10.089 -1.8499 -0.3310 -0.8431
  157SAPE   H4Y17564   3.947   5.581  10.106 -1.2181  0.9601 -2.7915
  157SAPE   C3517565   4.091   5.623   9.956  0.2974  0.2270 -0.8323
  157SAPE   H5X17566   4.111   5.514   9.951  0.8431  0.2240  0.9427
  157SAPE   H5Y17567   4.187   5.674   9.935  0.5475 -0.3295 -1.0708
  157SAPE   C3617568   3.989   5.643   9.844 -0.2175 -0.6367 -0.6674
  157SAPE   H6X17569   3.979   5.752   9.828  1.6304 -0.3442 -0.0848
  157SAPE   H6Y17570   3.894   5.586   9.856  0.2265 -1.2143  0.1851
  157SAPE   C3717571   4.057   5.599   9.717  0.0669  0.7157  0.2025
  157SAPE   H7X17572   4.079   5.490   9.711 -1.3314  0.4014  0.5037
  157SAPE   H7Y17573   4.147   5.660   9.694  1.5657 -0.8453  1.5957
  157SAPE   C3817574   3.963   5.611   9.598  0.3981 -0.3988  0.0973
  157SAPE   H8X17575   3.910   5.709   9.609 -0.7574 -1.2756  4.3134
  157SAPE   H8Y17576   3.887   5.530   9.606  1.6300 -1.4994  0.8842
  157SAPE   C3917577   4.033   5.614   9.460  0.3202 -0.3352 -0.1724
  157SAPE   H9X17578   4.092   5.520   9.455  0.4992 -0.1888 -0.7915
  157SAPE   H9Y17579   4.108   5.695   9.464  0.9405 -0.7997 -1.6863
  157SAPE  C31017580   3.958   5.624   9.331 -0.1827  0.0281 -1.1538
  157SAPE  H10X17581   3.915   5.726   9.336  3.2011  1.6616  4.9901
  157SAPE  H10Y17582   3.880   5.545   9.338 -0.8355  0.8285  2.6677
  157SAPE  C31117583   4.049   5.614   9.207  0.3692 -0.1916 -0.2316
  157SAPE  H11X17584   4.095   5.512   9.205  1.4746  0.2755  0.3827
  157SAPE  H11Y17585   4.138   5.680   9.211  0.9007 -0.9175  0.2780
  157SAPE  C31217586   3.978   5.635   9.069 -0.5497 -0.5728  0.3724
  157SAPE  H12X17587   3.884   5.576   9.060 -0.4455 -0.5773 -0.9717
  157SAPE  H12Y17588   4.051   5.598   8.993  0.3784 -0.3171  1.1230
  157SAPE  C31317589   3.970   5.791   9.038 -0.0180  0.8191 -0.4456
  157SAPE  H13X17590   4.068   5.833   9.067 -0.7658  2.0482  0.3740
  157SAPE  H13Y17591   3.891   5.835   9.103  0.2464 -1.9503  1.9621
  157SAPE  C31417592   3.947   5.810   8.888 -0.0050  1.3079 -0.7381
  157SAPE  H14X17593   3.858   5.751   8.855  1.0265  0.0066 -1.2836
  157SAPE  H14Y17594   4.036   5.767   8.838  0.5843  1.7950 -0.1119
  157SAPE  C31517595   3.935   5.952   8.825 -0.5084  0.0560  0.3280
  157SAPE  H15X17596   4.037   5.996   8.826 -0.7903  0.7628 -0.3878
  157SAPE  H15Y17597   3.864   6.003   8.893 -1.7605  0.2936 -1.0962
  157SAPE  C31617598   3.893   5.947   8.672 -0.2510 -0.1510 -0.3248
  157SAPE  H16X17599   3.800   5.888   8.657 -0.8229  1.0426 -1.6932
  157SAPE  H16Y17600   3.971   5.880   8.630 -0.9981 -1.0923 -0.2575
  157SAPE  C31717601   3.876   6.086   8.605  0.0074  0.7497 -0.1815
  157SAPE  H17X17602   3.977   6.134   8.604  0.2097  0.4001 -2.1496
  157SAPE  H17Y17603   3.829   6.164   8.668  1.6792 -0.0548  2.1951
  157SAPE  C31817604   3.821   6.079   8.467 -0.6771  0.1331 -0.2912
  157SAPE  H18X17605   3.797   6.178   8.423 -1.1492  0.5463  0.8688
  157SAPE  H18Y17606   3.731   6.015   8.475 -0.0012 -1.1025 -1.7986
  157SAPE  H18Z17607   3.897   6.026   8.405 -0.4902  1.6159 -1.3772
  158SAPE     N17608   5.338   5.609  10.906  0.3414  0.0522  0.7541
  158SAPE   HN117609   5.352   5.508  10.927  2.2365  0.4191  1.5230
  158SAPE   HN217610   5.432   5.654  10.914  0.1760  1.1935 -2.5255
  158SAPE   HN317611   5.273   5.655  10.972 -1.2508  0.7419 -1.1892
  158SAPE   C1217612   5.292   5.632  10.766  0.1133  0.0576  0.3861
  158SAPE  H12A17613   5.219   5.554  10.738 -0.5241  1.0726 -0.8506
  158SAPE  H12B17614   5.381   5.627  10.700 -0.5757  1.6089 -0.7146
  158SAPE   C1117615   5.235   5.771  10.740 -0.1347 -0.0625 -0.7524
  158SAPE  H11A17616   5.145   5.783  10.804  0.3480 -0.2284 -0.0343
  158SAPE  H11B17617   5.198   5.766  10.635 -1.4144 -1.6277 -0.2594
  158SAPE     P17618   5.273   6.026  10.744 -0.0715 -0.0545 -0.4494
  158SAPE   O1317619   5.124   6.025  10.725 -0.3403 -0.0272 -0.7218
  158SAPE   O1417620   5.328   6.105  10.858 -0.0852 -0.0280  0.3451
  158SAPE   O1217621   5.329   5.877  10.764 -0.2219 -0.5546 -0.4219
  158SAPE   O1117622   5.339   6.067  10.609  0.2008  0.3647 -0.1945
  158SAPE    C117623   5.345   5.992  10.491  0.3518  0.1964 -0.1290
  158SAPE    HA17624   5.362   5.885  10.514  0.1835 -0.1033 -1.3547
  158SAPE    HB17625   5.243   5.997  10.447  0.1623 -1.6224  0.0461
  158SAPE    C217626   5.447   6.059  10.401  0.2913 -0.0544  0.4315
  158SAPE    HS17627   5.468   6.163  10.432 -1.0783  0.2777  0.3273
  158SAPE   O2117628   5.398   6.051  10.272  0.1629  0.1952  0.3175
  158SAPE   C2117629   5.349   6.159  10.219 -0.0532 -0.0409  1.1638
  158SAPE   O2217630   5.330   6.266  10.276 -0.0572 -0.0933 -0.2726
  158SAPE   C2217631   5.317   6.137  10.070  0.1024 -0.0925  0.5369
  158SAPE   H2R17632   5.329   6.028  10.052 -2.2167 -1.1691  4.3209
  158SAPE   H2S17633   5.212   6.172  10.057  0.5895  1.1149 -0.3248
  158SAPE    C317634   5.588   5.994  10.402 -0.1148 -0.0689 -0.5907
  158SAPE    HX17635   5.579   5.885  10.383  0.2412 -0.3857  0.8721
  158SAPE    HY17636   5.634   6.003  10.503 -0.2111  1.7663 -0.6748
  158SAPE   O3117637   5.672   6.067  10.304 -0.0414 -0.0756 -0.1325
  158SAPE   C3117638   5.780   6.134  10.345 -0.0425 -0.4603  0.0528
  158SAPE   O3217639   5.813   6.143  10.461  0.3458 -0.4969  0.0277
  158SAPE   C3217640   5.842   6.196  10.218 -0.2703 -0.1407 -0.0563
  158SAPE   H2X17641   5.795   6.296  10.211 -1.0788 -0.5425 -0.5394
  158SAPE   H2Y17642   5.806   6.135  10.132  0.7458  0.7559 -1.1545
  158SAPE   C2317643   5.396   6.240   9.978 -0.5692  0.7513 -0.3201
  158SAPE   H3R17644   5.498   6.264  10.016 -0.0334 -2.1589  0.3730
  158SAPE   H3S17645   5.332   6.329   9.963  1.5693  2.0364 -2.7115
  158SAPE   C2417646   5.426   6.174   9.837  0.2537  0.5219 -0.1935
  158SAPE   H4R17647   5.421   6.258   9.764  2.7052  0.4880 -0.5037
  158SAPE   H4S17648   5.344   6.102   9.819 -0.8803  0.6584  3.4767
  158SAPE   C2517649   5.560   6.095   9.827  0.3254 -0.0732  0.0306
  158SAPE   H5R17650   5.555   5.986   9.823  0.4877 -0.0506 -1.2111
  158SAPE   C2617651   5.681   6.154   9.823  0.2793 -0.0447 -0.2409
  158SAPE   H6R17652   5.767   6.086   9.816  1.3031  1.0321  1.1460
  158SAPE   C2717653   5.709   6.299   9.841 -0.3498 -0.2364  0.2348
  158SAPE   H7R17654   5.744   6.330   9.941  2.6374  2.6138 -1.4984
  158SAPE   H7S17655   5.615   6.358   9.828 -0.1349  0.0557 -0.0114
  158SAPE   C2817656   5.814   6.370   9.761  0.7549  0.3808 -0.5137
  158SAPE   H8R17657   5.873   6.441   9.821 -1.7186 -1.0227  4.0240
  158SAPE   C2917658   5.834   6.376   9.628  0.4133 -0.6490  0.3044
  158SAPE   H9R17659   5.911   6.446   9.592 -0.8385  0.7117  0.1965
  158SAPE  C21017660   5.756   6.305   9.517 -0.0926  0.1310  0.0898
  158SAPE  H10R17661   5.775   6.196   9.507  1.9100  0.5243 -0.9105
  158SAPE  H10S17662   5.796   6.341   9.419 -1.6154  0.2150 -0.5320
  158SAPE  C21117663   5.606   6.344   9.531 -0.8831  0.6593 -0.4484
  158SAPE  H11R17664   5.560   6.377   9.625  0.1734  0.7074  0.0673
  158SAPE  C21217665   5.520   6.342   9.434  0.0021 -0.1520  0.1967
  158SAPE  H12R17666   5.416   6.366   9.459 -0.2197 -1.3297  0.5042
  158SAPE  C21317667   5.549   6.303   9.289 -1.0250 -0.5114  0.2368
  158SAPE  H13R17668   5.653   6.266   9.286 -0.8945 -0.1802  0.4979
  158SAPE  H13S17669   5.561   6.397   9.230 -1.8805  0.2871  1.2790
  158SAPE  C21417670   5.458   6.199   9.231  0.2932 -0.9365  0.4656
  158SAPE  H14R17671   5.421   6.128   9.307 -2.8813 -0.1036 -0.1922
  158SAPE  C21517672   5.412   6.180   9.108 -0.3596  0.3156  0.0709
  158SAPE  H15R17673   5.362   6.089   9.071  3.1639 -0.9152 -2.0932
  158SAPE  C21617674   5.441   6.269   8.995  0.2342  0.0102  0.5955
  158SAPE  H16R17675   5.539   6.252   8.944  0.7662  4.1722 -0.1668
  158SAPE  H16S17676   5.443   6.378   9.018 -1.2854  0.5826 -1.6397
  158SAPE  C21717677   5.332   6.274   8.880 -0.0862  0.0118  0.1071
  158SAPE  H17R17678   5.362   6.354   8.809  1.6360 -0.7902 -0.1348
  158SAPE  H17S17679   5.232   6.292   8.925  0.1791 -0.0526  0.7351
  158SAPE  C21817680   5.321   6.143   8.809  0.1148 -0.4153 -0.1046
  158SAPE  H18R17681   5.288   6.063   8.879 -0.6664  0.3447  0.4050
  158SAPE  H18S17682   5.413   6.110   8.756 -0.5353 -0.5494 -1.1693
  158SAPE  C21917683   5.220   6.156   8.691  0.3750 -0.0974  0.2335
  158SAPE  H19R17684   5.138   6.225   8.724 -0.4135 -0.6487 -0.5421
  158SAPE  H19S17685   5.165   6.060   8.681  1.6254 -0.6781 -1.2545
  158SAPE  C22017686   5.281   6.195   8.561 -0.3069 -0.6545  0.4227
  158SAPE  H20R17687   5.370   6.258   8.582 -0.8297  0.1397  0.3159
  158SAPE  H20S17688   5.206   6.262   8.513  0.2799 -0.5754 -0.4196
  158SAPE  H20T17689   5.315   6.110   8.499  0.4161 -2.1356  2.7327
  158SAPE   C3317690   6.000   6.197  10.240 -0.2229  0.4498 -0.3321
  158SAPE   H3X17691   6.029   6.097  10.278 -0.1537  0.7021  0.2906
  158SAPE   H3Y17692   6.024   6.272  10.318 -1.6544  1.9746 -1.2727
  158SAPE   C3417693   6.074   6.231  10.108  0.4502 -0.4098  0.9250
  158SAPE   H4X17694   6.176   6.267  10.129 -0.5531  1.6399  2.7023
  158SAPE   H4Y17695   6.030   6.321  10.061 -0.4767 -1.2619  0.0931
  158SAPE   C3517696   6.081   6.113  10.006  0.0897 -0.7181 -0.4041
  158SAPE   H5X17697   5.985   6.071   9.969 -1.3734  1.0440  1.1877
  158SAPE   H5Y17698   6.132   6.023  10.046 -1.9033 -1.8988 -0.3880
  158SAPE   C3617699   6.147   6.159   9.880  0.8826  0.0308  0.0429
  158SAPE   H6X17700   6.249   6.192   9.908  1.2145 -2.0933  1.5205
  158SAPE   H6Y17701   6.085   6.246   9.848 -0.6609 -0.9877  0.1999
  158SAPE   C3717702   6.164   6.054   9.775 -0.1851  0.1312  0.2878
  158SAPE   H7X17703   6.150   5.950   9.811 -1.2384 -0.9641 -2.9758
  158SAPE   H7Y17704   6.269   6.060   9.739 -0.1661 -2.4743 -0.3020
  158SAPE   C3817705   6.083   6.081   9.651  0.5138  0.0896  0.2307
  158SAPE   H8X17706   6.131   6.163   9.593  0.1281 -0.9419 -1.6191
  158SAPE   H8Y17707   5.975   6.096   9.672  0.3165 -0.8796 -0.0314
  158SAPE   C3917708   6.075   5.968   9.546 -0.3682  0.1079 -0.1156
  158SAPE   H9X17709   5.990   5.998   9.482 -2.2754 -1.6728  1.4074
  158SAPE   H9Y17710   6.050   5.869   9.592 -1.4290  0.0797 -0.7163
  158SAPE  C31017711   6.199   5.940   9.464 -0.7476 -0.1375 -0.0894
  158SAPE  H10X17712   6.173   5.861   9.391 -2.4456  1.2960 -1.1241
  158SAPE  H10Y17713   6.278   5.901   9.532 -0.2819 -0.6132 -0.8944
  158SAPE  C31117714   6.252   6.054   9.365  0.2602  0.4592 -0.3865
  158SAPE  H11X17715   6.334   6.010   9.304 -0.3248 -0.6412 -0.4183
  158SAPE  H11Y17716   6.296   6.134   9.428  0.3861  1.4662 -1.7120
  158SAPE  C31217717   6.143   6.115   9.278 -0.1348  0.7131  0.7345
  158SAPE  H12X17718   6.057   6.138   9.344 -1.4151 -2.0515  0.1620
  158SAPE  H12Y17719   6.118   6.041   9.200 -0.4019  2.0333 -0.4878
  158SAPE  C31317720   6.197   6.233   9.204 -0.1241  0.1230 -0.1232
  158SAPE  H13X17721   6.293   6.211   9.152 -0.9006  1.4514 -2.2288
  158SAPE  H13Y17722   6.218   6.316   9.275  1.9098 -0.1932 -0.3080
  158SAPE  C31417723   6.106   6.292   9.095 -0.7045  0.4822  0.1824
  158SAPE  H14X17724   6.083   6.210   9.023 -1.2975  0.7485  0.0574
  158SAPE  H14Y17725   6.169   6.369   9.045 -1.5832  2.3259  1.7558
  158SAPE  C31517726   5.973   6.351   9.144  1.0134 -0.1067 -0.1175
  158SAPE  H15X17727   5.984   6.405   9.240  0.0044  0.7178 -0.4344
  158SAPE  H15Y17728   5.906   6.265   9.163  2.8001 -1.2172  1.4489
  158SAPE  C31617729   5.900   6.434   9.038 -0.5229  0.3073 -0.0489
  158SAPE  H16X17730   5.909   6.371   8.947  0.1146 -1.4132  1.1406
  158SAPE  H16Y17731   5.965   6.522   9.022 -0.8244  0.3992 -0.8191
  158SAPE  C31717732   5.757   6.478   9.074  0.1111 -0.3720  0.2660
  158SAPE  H17X17733   5.756   6.525   9.175  1.4825 -0.8865  0.5454
  158SAPE  H17Y17734   5.695   6.386   9.075 -0.4779  0.0168  0.4254
  158SAPE  C31817735   5.704   6.566   8.964  0.0475 -0.5554  0.1795
  158SAPE  H18X17736   5.776   6.650   8.950  0.2778 -0.6708  0.6673
  158SAPE  H18Y17737   5.615   6.629   8.985  1.7762  2.0405  0.1260
  158SAPE  H18Z17738   5.695   6.504   8.872 -0.0794 -2.0247  1.1395
  159SAPE     N17739   3.382   3.346   6.341 -0.3161 -0.7875  0.5903
  159SAPE   HN117740   3.356   3.272   6.410 -0.7019  0.3109  1.6525
  159SAPE   HN217741   3.322   3.430   6.331  2.4861  1.2912 -0.2072
  159SAPE   HN317742   3.375   3.303   6.247 -1.0430  0.0058  0.2732
  159SAPE   C1217743   3.531   3.376   6.360  0.0667 -0.7206 -0.2780
  159SAPE  H12A17744   3.584   3.375   6.262 -1.4746 -0.9229 -1.1483
  159SAPE  H12B17745   3.566   3.284   6.411  2.7150  0.1357 -0.4152
  159SAPE   C1117746   3.553   3.498   6.448 -0.9176 -1.2026 -0.6810
  159SAPE  H11A17747   3.658   3.531   6.432 -1.8350  1.7395 -1.1573
  159SAPE  H11B17748   3.557   3.475   6.557  2.3716  1.3090 -0.0966
  159SAPE     P17749   3.387   3.691   6.508 -0.1004  0.1065  0.0878
  159SAPE   O1317750   3.288   3.757   6.416  0.0059 -0.3258  0.0763
  159SAPE   O1417751   3.338   3.594   6.611 -0.1411  0.4596  0.7118
  159SAPE   O1217752   3.485   3.613   6.406  0.0532 -0.4664 -0.6431
  159SAPE   O1117753   3.477   3.800   6.575  0.3028 -0.0742  0.1935
  159SAPE    C117754   3.560   3.761   6.680 -0.7996 -0.4821 -0.5532
  159SAPE    HA17755   3.587   3.653   6.673 -1.2119 -0.6829  0.7299
  159SAPE    HB17756   3.646   3.830   6.668 -0.9805 -0.1084  0.2372
  159SAPE    C217757   3.498   3.789   6.821 -0.3991 -0.4531  0.1315
  159SAPE    HS17758   3.400   3.738   6.809 -0.1389 -0.9133 -0.0981
  159SAPE   O2117759   3.470   3.932   6.845 -0.4503 -0.1072 -0.0874
  159SAPE   C2117760   3.371   3.961   6.923  0.1979  0.0558  0.3257
  159SAPE   O2217761   3.294   3.881   6.972  0.5267  0.7095  0.2230
  159SAPE   C2217762   3.360   4.111   6.955 -0.0356 -0.0565  0.3982
  159SAPE   H2R17763   3.335   4.152   6.855  0.1180  0.9191  0.7479
  159SAPE   H2S17764   3.272   4.117   7.023  1.1493 -0.5708  2.0241
  159SAPE    C317765   3.587   3.721   6.926 -0.1381  0.5580  0.5971
  159SAPE    HX17766   3.677   3.786   6.919  0.2936 -0.0227  0.7013
  159SAPE    HY17767   3.606   3.613   6.909 -1.8221  0.2010  0.8436
  159SAPE   O3117768   3.534   3.744   7.054 -0.2220 -0.5828  0.4050
  159SAPE   C3117769   3.436   3.657   7.092  0.9878 -0.0042  0.1699
  159SAPE   O3217770   3.405   3.560   7.027  0.2269  0.3790  0.9656
  159SAPE   C3217771   3.376   3.715   7.221  0.0821 -0.1097  0.3592
  159SAPE   H2X17772   3.348   3.819   7.194  0.8483 -0.3248 -1.4744
  159SAPE   H2Y17773   3.458   3.719   7.295  0.0706  3.5734  0.3671
  159SAPE   C2317774   3.485   4.176   7.027  0.1727  0.6429  0.0286
  159SAPE   H3R17775   3.483   4.281   6.991 -1.6632  1.1285  1.3454
  159SAPE   H3S17776   3.581   4.132   6.994 -0.5383 -0.7137 -0.2987
  159SAPE   C2417777   3.474   4.191   7.177 -1.7500  0.0076 -0.2289
  159SAPE   H4R17778   3.381   4.246   7.204 -0.6442  1.3540  0.9837
  159SAPE   H4S17779   3.566   4.246   7.206 -0.0021 -3.2208  0.9153
  159SAPE   C2517780   3.486   4.064   7.253 -0.0508  0.0539  0.0034
  159SAPE   H5R17781   3.502   3.975   7.191 -0.2455 -0.6284  0.8912
  159SAPE   C2617782   3.453   4.049   7.386 -1.0765  0.0668  0.8798
  159SAPE   H6R17783   3.472   3.952   7.434 -1.4211 -1.3728 -1.6792
  159SAPE   C2717784   3.415   4.167   7.473 -0.2978  0.2382 -0.0227
  159SAPE   H7R17785   3.429   4.265   7.423  0.8733 -0.1403 -0.4534
  159SAPE   H7S17786   3.480   4.171   7.563 -1.0385 -0.5607  0.5773
  159SAPE   C2817787   3.270   4.151   7.518  0.2209  0.3213  0.4971
  159SAPE   H8R17788   3.207   4.123   7.432  1.8675 -2.3358  0.0688
  159SAPE   C2917789   3.222   4.148   7.646  0.1335 -0.4693  0.2083
  159SAPE   H9R17790   3.115   4.151   7.672  0.5769 -1.3146  2.3513
  159SAPE  C21017791   3.312   4.172   7.759  0.0031 -0.4953 -1.0087
  159SAPE  H10R17792   3.400   4.104   7.753  0.8151  0.5615 -1.2234
  159SAPE  H10S17793   3.259   4.157   7.856  1.2998  2.1922  0.2218
  159SAPE  C21117794   3.363   4.312   7.771  0.0817  0.6575 -0.6445
  159SAPE  H11R17795   3.452   4.325   7.708 -0.0824 -3.7752 -2.1283
  159SAPE  C21217796   3.322   4.411   7.838  0.0266  0.2263 -0.2990
  159SAPE  H12R17797   3.379   4.505   7.829  0.9672 -0.5276 -3.1019
  159SAPE  C21317798   3.208   4.414   7.931  0.5180  0.2116  0.3126
  159SAPE  H13R17799   3.135   4.332   7.914 -0.4231  1.0190  0.3771
  159SAPE  H13S17800   3.143   4.500   7.904 -1.6586 -1.5080 -0.1914
  159SAPE  C21417801   3.237   4.423   8.082 -0.0630 -0.3583  0.0267
  159SAPE  H14R17802   3.311   4.349   8.117 -0.2719 -0.4577  0.2623
  159SAPE  C21517803   3.174   4.500   8.172  0.0499 -0.1935 -0.0345
  159SAPE  H15R17804   3.201   4.493   8.279  2.2042  1.4814 -0.4068
  159SAPE  C21617805   3.072   4.610   8.143  0.0015  0.3136 -0.0132
  159SAPE  H16R17806   3.104   4.675   8.058  0.9657 -1.1355 -0.8262
  159SAPE  H16S17807   3.062   4.689   8.220 -3.1272  0.0364 -0.0422
  159SAPE  C21717808   2.933   4.564   8.111  0.2275  0.1246 -0.5908
  159SAPE  H17R17809   2.895   4.543   8.214  1.1900  2.9234  0.4377
  159SAPE  H17S17810   2.923   4.473   8.049  1.7212 -0.0681 -0.5842
  159SAPE  C21817811   2.838   4.669   8.045 -0.5004 -0.3895 -0.2093
  159SAPE  H18R17812   2.837   4.767   8.096 -1.0421  0.1010 -1.1282
  159SAPE  H18S17813   2.739   4.632   8.079 -0.8127  1.2031  0.7285
  159SAPE  C21917814   2.848   4.679   7.894  1.0353 -0.2243 -0.3498
  159SAPE  H19R17815   2.859   4.576   7.853 -0.6188 -0.7553  0.4196
  159SAPE  H19S17816   2.947   4.726   7.876  1.1291 -0.2829 -0.0010
  159SAPE  C22017817   2.756   4.772   7.816  0.7554  0.6327 -0.4820
  159SAPE  H20R17818   2.746   4.869   7.870 -0.4815 -0.3179  1.0347
  159SAPE  H20S17819   2.655   4.726   7.818  0.6852  0.7045  2.7664
  159SAPE  H20T17820   2.799   4.793   7.715  1.0013 -1.9772 -0.9872
  159SAPE   C3317821   3.251   3.639   7.282  0.0139 -0.4605 -0.2811
  159SAPE   H3X17822   3.275   3.534   7.311 -4.6123 -1.6008  0.1313
  159SAPE   H3Y17823   3.170   3.637   7.206  1.1343  0.1784 -1.5399
  159SAPE   C3417824   3.204   3.706   7.415  0.3327 -0.2059  1.6383
  159SAPE   H4X17825   3.119   3.641   7.443  2.4367 -3.2067  1.5429
  159SAPE   H4Y17826   3.168   3.811   7.410  0.5649 -0.1720 -0.0973
  159SAPE   C3517827   3.301   3.693   7.529  0.2851  0.5075 -0.6909
  159SAPE   H5X17828   3.397   3.748   7.513  2.0471 -2.5966 -1.6266
  159SAPE   H5Y17829   3.329   3.586   7.533 -0.9748  0.0905 -2.2190
  159SAPE   C3617830   3.237   3.725   7.669  0.1988  0.2316  0.5779
  159SAPE   H6X17831   3.199   3.630   7.714  1.7211 -1.0126 -0.6561
  159SAPE   H6Y17832   3.156   3.801   7.665 -0.2656 -0.3121 -1.7866
  159SAPE   C3717833   3.345   3.777   7.768  0.0078 -0.5364 -0.3079
  159SAPE   H7X17834   3.386   3.871   7.726  0.4974 -1.0895 -1.0872
  159SAPE   H7Y17835   3.426   3.701   7.774 -0.8964 -1.5935 -1.1787
  159SAPE   C3817836   3.298   3.809   7.910 -0.1257 -0.1769 -0.1734
  159SAPE   H8X17837   3.273   3.712   7.958 -1.5447 -0.8565 -2.1908
  159SAPE   H8Y17838   3.205   3.870   7.908 -0.5174 -0.7519  0.1053
  159SAPE   C3917839   3.410   3.889   7.981  0.4735 -0.6435 -0.9555
  159SAPE   H9X17840   3.418   3.992   7.941  1.8432 -0.5871 -0.5861
  159SAPE   H9Y17841   3.502   3.828   7.971 -0.0740 -1.2200 -2.6722
  159SAPE  C31017842   3.380   3.901   8.130 -1.0544 -0.0811 -0.6590
  159SAPE  H10X17843   3.455   3.845   8.190 -1.7496  0.6118  0.9337
  159SAPE  H10Y17844   3.283   3.851   8.151 -0.4264 -1.4035 -0.8251
  159SAPE  C31117845   3.356   4.047   8.177 -0.9900  0.1342  0.1343
  159SAPE  H11X17846   3.269   4.079   8.116  0.0836  0.7205 -1.1413
  159SAPE  H11Y17847   3.445   4.104   8.144 -1.0418 -0.8125 -1.7341
  159SAPE  C31217848   3.329   4.067   8.337 -0.1794  0.0825  0.2270
  159SAPE  H12X17849   3.424   4.037   8.386  0.2994  0.5273 -0.4141
  159SAPE  H12Y17850   3.257   3.991   8.374  0.3000  0.8051  2.8203
  159SAPE  C31317851   3.273   4.209   8.367 -0.6856 -0.0633 -0.6191
  159SAPE  H13X17852   3.177   4.223   8.312 -0.3610 -2.1598 -1.8025
  159SAPE  H13Y17853   3.350   4.285   8.343 -0.3490 -0.3446 -0.4397
  159SAPE  C31417854   3.252   4.200   8.521  0.2615  0.3049  0.0284
  159SAPE  H14X17855   3.343   4.172   8.578  0.0672 -0.9028 -0.2273
  159SAPE  H14Y17856   3.178   4.123   8.552  0.8868 -0.5261 -0.5118
  159SAPE  C31517857   3.215   4.337   8.571  0.7596 -0.2817 -0.2873
  159SAPE  H15X17858   3.284   4.423   8.555  0.3249  0.5541  1.9428
  159SAPE  H15Y17859   3.201   4.329   8.681 -0.6230  2.0277 -0.2234
  159SAPE  C31617860   3.073   4.377   8.538 -0.1051  0.3986 -0.5713
  159SAPE  H16X17861   2.999   4.296   8.553  1.5248 -1.0843 -0.1822
  159SAPE  H16Y17862   3.074   4.412   8.432  1.7275  0.5248 -0.5477
  159SAPE  C31717863   3.031   4.501   8.613 -0.6229 -0.1815 -0.3965
  159SAPE  H17X17864   3.118   4.569   8.629  0.6904 -2.0646  1.0430
  159SAPE  H17Y17865   3.001   4.481   8.718 -0.3448  0.3789 -0.2066
  159SAPE  C31817866   2.928   4.585   8.539 -0.0388 -0.7096  0.2002
  159SAPE  H18X17867   2.956   4.609   8.435  0.9635  2.1814  1.0496
  159SAPE  H18Y17868   2.920   4.689   8.577  0.0956 -0.1695 -1.2008
  159SAPE  H18Z17869   2.826   4.543   8.522 -0.0412 -0.6184 -0.0130
  160SAPE     N17870   2.226   3.820   6.476 -0.6620 -0.2871 -0.0583
  160SAPE   HN117871   2.214   3.863   6.382 -0.9245  0.0872  0.1476
  160SAPE   HN217872   2.316   3.769   6.473 -0.4761  0.0815 -1.1843
  160SAPE   HN317873   2.148   3.753   6.494 -1.8249  1.0106 -0.0477
  160SAPE   C1217874   2.230   3.915   6.588 -0.7089 -0.5155 -0.1806
  160SAPE  H12A17875   2.200   4.016   6.553 -0.2198 -0.2408  0.1867
  160SAPE  H12B17876   2.335   3.915   6.622 -0.9465  1.2560  0.6636
  160SAPE   C1117877   2.133   3.884   6.706 -0.1936  0.3059  0.2019
  160SAPE  H11A17878   2.151   3.962   6.783  0.0397  1.1831 -0.7002
  160SAPE  H11B17879   2.171   3.787   6.745 -3.6610 -1.0008  0.6102
  160SAPE     P17880   1.914   3.764   6.608  0.1532 -0.0866 -0.4530
  160SAPE   O1317881   1.804   3.816   6.523  0.6118  0.3919  0.7563
  160SAPE   O1417882   2.008   3.670   6.544  0.6863  0.0357 -0.0276
  160SAPE   O1217883   2.000   3.888   6.661  0.1863 -0.2083 -0.0074
  160SAPE   O1117884   1.853   3.704   6.743  0.2582  0.3359 -0.3175
  160SAPE    C117885   1.814   3.794   6.859  0.1868  0.1759  0.4470
  160SAPE    HA17886   1.898   3.788   6.931  0.5127  0.6477  0.1086
  160SAPE    HB17887   1.812   3.899   6.825 -0.0109 -0.5794 -2.1131
  160SAPE    C217888   1.686   3.770   6.928  0.6693  0.5736 -0.3934
  160SAPE    HS17889   1.677   3.840   7.014 -3.7152  2.4300 -2.0468
  160SAPE   O2117890   1.683   3.623   6.967  0.4402 -0.3164 -0.1450
  160SAPE   C2117891   1.764   3.594   7.062 -0.2388  0.6400  0.1949
  160SAPE   O2217892   1.829   3.671   7.131  0.1327 -0.2267  0.2074
  160SAPE   C2217893   1.738   3.449   7.098 -0.0632  0.2169  0.6000
  160SAPE   H2R17894   1.629   3.429   7.094  0.4376 -2.7509 -1.1602
  160SAPE   H2S17895   1.779   3.389   7.013  1.8993  0.5398  1.2729
  160SAPE    C317896   1.555   3.806   6.843  0.4205 -0.1884  0.0560
  160SAPE    HX17897   1.469   3.781   6.909 -0.1020  0.1450 -0.4942
  160SAPE    HY17898   1.572   3.742   6.754  1.1715  0.5168 -0.3139
  160SAPE   O3117899   1.559   3.940   6.795  0.5774  0.2855 -0.1846
  160SAPE   C3117900   1.506   4.035   6.868 -0.0750 -0.1663 -0.1270
  160SAPE   O3217901   1.440   4.019   6.969  0.2954  0.7945  0.8540
  160SAPE   C3217902   1.538   4.166   6.813  0.1646  0.3002  0.8609
  160SAPE   H2X17903   1.456   4.233   6.848 -0.5253  0.0490 -0.2190
  160SAPE   H2Y17904   1.542   4.177   6.703  0.0943  1.1813  0.9357
  160SAPE   C2317905   1.794   3.412   7.229 -0.1789  0.3963 -1.0895
  160SAPE   H3R17906   1.905   3.419   7.224 -0.0452 -1.3074 -1.1284
  160SAPE   H3S17907   1.776   3.304   7.250  0.9752 -0.1899 -2.8019
  160SAPE   C2417908   1.728   3.481   7.352  0.0272 -0.3661 -0.9902
  160SAPE   H4R17909   1.678   3.572   7.315 -1.5591 -0.7599  0.0781
  160SAPE   H4S17910   1.807   3.520   7.421 -0.3464 -0.3732 -0.5538
  160SAPE   C2517911   1.627   3.404   7.432  0.0744  0.4205  0.0711
  160SAPE   H5R17912   1.534   3.380   7.379 -0.7111  1.1457  1.0900
  160SAPE   C2617913   1.640   3.372   7.567  0.0788  0.0992  0.3284
  160SAPE   H6R17914   1.564   3.299   7.597 -1.6054  1.7322  0.1848
  160SAPE   C2717915   1.758   3.406   7.654 -0.4085  0.4158  0.5729
  160SAPE   H7R17916   1.728   3.397   7.760  0.0767 -1.7244  0.5783
  160SAPE   H7S17917   1.789   3.511   7.636 -1.1855  0.6919  0.7785
  160SAPE   C2817918   1.875   3.314   7.625 -0.2547  0.2524  0.6613
  160SAPE   H8R17919   1.902   3.299   7.519 -0.6924 -0.3890  0.6370
  160SAPE   C2917920   1.935   3.240   7.721 -0.0889 -0.3363 -0.0933
  160SAPE   H9R17921   2.014   3.166   7.701  0.4223 -0.0110  0.6614
  160SAPE  C21017922   1.899   3.248   7.871  0.0559  0.2665  0.3445
  160SAPE  H10R17923   1.880   3.355   7.891  3.4224  0.8710  0.9345
  160SAPE  H10S17924   1.985   3.221   7.936  1.8494  2.6755 -0.8998
  160SAPE  C21117925   1.787   3.152   7.900  0.4646  0.5228 -0.1991
  160SAPE  H11R17926   1.748   3.086   7.822  1.8617  0.5724 -0.9609
  160SAPE  C21217927   1.728   3.148   8.019  0.2343  0.6842 -0.6603
  160SAPE  H12R17928   1.645   3.077   8.034  1.0253 -0.3175 -0.9449
  160SAPE  C21317929   1.763   3.248   8.139 -0.3744 -0.1273  0.2579
  160SAPE  H13R17930   1.703   3.337   8.113 -0.6254 -0.1787  0.6689
  160SAPE  H13S17931   1.870   3.280   8.133  0.0664 -1.6116 -0.4952
  160SAPE  C21417932   1.732   3.198   8.277  0.6566 -0.2967 -0.0904
  160SAPE  H14R17933   1.813   3.148   8.332  0.8625  0.1039 -0.0251
  160SAPE  C21517934   1.616   3.224   8.341 -0.0091  0.2496 -0.5726
  160SAPE  H15R17935   1.609   3.192   8.446  0.7102 -1.1005 -0.9178
  160SAPE  C21617936   1.489   3.296   8.292  0.1629 -0.3591  0.2913
  160SAPE  H16R17937   1.464   3.268   8.187 -0.2675 -0.9652  0.5491
  160SAPE  H16S17938   1.513   3.404   8.297  1.5175 -0.6586  0.5063
  160SAPE  C21717939   1.360   3.282   8.383 -0.1753  0.4068  0.2018
  160SAPE  H17R17940   1.393   3.305   8.487 -0.0933 -1.4592  0.6194
  160SAPE  H17S17941   1.329   3.176   8.379  1.5917 -0.1037 -1.4589
  160SAPE  C21817942   1.237   3.371   8.353 -0.5526  0.0738 -0.0082
  160SAPE  H18R17943   1.207   3.338   8.251  2.8262  0.4318 -1.2368
  160SAPE  H18S17944   1.270   3.477   8.357  1.2054 -0.3901 -1.0101
  160SAPE  C21917945   1.120   3.359   8.456  0.1812  0.1843  0.1347
  160SAPE  H19R17946   1.159   3.375   8.559 -0.6636  0.4365  0.4259
  160SAPE  H19S17947   1.070   3.260   8.455 -1.8998  1.1691  0.3601
  160SAPE  C22017948   0.996   3.455   8.443 -0.4487 -0.2869  0.3624
  160SAPE  H20R17949   1.026   3.547   8.496  3.3973 -1.3222  0.2879
  160SAPE  H20S17950   0.907   3.408   8.490 -1.0439 -0.6499 -1.0651
  160SAPE  H20T17951   0.974   3.460   8.334 -0.1633 -1.4360  0.2311
  160SAPE   C3317952   1.682   4.215   6.855 -0.3380 -0.3274 -0.0109
  160SAPE   H3X17953   1.696   4.305   6.792 -1.1367 -0.3099 -0.1822
  160SAPE   H3Y17954   1.758   4.138   6.831  0.2414  0.2559 -0.0639
  160SAPE   C3417955   1.696   4.265   7.002  0.1634 -0.2126  0.8034
  160SAPE   H4X17956   1.666   4.178   7.064 -0.4160  0.1472  1.0366
  160SAPE   H4Y17957   1.633   4.355   7.018  1.7800  1.9313 -3.3899
  160SAPE   C3517958   1.841   4.299   7.033 -0.7137  0.5730 -0.4956
  160SAPE   H5X17959   1.889   4.365   6.957  2.3676 -2.0351 -1.0326
  160SAPE   H5Y17960   1.901   4.206   7.029 -0.0348  0.9325  0.6952
  160SAPE   C3617961   1.870   4.360   7.166 -1.1323 -0.1496 -1.3942
  160SAPE   H6X17962   1.815   4.457   7.171  0.6264  0.8400 -0.1568
  160SAPE   H6Y17963   1.975   4.398   7.172 -1.6874  1.2628  0.3472
  160SAPE   C3717964   1.833   4.282   7.296  0.3041  0.5407 -0.2232
  160SAPE   H7X17965   1.722   4.273   7.298  0.3023  0.0521 -1.4575
  160SAPE   H7Y17966   1.854   4.350   7.381  0.1728  2.0232 -1.3332
  160SAPE   C3817967   1.912   4.148   7.303  0.3254  0.0497  0.1078
  160SAPE   H8X17968   2.017   4.177   7.282  0.6000 -0.2482  1.0108
  160SAPE   H8Y17969   1.868   4.074   7.233 -2.0238  1.6417 -0.1900
  160SAPE   C3917970   1.916   4.080   7.442 -0.3213  0.5341 -0.2281
  160SAPE   H9X17971   1.989   3.997   7.439 -0.8168 -0.0327  2.0519
  160SAPE   H9Y17972   1.816   4.040   7.468  0.5223  0.6355  3.8187
  160SAPE  C31017973   1.973   4.167   7.546 -0.0125 -1.0520 -0.1313
  160SAPE  H10X17974   1.915   4.261   7.559  1.6279  0.1644 -1.2230
  160SAPE  H10Y17975   2.070   4.205   7.509  0.2877 -0.3464  1.2924
  160SAPE  C31117976   1.982   4.101   7.682  0.2901 -0.0387 -0.0618
  160SAPE  H11X17977   2.035   4.166   7.755 -0.9901 -0.4192  1.2629
  160SAPE  H11Y17978   2.038   4.006   7.671 -1.0428 -1.0460  1.3834
  160SAPE  C31217979   1.845   4.079   7.748 -0.0115 -0.4331 -0.5912
  160SAPE  H12X17980   1.763   4.028   7.693 -1.7934  2.7608 -1.1914
  160SAPE  H12Y17981   1.810   4.181   7.777  0.7333 -0.1684 -0.6128
  160SAPE  C31317982   1.861   4.003   7.883  0.3445 -0.1326 -0.7733
  160SAPE  H13X17983   1.894   3.897   7.873 -1.3798 -1.2066  2.8833
  160SAPE  H13Y17984   1.758   4.000   7.927  0.9090  1.6703  0.8132
  160SAPE  C31417985   1.936   4.069   7.994 -0.3673 -0.3977 -0.1500
  160SAPE  H14X17986   1.891   4.168   8.015 -0.9437 -0.7464  0.2991
  160SAPE  H14Y17987   2.039   4.082   7.954 -0.9767  0.0830 -1.6144
  160SAPE  C31517988   1.921   3.984   8.123 -0.1868  0.1425 -0.3050
  160SAPE  H15X17989   1.963   3.882   8.111 -0.6713  0.0105 -0.9634
  160SAPE  H15Y17990   1.811   3.972   8.131 -0.1023  0.2272  1.2655
  160SAPE  C31617991   1.985   4.049   8.241  0.6977 -0.1837 -0.4206
  160SAPE  H16X17992   1.971   3.990   8.334 -0.3008  2.9668  1.5691
  160SAPE  H16Y17993   1.935   4.147   8.256 -1.0741 -1.4217  2.8232
  160SAPE  C31717994   2.135   4.057   8.229 -0.2629  0.7259 -0.3498
  160SAPE  H17X17995   2.154   4.124   8.143  0.1896  0.0022 -0.8186
  160SAPE  H17Y17996   2.188   3.960   8.218  2.0954  1.6529  1.7196
  160SAPE  C31817997   2.199   4.124   8.356  0.3340 -0.6242 -0.9703
  160SAPE  H18X17998   2.300   4.168   8.340  0.6336 -0.2764  1.4854
  160SAPE  H18Y17999   2.200   4.063   8.448 -0.2147  0.7724  0.0035
  160SAPE  H18Z18000   2.127   4.204   8.384  1.1523 -1.2975  3.8608
  161SAPE     N18001   5.081   1.389   6.242  0.2576 -0.0867 -0.2424
  161SAPE   HN118002   5.161   1.455   6.228  0.6856 -0.7953 -1.3051
  161SAPE   HN218003   5.119   1.293   6.252 -1.4946 -0.6909  1.2483
  161SAPE   HN318004   5.010   1.394   6.166  0.3570  0.3031 -0.3136
  161SAPE   C1218005   5.034   1.419   6.382 -1.1024  0.5768  0.0121
  161SAPE  H12A18006   5.091   1.354   6.453 -1.1608  0.8539  0.3155
  161SAPE  H12B18007   4.925   1.405   6.395 -0.8594 -1.5464  0.1333
  161SAPE   C1118008   5.071   1.560   6.426  0.2383 -0.8455 -0.6540
  161SAPE  H11A18009   5.036   1.574   6.531 -0.5068  0.8940 -1.0950
  161SAPE  H11B18010   5.009   1.629   6.365  0.5345 -1.6255 -1.8590
  161SAPE     P18011   5.271   1.725   6.422  0.4842  0.1300 -0.0978
  161SAPE   O1318012   5.419   1.717   6.457  0.6705 -0.0745 -0.1171
  161SAPE   O1418013   5.232   1.796   6.296 -0.0472 -0.0485  0.6555
  161SAPE   O1218014   5.213   1.578   6.415  0.0115  0.2411 -0.0800
  161SAPE   O1118015   5.198   1.781   6.550 -0.0702  0.3526 -0.3372
  161SAPE    C118016   5.213   1.736   6.689 -0.5609 -0.0145 -0.5006
  161SAPE    HA18017   5.118   1.744   6.747 -0.5320 -1.3542 -0.2331
  161SAPE    HB18018   5.235   1.627   6.693 -1.8309 -0.2651  1.7209
  161SAPE    C218019   5.318   1.800   6.784 -0.3123  0.7163 -0.2708
  161SAPE    HS18020   5.418   1.769   6.746 -0.3410  1.6003 -1.1064
  161SAPE   O2118021   5.300   1.762   6.916  0.2316  0.1368 -0.0382
  161SAPE   C2118022   5.306   1.637   6.959 -0.0547  0.0706 -0.0686
  161SAPE   O2218023   5.357   1.540   6.907 -0.2550 -0.1405  0.3892
  161SAPE   C2218024   5.247   1.629   7.100  0.4517 -0.8397  0.4335
  161SAPE   H2R18025   5.231   1.727   7.149 -1.2798 -1.2044  0.6822
  161SAPE   H2S18026   5.145   1.586   7.088  0.0818 -0.1484  1.0149
  161SAPE    C318027   5.309   1.950   6.763 -0.4521 -0.1414 -0.1448
  161SAPE    HX18028   5.349   1.965   6.660 -1.1681 -0.8320 -0.5369
  161SAPE    HY18029   5.382   2.003   6.827  0.1464  1.7455 -2.2672
  161SAPE   O3118030   5.172   2.001   6.768 -0.1169  0.7220 -0.9953
  161SAPE   C3118031   5.145   2.021   6.896 -0.0197 -0.3946 -0.5612
  161SAPE   O3218032   5.229   2.029   6.987  0.4897 -0.3555  0.8617
  161SAPE   C3218033   5.005   2.039   6.904  0.5977  0.1538  0.4954
  161SAPE   H2X18034   4.958   1.938   6.903  1.1505 -0.1054 -0.5746
  161SAPE   H2Y18035   4.963   2.095   6.817 -1.2621 -1.2913  0.3853
  161SAPE   C2318036   5.327   1.544   7.204 -0.3630 -0.4254 -0.7804
  161SAPE   H3R18037   5.398   1.616   7.251 -0.7514  0.6728 -1.8281
  161SAPE   H3S18038   5.386   1.459   7.163 -1.0021 -1.0562 -0.4176
  161SAPE   C2418039   5.236   1.496   7.313  0.0519 -0.3230 -0.3040
  161SAPE   H4R18040   5.191   1.402   7.274 -1.6606  1.3683 -2.6942
  161SAPE   H4S18041   5.150   1.566   7.320  0.5863  0.3014  0.1378
  161SAPE   C2518042   5.300   1.466   7.444  0.7125  0.1887 -0.1882
  161SAPE   H5R18043   5.405   1.495   7.457  1.3653 -2.5186  1.1177
  161SAPE   C2618044   5.233   1.445   7.559 -0.1205 -0.7094  0.0110
  161SAPE   H6R18045   5.297   1.427   7.647  1.1866  1.2333 -0.4742
  161SAPE   C2718046   5.084   1.436   7.579  0.4355 -0.3929 -0.1167
  161SAPE   H7R18047   5.026   1.467   7.489  0.7066  1.6020  0.3474
  161SAPE   H7S18048   5.050   1.517   7.646  0.9279  0.1799 -0.5528
  161SAPE   C2818049   5.067   1.295   7.620 -0.0955 -0.4051  0.5347
  161SAPE   H8R18050   5.085   1.215   7.546 -0.5787  0.0079 -0.0449
  161SAPE   C2918051   5.053   1.251   7.748  0.1626 -0.0289 -0.2478
  161SAPE   H9R18052   5.039   1.143   7.762  2.4573 -0.3743 -0.2453
  161SAPE  C21018053   5.051   1.339   7.876 -0.6591 -0.7253  0.4887
  161SAPE  H10R18054   4.981   1.292   7.949 -1.0623 -0.6381  0.1646
  161SAPE  H10S18055   4.983   1.426   7.862  0.2178 -0.0359  0.4650
  161SAPE  C21118056   5.182   1.375   7.945  0.4987 -0.2330 -0.2732
  161SAPE  H11R18057   5.275   1.382   7.887  0.7235 -1.0841 -0.0249
  161SAPE  C21218058   5.196   1.418   8.074  0.6384  0.0274  1.0183
  161SAPE  H12R18059   5.294   1.449   8.113  0.4645 -0.1697  1.6080
  161SAPE  C21318060   5.069   1.425   8.165 -0.2776  0.3516 -0.0114
  161SAPE  H13R18061   4.977   1.386   8.116 -1.1227  1.3881  0.7118
  161SAPE  H13S18062   5.030   1.528   8.177 -2.8763 -0.5918  0.3444
  161SAPE  C21418063   5.096   1.362   8.304 -0.3591  0.0910  0.1179
  161SAPE  H14R18064   5.067   1.256   8.306  1.6824 -0.5023  1.7911
  161SAPE  C21518065   5.155   1.414   8.411  0.5584 -0.7015 -0.8987
  161SAPE  H15R18066   5.183   1.360   8.503  0.3721  0.6585 -0.0190
  161SAPE  C21618067   5.206   1.558   8.418  0.2131  0.7387 -0.7738
  161SAPE  H16R18068   5.138   1.617   8.483  0.4040  1.0833 -0.8842
  161SAPE  H16S18069   5.205   1.605   8.317  1.4576 -0.8863 -1.5827
  161SAPE  C21718070   5.349   1.560   8.473 -0.2857 -0.3421 -1.3717
  161SAPE  H17R18071   5.386   1.662   8.449 -0.6717 -0.3719 -2.1290
  161SAPE  H17S18072   5.423   1.491   8.427  0.8293  0.3565 -0.6638
  161SAPE  C21818073   5.358   1.550   8.626 -0.6586 -0.0339 -0.5489
  161SAPE  H18R18074   5.324   1.450   8.660 -1.4125  0.4838  0.2758
  161SAPE  H18S18075   5.286   1.623   8.670 -3.0200 -2.1524 -0.6744
  161SAPE  C21918076   5.501   1.560   8.676 -0.7979 -0.2541  0.3400
  161SAPE  H19R18077   5.502   1.553   8.787  1.3441  1.1581  0.4812
  161SAPE  H19S18078   5.546   1.657   8.644 -0.9667 -0.6605 -1.2386
  161SAPE  C22018079   5.608   1.456   8.620  0.5855  0.1278 -0.5775
  161SAPE  H20R18080   5.673   1.434   8.708 -1.0111  2.5872  1.3425
  161SAPE  H20S18081   5.662   1.494   8.531  0.8137  1.7556  0.2103
  161SAPE  H20T18082   5.557   1.364   8.585  0.4836  0.6197 -1.7527
  161SAPE   C3318083   4.963   2.117   7.026 -0.1731  0.2578 -0.1435
  161SAPE   H3X18084   5.013   2.082   7.119 -3.3016  0.8146  1.9052
  161SAPE   H3Y18085   4.862   2.080   7.053  1.1335 -2.4888  1.4511
  161SAPE   C3418086   4.975   2.267   7.019 -0.2363  0.1049 -0.2707
  161SAPE   H4X18087   4.953   2.301   6.915  2.4002 -0.8504 -1.2255
  161SAPE   H4Y18088   5.076   2.309   7.038  0.2147 -0.6471 -0.9294
  161SAPE   C3518089   4.875   2.346   7.110 -0.1119 -0.4014 -0.7752
  161SAPE   H5X18090   4.771   2.324   7.078 -0.4442  0.4878 -0.3423
  161SAPE   H5Y18091   4.895   2.454   7.096 -1.2352 -0.0205  0.3899
  161SAPE   C3618092   4.905   2.309   7.254  0.5372  0.3288  0.2766
  161SAPE   H6X18093   5.015   2.315   7.271  1.0625  2.3175 -2.9905
  161SAPE   H6Y18094   4.867   2.206   7.269 -2.0294  1.2239  0.4624
  161SAPE   C3718095   4.822   2.388   7.348  0.2552 -0.1420  0.6462
  161SAPE   H7X18096   4.713   2.381   7.324  0.9210 -2.9041 -2.3641
  161SAPE   H7Y18097   4.849   2.495   7.346 -1.1301  0.3124  2.9750
  161SAPE   C3818098   4.842   2.345   7.496 -0.5161 -0.2069 -0.3559
  161SAPE   H8X18099   4.950   2.329   7.517 -0.9816 -2.7403  0.3770
  161SAPE   H8Y18100   4.787   2.249   7.504 -2.2438  0.8762  1.8476
  161SAPE   C3918101   4.772   2.445   7.588  0.0143 -0.0913 -0.1349
  161SAPE   H9X18102   4.663   2.447   7.563 -0.2599  1.3924  0.9730
  161SAPE   H9Y18103   4.817   2.545   7.571 -0.0437 -0.0367  0.0268
  161SAPE  C31018104   4.792   2.407   7.737 -0.2272 -0.3508  0.4068
  161SAPE  H10X18105   4.899   2.414   7.765 -0.2232 -0.0224  0.3093
  161SAPE  H10Y18106   4.771   2.298   7.751  2.5058 -0.9239  0.5330
  161SAPE  C31118107   4.720   2.497   7.837  0.3025  0.4411 -0.2397
  161SAPE  H11X18108   4.616   2.492   7.799  0.0465  0.4824  0.4372
  161SAPE  H11Y18109   4.750   2.603   7.832 -0.7745  0.7947  0.4380
  161SAPE  C31218110   4.727   2.446   7.984 -0.2795  0.4488  0.2241
  161SAPE  H12X18111   4.829   2.421   8.019  0.0234 -0.0590 -0.9925
  161SAPE  H12Y18112   4.670   2.350   7.985  0.6038 -0.1090 -0.9667
  161SAPE  C31318113   4.659   2.547   8.078 -0.4683  0.3669  0.1616
  161SAPE  H13X18114   4.549   2.542   8.063 -0.1945 -1.6590 -1.5971
  161SAPE  H13Y18115   4.681   2.654   8.055  2.8374 -0.7046 -2.4205
  161SAPE  C31418116   4.710   2.516   8.222  0.0779  0.0768 -0.2638
  161SAPE  H14X18117   4.812   2.557   8.206 -0.7476  2.4690  0.2006
  161SAPE  H14Y18118   4.721   2.406   8.236  0.7487  0.3082  1.2048
  161SAPE  C31518119   4.651   2.599   8.331 -0.8372 -0.1152 -0.9535
  161SAPE  H15X18120   4.543   2.574   8.330 -1.4178  1.2304  3.3921
  161SAPE  H15Y18121   4.669   2.707   8.315  1.5068 -0.4097 -0.6962
  161SAPE  C31618122   4.719   2.560   8.462 -0.4028 -0.7383  0.1043
  161SAPE  H16X18123   4.819   2.521   8.437 -0.1993 -0.6147  0.7185
  161SAPE  H16Y18124   4.673   2.467   8.503  0.2647 -0.9917  0.2749
  161SAPE  C31718125   4.719   2.675   8.571  0.3828  0.1667  0.4053
  161SAPE  H17X18126   4.727   2.780   8.534 -0.7483  0.0795 -0.1090
  161SAPE  H17Y18127   4.796   2.651   8.648  1.7087  1.2556 -0.5082
  161SAPE  C31818128   4.584   2.681   8.643  0.1164 -0.4093  0.0038
  161SAPE  H18X18129   4.536   2.582   8.624 -0.0050 -0.4151  0.3438
  161SAPE  H18Y18130   4.525   2.768   8.608  0.3921 -0.8015 -1.5170
  161SAPE  H18Z18131   4.594   2.696   8.753  0.5305  1.2558 -0.2353
  162SAPE     N18132   2.866   5.019   6.050  0.3684 -0.4284  0.4373
  162SAPE   HN118133   2.874   5.031   5.947  0.6591 -1.1117  0.3768
  162SAPE   HN218134   2.828   5.111   6.079  0.2661 -0.5682  0.7458
  162SAPE   HN318135   2.966   5.022   6.075  0.8505 -0.3611 -1.3570
  162SAPE   C1218136   2.801   4.897   6.111  0.8152 -0.7212 -0.0522
  162SAPE  H12A18137   2.799   4.909   6.222 -1.4136 -0.6753 -0.0641
  162SAPE  H12B18138   2.870   4.815   6.080 -0.3180 -1.5987 -0.2896
  162SAPE   C1118139   2.654   4.870   6.068  0.1787  0.6683  0.3996
  162SAPE  H11A18140   2.646   4.856   5.958  1.8155 -2.4436  0.5693
  162SAPE  H11B18141   2.586   4.958   6.076  0.6884  1.1420 -0.3438
  162SAPE     P18142   2.503   4.779   6.253 -0.0519  0.3580 -0.1640
  162SAPE   O1318143   2.397   4.872   6.216  0.0413 -0.4009 -0.1971
  162SAPE   O1418144   2.460   4.659   6.325  0.3333 -0.6367 -0.8710
  162SAPE   O1218145   2.607   4.750   6.130  0.6834 -0.5317  0.0250
  162SAPE   O1118146   2.607   4.853   6.340  0.4351 -1.2129 -0.0426
  162SAPE    C118147   2.700   4.772   6.419 -0.0578 -0.4860  0.7027
  162SAPE    HA18148   2.739   4.682   6.367 -0.6140 -1.4884  1.9686
  162SAPE    HB18149   2.790   4.837   6.424 -0.7617  1.1627 -3.5503
  162SAPE    C218150   2.646   4.733   6.561  0.0262 -0.1098  0.1564
  162SAPE    HS18151   2.571   4.653   6.543 -0.4393  0.3934 -0.1702
  162SAPE   O2118152   2.594   4.848   6.635  0.4422 -0.3817  0.2718
  162SAPE   C2118153   2.504   4.820   6.722  0.0882 -0.1849  0.0804
  162SAPE   O2218154   2.457   4.709   6.745  0.2353 -0.3101 -0.0762
  162SAPE   C2218155   2.476   4.935   6.821 -1.3407  0.5687  0.5440
  162SAPE   H2R18156   2.567   4.951   6.883 -1.7977  1.4583  1.0009
  162SAPE   H2S18157   2.470   5.028   6.760  2.1229  0.9874  0.6249
  162SAPE    C318158   2.761   4.660   6.633 -0.5506  0.4359 -0.3726
  162SAPE    HX18159   2.813   4.604   6.552  1.1786 -2.0798  2.2564
  162SAPE    HY18160   2.725   4.596   6.717  2.3539 -2.9752 -1.4644
  162SAPE   O3118161   2.857   4.752   6.682 -0.3425  0.3733 -0.5331
  162SAPE   C3118162   2.985   4.709   6.709 -0.4815 -0.2763 -0.7921
  162SAPE   O3218163   3.025   4.598   6.695  0.0211  0.3243 -0.5016
  162SAPE   C3218164   3.070   4.831   6.748 -0.3799  0.1492  0.1921
  162SAPE   H2X18165   3.072   4.900   6.661 -1.4355  0.1757  0.1815
  162SAPE   H2Y18166   3.175   4.800   6.765 -0.6136 -0.2954  0.8568
  162SAPE   C2318167   2.352   4.927   6.911  0.3320  0.6336  0.3963
  162SAPE   H3R18168   2.352   4.829   6.963 -0.9057  1.6260  2.4012
  162SAPE   H3S18169   2.262   4.929   6.845 -0.1811  1.6605  1.1074
  162SAPE   C2418170   2.351   5.037   7.011 -0.4042 -0.3881 -0.7948
  162SAPE   H4R18171   2.339   5.131   6.954  0.2476 -0.1359 -0.5296
  162SAPE   H4S18172   2.445   5.033   7.070  0.7660 -0.7443 -2.6312
  162SAPE   C2518173   2.230   5.032   7.102  0.1692 -0.5118  0.2640
  162SAPE   H5R18174   2.130   5.032   7.055 -0.6334  1.8144  1.7694
  162SAPE   C2618175   2.238   5.032   7.236  0.0781  0.6609 -0.1136
  162SAPE   H6R18176   2.144   5.040   7.293  1.0994  0.2155  1.6867
  162SAPE   C2718177   2.354   5.038   7.328 -0.4720  0.0286  0.2268
  162SAPE   H7R18178   2.358   5.139   7.376 -1.3514  0.3428 -0.3383
  162SAPE   H7S18179   2.456   5.035   7.285 -0.7843 -0.4421 -0.4934
  162SAPE   C2818180   2.354   4.928   7.437 -0.4401 -0.1834 -0.1385
  162SAPE   H8R18181   2.419   4.842   7.417  1.6422  1.2597  0.0740
  162SAPE   C2918182   2.279   4.931   7.549 -0.7608  0.6244 -0.5055
  162SAPE   H9R18183   2.296   4.842   7.611  0.5785  1.0866 -0.1676
  162SAPE  C21018184   2.177   5.033   7.589  0.3189  0.1065 -0.2371
  162SAPE  H10R18185   2.107   4.985   7.661  2.4193 -2.0539  0.4868
  162SAPE  H10S18186   2.105   5.048   7.506 -0.3603  2.3310  0.6912
  162SAPE  C21118187   2.217   5.166   7.644 -0.1776 -0.4721 -0.0478
  162SAPE  H11R18188   2.220   5.247   7.570  0.7075 -1.3406 -0.9847
  162SAPE  C21218189   2.259   5.201   7.765  0.1337 -0.1506  0.2700
  162SAPE  H12R18190   2.274   5.307   7.789  1.6781 -0.0823 -0.7678
  162SAPE  C21318191   2.262   5.119   7.887  0.3709 -0.1303  0.1339
  162SAPE  H13R18192   2.201   5.027   7.877 -1.2519  0.6855  1.8946
  162SAPE  H13S18193   2.224   5.182   7.971 -0.3994  0.7167 -0.8256
  162SAPE  C21418194   2.406   5.079   7.921 -0.2329  0.6049 -0.2365
  162SAPE  H14R18195   2.469   5.046   7.837  0.7353 -1.5722  1.2325
  162SAPE  C21518196   2.453   5.062   8.044 -0.5196 -0.4057 -0.1760
  162SAPE  H15R18197   2.554   5.018   8.044  0.4829  1.7512 -0.5536
  162SAPE  C21618198   2.388   5.076   8.179  0.0537 -0.2666  0.1509
  162SAPE  H16R18199   2.301   5.143   8.160  1.3023  1.1385 -0.8598
  162SAPE  H16S18200   2.450   5.144   8.242  0.9494 -0.5441 -0.4176
  162SAPE  C21718201   2.342   4.960   8.254  0.0432  0.0726  0.2571
  162SAPE  H17R18202   2.278   4.903   8.183 -1.7553  3.2924 -0.8930
  162SAPE  H17S18203   2.272   4.979   8.338 -1.8079 -0.2027 -1.1473
  162SAPE  C21818204   2.459   4.874   8.305 -0.1026 -0.0618  0.7751
  162SAPE  H18R18205   2.506   4.819   8.221 -1.8934 -0.1205 -0.2340
  162SAPE  H18S18206   2.428   4.790   8.370 -0.8856 -0.5217 -0.1672
  162SAPE  C21918207   2.572   4.959   8.377 -0.6467  1.3030 -0.7559
  162SAPE  H19R18208   2.524   5.007   8.465 -0.2071 -0.5063  0.5181
  162SAPE  H19S18209   2.614   5.037   8.309 -2.9294  2.0215 -1.4327
  162SAPE  C22018210   2.684   4.871   8.439  1.0258 -0.6885 -0.2526
  162SAPE  H20R18211   2.728   4.801   8.365  2.5715  0.2666 -0.2673
  162SAPE  H20S18212   2.634   4.811   8.518 -0.4546  2.3911  1.3179
  162SAPE  H20T18213   2.774   4.924   8.477  0.4515 -0.2408  0.5092
  162SAPE   C3318214   3.006   4.914   6.862  0.2322 -0.4955  0.1250
  162SAPE   H3X18215   2.983   4.841   6.941  1.2277 -0.6899  0.2492
  162SAPE   H3Y18216   2.916   4.970   6.828  1.3849  0.1856 -2.0563
  162SAPE   C3418217   3.106   5.012   6.924  0.5724 -0.1973  0.1106
  162SAPE   H4X18218   3.047   5.103   6.948 -0.2513 -1.0872  1.6623
  162SAPE   H4Y18219   3.191   5.036   6.857 -0.3675 -1.3327 -1.5585
  162SAPE   C3518220   3.166   4.964   7.050  0.3072  0.7917 -0.4397
  162SAPE   H5X18221   3.239   4.883   7.028  0.5247  0.5683  1.0651
  162SAPE   H5Y18222   3.090   4.926   7.121 -0.7744  1.1309 -1.3709
  162SAPE   C3618223   3.237   5.072   7.135 -0.3654  0.6638  0.4095
  162SAPE   H6X18224   3.174   5.161   7.157 -1.4975 -0.7673  3.5097
  162SAPE   H6Y18225   3.325   5.102   7.074 -1.5777 -2.0885 -3.0517
  162SAPE   C3718226   3.289   5.020   7.270 -0.3580 -0.1929 -0.1635
  162SAPE   H7X18227   3.375   5.081   7.303 -0.9505  0.8732 -0.5300
  162SAPE   H7Y18228   3.334   4.919   7.258  0.8740  0.4350 -1.0748
  162SAPE   C3818229   3.189   5.027   7.388 -0.3069  0.0329  0.9633
  162SAPE   H8X18230   3.097   4.967   7.369 -1.0188 -0.0540  4.0851
  162SAPE   H8Y18231   3.151   5.130   7.404  1.6935  0.8759  0.6340
  162SAPE   C3918232   3.252   4.986   7.517 -0.5396  0.4376  0.9690
  162SAPE   H9X18233   3.344   5.048   7.530  0.2628 -0.7029  0.8979
  162SAPE   H9Y18234   3.292   4.883   7.525  0.2038  0.5987 -0.4481
  162SAPE  C31018235   3.157   4.993   7.633  0.3985 -0.0670  0.5842
  162SAPE  H10X18236   3.078   4.914   7.633 -1.1521  1.3989 -1.0527
  162SAPE  H10Y18237   3.103   5.090   7.626  0.9007  0.0948 -1.3870
  162SAPE  C31118238   3.229   4.995   7.770  0.2014  0.6984 -0.3034
  162SAPE  H11X18239   3.317   5.063   7.761  0.8978 -0.2547 -0.8446
  162SAPE  H11Y18240   3.269   4.893   7.788 -2.5199 -0.4781 -0.5373
  162SAPE  C31218241   3.143   5.020   7.894 -0.2591 -0.0278 -0.3603
  162SAPE  H12X18242   3.056   4.950   7.896 -0.5383  0.3299  0.2802
  162SAPE  H12Y18243   3.101   5.122   7.884  0.3386  0.0918 -1.8915
  162SAPE  C31318244   3.218   5.000   8.026  0.5845  0.1574 -0.1151
  162SAPE  H13X18245   3.308   5.065   8.027  2.1386 -1.7432 -2.8957
  162SAPE  H13Y18246   3.259   4.897   8.032  0.8196  0.2257 -0.5196
  162SAPE  C31418247   3.125   5.020   8.149 -0.2154  0.0255  0.1304
  162SAPE  H14X18248   3.032   4.963   8.131 -2.1462  3.7179 -3.3084
  162SAPE  H14Y18249   3.083   5.123   8.140  1.3867  0.6211 -1.1222
  162SAPE  C31518250   3.207   4.993   8.274  0.4411  0.2409 -0.4980
  162SAPE  H15X18251   3.304   5.047   8.281 -0.0238  1.0990 -0.5180
  162SAPE  H15Y18252   3.227   4.884   8.283 -1.1695  0.0917  3.0549
  162SAPE  C31618253   3.129   5.014   8.402  0.1963  1.6686  0.3122
  162SAPE  H16X18254   3.033   4.958   8.393  1.7990 -1.3815  0.6958
  162SAPE  H16Y18255   3.101   5.120   8.422 -1.5286  1.0207  1.6530
  162SAPE  C31718256   3.194   4.967   8.530  0.2038 -0.2543 -0.5798
  162SAPE  H17X18257   3.209   4.857   8.524 -0.1347 -0.2708 -1.1581
  162SAPE  H17Y18258   3.119   5.002   8.604  0.7440  2.3881 -1.1771
  162SAPE  C31818259   3.322   5.050   8.560 -0.0924  0.2686 -0.1727
  162SAPE  H18X18260   3.396   5.016   8.484  1.7420 -1.7790  2.3606
  162SAPE  H18Y18261   3.363   5.015   8.657 -2.8102 -1.0706  0.5621
  162SAPE  H18Z18262   3.298   5.159   8.556 -0.6898  0.1215 -0.7629
  163SAPE     N18263   2.846   2.428   6.522  0.4458  0.2535 -0.2468
  163SAPE   HN118264   2.752   2.403   6.485 -0.0754  1.8783 -0.1101
  163SAPE   HN218265   2.914   2.361   6.480 -0.1342  0.0563 -0.8765
  163SAPE   HN318266   2.850   2.418   6.626 -0.7154 -0.0834 -0.2278
  163SAPE   C1218267   2.878   2.564   6.478 -0.8353 -0.4938  0.5206
  163SAPE  H12A18268   2.875   2.566   6.367 -0.7378 -0.1799  0.5235
  163SAPE  H12B18269   2.982   2.594   6.502 -0.4551 -0.1960 -1.3764
  163SAPE   C1118270   2.771   2.653   6.552 -0.4922  0.2824  0.3520
  163SAPE  H11A18271   2.779   2.759   6.520 -1.7301 -0.5822 -3.3212
  163SAPE  H11B18272   2.795   2.645   6.660 -2.6741 -1.7323  0.7791
  163SAPE     P18273   2.525   2.658   6.629 -0.1621 -0.1346  0.0148
  163SAPE   O1318274   2.503   2.795   6.591 -0.2757 -0.0317  0.0729
  163SAPE   O1418275   2.419   2.562   6.625 -0.0324 -0.0427  0.4086
  163SAPE   O1218276   2.638   2.607   6.533 -0.3859  0.5391 -1.0934
  163SAPE   O1118277   2.581   2.664   6.772 -0.0496 -0.6752  0.2020
  163SAPE    C118278   2.517   2.724   6.884  0.4217  1.5036 -0.7832
  163SAPE    HA18279   2.408   2.733   6.864 -0.1904  0.7119  1.7966
  163SAPE    HB18280   2.521   2.657   6.973 -0.8739  2.9809  0.4649
  163SAPE    C218281   2.585   2.854   6.935 -0.2548  0.2146  0.3816
  163SAPE    HS18282   2.577   2.920   6.846 -1.1878 -0.5191 -0.0945
  163SAPE   O2118283   2.720   2.821   6.976 -0.2129  0.6649  0.7045
  163SAPE   C2118284   2.788   2.879   7.064 -0.3738 -0.2450 -0.7285
  163SAPE   O2218285   2.771   2.996   7.101 -0.0587  0.4070  0.3242
  163SAPE   C2218286   2.903   2.790   7.102 -0.8043 -0.4219 -0.9052
  163SAPE   H2R18287   2.859   2.695   7.140  1.6219 -0.9933  0.7041
  163SAPE   H2S18288   2.960   2.762   7.011  0.3149 -0.1626 -0.2984
  163SAPE    C318289   2.499   2.918   7.052 -0.8349 -0.2897  0.6480
  163SAPE    HX18290   2.397   2.927   7.008  0.0918 -0.2047 -1.6333
  163SAPE    HY18291   2.534   3.019   7.082  1.0033 -1.7036  3.7108
  163SAPE   O3118292   2.497   2.847   7.173  0.0942  0.5409  0.3571
  163SAPE   C3118293   2.379   2.785   7.205  0.3237  0.0024  0.7036
  163SAPE   O3218294   2.273   2.802   7.149  0.1902 -0.4091  0.3037
  163SAPE   C3218295   2.412   2.683   7.306  0.7526  0.3403  0.8065
  163SAPE   H2X18296   2.495   2.719   7.371  0.3451  0.6820  1.1427
  163SAPE   H2Y18297   2.439   2.591   7.249  0.1449  0.3636  0.4727
  163SAPE   C2318298   3.007   2.856   7.194 -0.2275 -0.0849  0.1165
  163SAPE   H3R18299   3.031   2.960   7.161 -2.7715  0.9715  1.2809
  163SAPE   H3S18300   3.104   2.803   7.180  0.5879  1.5856 -0.8727
  163SAPE   C2418301   2.975   2.856   7.342 -0.0091  0.3149  0.0600
  163SAPE   H4R18302   2.866   2.878   7.342  0.3518  2.4452 -1.9108
  163SAPE   H4S18303   3.015   2.941   7.401 -2.7022  1.2471  0.6582
  163SAPE   C2518304   3.006   2.720   7.407  0.3044  0.2059  0.3311
  163SAPE   H5R18305   3.085   2.663   7.355 -0.5510 -1.1909  0.4998
  163SAPE   C2618306   2.926   2.656   7.501 -0.4559  0.7351 -0.6871
  163SAPE   H6R18307   2.961   2.561   7.545  2.9768  0.9239 -2.5972
  163SAPE   C2718308   2.797   2.707   7.564 -0.0156 -0.3552 -0.2531
  163SAPE   H7R18309   2.786   2.640   7.652 -1.9396 -0.6452 -0.6656
  163SAPE   H7S18310   2.714   2.669   7.500 -0.0581 -2.8712  1.1386
  163SAPE   C2818311   2.777   2.848   7.610 -0.2124  0.2733  0.6355
  163SAPE   H8R18312   2.717   2.912   7.544  1.5708  0.8932 -0.4482
  163SAPE   C2918313   2.837   2.915   7.707  0.0807  0.5473  0.4471
  163SAPE   H9R18314   2.809   3.017   7.735  1.1239  0.2824  2.6704
  163SAPE  C21018315   2.929   2.854   7.811  0.7123  0.1118 -0.3661
  163SAPE  H10R18316   2.923   2.743   7.822  0.1481  0.2341  0.7341
  163SAPE  H10S18317   2.906   2.889   7.914  1.0757 -0.3680 -0.1134
  163SAPE  C21118318   3.066   2.885   7.773  0.3652  0.6847  0.7694
  163SAPE  H11R18319   3.095   2.880   7.667 -1.0077  2.0110  0.2920
  163SAPE  C21218320   3.161   2.921   7.856 -0.3103 -0.0038 -0.0665
  163SAPE  H12R18321   3.258   2.954   7.815 -0.9428 -0.1038 -1.7385
  163SAPE  C21318322   3.160   2.920   8.006  0.3868  0.7317 -0.1238
  163SAPE  H13R18323   3.177   2.815   8.038  0.4855  0.8881  0.3326
  163SAPE  H13S18324   3.060   2.946   8.048  0.7165 -0.3860  1.4442
  163SAPE  C21418325   3.257   3.015   8.072 -0.2672  0.9802 -0.1308
  163SAPE  H14R18326   3.361   3.011   8.035  0.1079 -0.0653  0.9580
  163SAPE  C21518327   3.232   3.087   8.183  0.1575  0.8183  0.0297
  163SAPE  H15R18328   3.318   3.136   8.232  0.1288  0.4833  0.4257
  163SAPE  C21618329   3.107   3.090   8.262  0.1956  0.4047  0.8933
  163SAPE  H16R18330   3.021   3.081   8.193  1.6867  0.0477 -1.0203
  163SAPE  H16S18331   3.106   3.177   8.331  1.8028 -0.5750  2.2481
  163SAPE  C21718332   3.099   2.966   8.361 -0.3716 -0.6998  0.2231
  163SAPE  H17R18333   3.180   2.961   8.437  1.8670 -0.1216 -1.9801
  163SAPE  H17S18334   3.097   2.876   8.296  1.6680 -1.1181  0.6580
  163SAPE  C21818335   2.960   2.961   8.441 -0.3956  0.0805 -0.0659
  163SAPE  H18R18336   2.939   3.054   8.497 -1.2480 -0.4300  0.4890
  163SAPE  H18S18337   2.966   2.873   8.509 -0.3579 -0.6991 -1.0575
  163SAPE  C21918338   2.842   2.931   8.350 -0.2013  0.1116  0.3083
  163SAPE  H19R18339   2.868   2.876   8.257 -1.1840  0.8039 -0.4019
  163SAPE  H19S18340   2.788   3.025   8.323  2.2265  1.9345  1.4310
  163SAPE  C22018341   2.729   2.849   8.423 -0.3410  0.1574 -0.6939
  163SAPE  H20R18342   2.768   2.756   8.467 -0.2704  0.2830 -0.4905
  163SAPE  H20S18343   2.642   2.830   8.356 -0.1051 -2.5428 -0.3212
  163SAPE  H20T18344   2.699   2.914   8.508  1.2642 -1.8091  1.4697
  163SAPE   C3318345   2.286   2.648   7.387 -0.0895 -0.1399 -0.8711
  163SAPE   H3X18346   2.211   2.609   7.315  0.9095 -2.6889 -0.6669
  163SAPE   H3Y18347   2.251   2.741   7.436 -1.1965 -0.0807 -1.7470
  163SAPE   C3418348   2.320   2.555   7.501 -0.2727  0.8373  0.2856
  163SAPE   H4X18349   2.380   2.465   7.473 -1.6871 -0.2373  0.5680
  163SAPE   H4Y18350   2.224   2.509   7.535 -0.5082  1.7465  0.8814
  163SAPE   C3518351   2.386   2.631   7.614  0.8963  0.1196 -1.0329
  163SAPE   H5X18352   2.342   2.732   7.633  3.4458  1.5649 -2.2709
  163SAPE   H5Y18353   2.492   2.647   7.586  1.3716  0.0241  0.6139
  163SAPE   C3618354   2.378   2.547   7.744  0.2202  0.0418  0.3457
  163SAPE   H6X18355   2.409   2.445   7.712  0.7492  0.5478 -0.8360
  163SAPE   H6Y18356   2.274   2.554   7.781 -0.2177  1.6092 -1.0538
  163SAPE   C3718357   2.477   2.587   7.849 -0.1342 -0.6979 -0.4961
  163SAPE   H7X18358   2.451   2.694   7.861 -0.8607 -0.9335  0.1067
  163SAPE   H7Y18359   2.572   2.591   7.792  1.5755  2.8938  2.2147
  163SAPE   C3818360   2.495   2.501   7.978  0.5279  0.6872  0.4099
  163SAPE   H8X18361   2.536   2.401   7.953 -1.0543  0.0752  0.1655
  163SAPE   H8Y18362   2.397   2.484   8.026 -0.0236 -0.7069 -1.1087
  163SAPE   C3918363   2.598   2.552   8.074 -1.0486 -0.3043  0.1141
  163SAPE   H9X18364   2.584   2.504   8.173 -0.7526  1.1894  0.9110
  163SAPE   H9Y18365   2.590   2.663   8.087  0.0824  0.3143 -3.4585
  163SAPE  C31018366   2.750   2.528   8.042 -0.3918 -0.5179  0.8807
  163SAPE  H10X18367   2.763   2.566   7.938 -0.2964 -0.9334  0.7376
  163SAPE  H10Y18368   2.760   2.417   8.035 -0.2171 -0.5040  0.9087
  163SAPE  C31118369   2.855   2.576   8.141  0.6832 -0.8242  0.1943
  163SAPE  H11X18370   2.801   2.574   8.238 -0.7649  1.6741 -0.4813
  163SAPE  H11Y18371   2.880   2.683   8.124 -0.5121 -0.4804  0.4799
  163SAPE  C31218372   2.984   2.486   8.141 -0.2571 -0.6971 -0.2318
  163SAPE  H12X18373   3.031   2.498   8.041 -0.1698 -1.1671 -0.2492
  163SAPE  H12Y18374   2.950   2.380   8.144 -0.6048 -0.5763  0.1689
  163SAPE  C31318375   3.098   2.532   8.239  0.2447 -0.3825 -0.4845
  163SAPE  H13X18376   3.154   2.618   8.197  0.3648  1.7490  3.5441
  163SAPE  H13Y18377   3.174   2.451   8.229 -0.0202 -0.6487 -0.3856
  163SAPE  C31418378   3.046   2.565   8.382 -1.2896 -0.2345  0.7989
  163SAPE  H14X18379   2.976   2.487   8.417 -3.3247  2.1251  2.3337
  163SAPE  H14Y18380   3.001   2.666   8.371  1.4025  0.9180 -0.5581
  163SAPE  C31518381   3.163   2.582   8.483  0.9494 -0.4631  0.2595
  163SAPE  H15X18382   3.113   2.578   8.582  3.0375  0.7784  1.4610
  163SAPE  H15Y18383   3.203   2.684   8.465  0.9207 -0.7294 -1.4787
  163SAPE  C31618384   3.264   2.475   8.489  0.1288  0.1204 -0.2456
  163SAPE  H16X18385   3.345   2.503   8.558 -0.4284  0.8218  0.1399
  163SAPE  H16Y18386   3.316   2.464   8.391  1.4277  1.4494  0.2709
  163SAPE  C31718387   3.193   2.344   8.527 -0.3871  0.5334 -0.3303
  163SAPE  H17X18388   3.110   2.327   8.455  0.0955  2.2933 -1.3496
  163SAPE  H17Y18389   3.147   2.360   8.627  0.1299 -0.2076  0.0338
  163SAPE  C31818390   3.286   2.230   8.526 -0.5175 -0.0055 -0.2469
  163SAPE  H18X18391   3.324   2.217   8.423 -2.2498 -1.4290 -0.7597
  163SAPE  H18Y18392   3.236   2.132   8.544 -0.6932  0.4896  2.4717
  163SAPE  H18Z18393   3.372   2.237   8.596  0.1401 -4.0390 -0.3875
  164SAPE     N18394   6.539   0.335   6.005 -0.8442  0.3806 -0.4022
  164SAPE   HN118395   6.470   0.277   6.058 -1.6816  0.3609 -1.4880
  164SAPE   HN218396   6.579   0.286   5.922  1.2905  0.3288  0.5953
  164SAPE   HN318397   6.614   0.360   6.072 -2.5759  0.8803  1.4472
  164SAPE   C1218398   6.487   0.475   5.976  0.6044  0.2291 -0.2198
  164SAPE  H12A18399   6.560   0.528   5.910  0.2306 -0.8902 -1.5677
  164SAPE  H12B18400   6.483   0.526   6.075 -0.1178  0.4211 -0.3470
  164SAPE   C1118401   6.339   0.462   5.921  0.2111  0.7225 -0.4053
  164SAPE  H11A18402   6.350   0.386   5.841 -0.3904  0.3175 -0.1177
  164SAPE  H11B18403   6.306   0.557   5.874 -0.7439 -0.4374 -2.1539
  164SAPE     P18404   6.099   0.388   5.988  0.0381  0.0397  0.6404
  164SAPE   O1318405   6.017   0.506   5.958 -0.0790 -0.2472 -0.1665
  164SAPE   O1418406   6.105   0.274   5.890  1.0569  0.4771  0.1097
  164SAPE   O1218407   6.242   0.434   6.025  0.1021 -0.3862 -0.6212
  164SAPE   O1118408   6.055   0.330   6.132  0.5103  0.1884 -0.1315
  164SAPE    C118409   6.140   0.271   6.229  0.2399 -0.7386  0.2260
  164SAPE    HA18410   6.185   0.175   6.195 -0.1952  0.2546 -3.6923
  164SAPE    HB18411   6.225   0.343   6.242 -0.4326  0.1491 -0.1824
  164SAPE    C218412   6.077   0.251   6.372 -0.8037  0.1118 -0.6812
  164SAPE    HS18413   6.013   0.162   6.361  0.3283 -0.6612 -1.1615
  164SAPE   O2118414   5.999   0.372   6.411 -0.2623  0.2937  0.4187
  164SAPE   C2118415   5.889   0.348   6.478 -0.0635  0.7712  0.0782
  164SAPE   O2218416   5.838   0.242   6.500 -0.6411 -0.1588 -0.0392
  164SAPE   C2218417   5.826   0.480   6.525  0.0906 -0.0765 -0.3375
  164SAPE   H2R18418   5.894   0.540   6.589 -0.2316 -2.6932  2.7163
  164SAPE   H2S18419   5.804   0.535   6.431  1.0967 -0.0668 -0.5812
  164SAPE    C318420   6.198   0.224   6.473  0.1878 -1.2996 -0.3900
  164SAPE    HX18421   6.276   0.303   6.471 -2.6629  1.8280  1.6080
  164SAPE    HY18422   6.233   0.129   6.426  1.1719 -1.0992 -0.0994
  164SAPE   O3118423   6.156   0.206   6.613  0.3113  0.5101 -0.2351
  164SAPE   C3118424   6.247   0.137   6.680  0.1457  0.0945 -0.2540
  164SAPE   O3218425   6.347   0.092   6.631 -0.6903 -0.4335 -0.7908
  164SAPE   C3218426   6.192   0.111   6.823  0.0433 -0.4677  0.2501
  164SAPE   H2X18427   6.101   0.048   6.823  0.2360 -0.7797 -1.5202
  164SAPE   H2Y18428   6.166   0.207   6.871  1.3425  0.2668 -0.4505
  164SAPE   C2318429   5.695   0.448   6.600 -0.3330 -0.4551  0.0632
  164SAPE   H3R18430   5.632   0.380   6.539 -3.1921 -0.1635  2.4485
  164SAPE   H3S18431   5.640   0.544   6.595 -0.4647 -0.5220  0.2011
  164SAPE   C2418432   5.712   0.390   6.744  0.0147  0.1996 -0.4813
  164SAPE   H4R18433   5.771   0.459   6.809 -1.8346  0.8059  0.6428
  164SAPE   H4S18434   5.778   0.301   6.736  1.1982  1.1880 -2.6310
  164SAPE   C2518435   5.587   0.350   6.816  0.0024  0.1221  0.6096
  164SAPE   H5R18436   5.524   0.287   6.752 -2.1372  4.3085 -1.7586
  164SAPE   C2618437   5.548   0.389   6.941  0.4292  0.4738  0.0922
  164SAPE   H6R18438   5.456   0.345   6.982  1.0559 -0.8327  0.1607
  164SAPE   C2718439   5.624   0.474   7.041 -0.5057 -0.2152 -0.3971
  164SAPE   H7R18440   5.687   0.549   6.990 -1.3698  1.4794  0.9139
  164SAPE   H7S18441   5.682   0.408   7.110 -0.8233  2.0313  2.1866
  164SAPE   C2818442   5.514   0.543   7.116 -0.9470  0.6525 -0.1472
  164SAPE   H8R18443   5.483   0.633   7.060 -0.2478  1.3839  0.6087
  164SAPE   C2918444   5.449   0.519   7.238 -0.3473 -0.2082  0.0719
  164SAPE   H9R18445   5.371   0.588   7.274 -0.1580  0.7053 -1.1930
  164SAPE  C21018446   5.483   0.407   7.336  0.0254  0.3947  0.1792
  164SAPE  H10R18447   5.445   0.437   7.436 -0.3818  1.7493 -0.3676
  164SAPE  H10S18448   5.592   0.417   7.353 -0.4235  2.6662  2.2483
  164SAPE  C21118449   5.438   0.264   7.312  0.1636 -0.1702 -0.4638
  164SAPE  H11R18450   5.406   0.245   7.208  2.0764 -2.4290 -0.7302
  164SAPE  C21218451   5.465   0.165   7.400 -0.0579  0.6665 -0.1887
  164SAPE  H12R18452   5.430   0.062   7.380  0.3989  0.7597 -1.5190
  164SAPE  C21318453   5.531   0.194   7.533  0.0433  0.1607  0.1796
  164SAPE  H13R18454   5.486   0.282   7.585 -0.4239  0.1135 -0.1432
  164SAPE  H13S18455   5.636   0.231   7.522  0.8796 -1.7250  1.2859
  164SAPE  C21418456   5.522   0.082   7.631  0.4416  0.5012 -0.0940
  164SAPE  H14R18457   5.419   0.050   7.650  0.6743 -0.5248 -0.5344
  164SAPE  C21518458   5.628   0.018   7.687  0.1288 -0.1848  0.1476
  164SAPE  H15R18459   5.603  -0.054   7.766 -1.2876 -2.3065 -2.0865
  164SAPE  C21618460   5.780   0.044   7.679  0.1231 -0.0143 -0.1273
  164SAPE  H16R18461   5.804   0.135   7.620  0.8388  0.4140  0.8120
  164SAPE  H16S18462   5.834  -0.041   7.632 -1.4099 -1.1727  0.1257
  164SAPE  C21718463   5.837   0.072   7.821 -0.7278  0.5066  0.2330
  164SAPE  H17R18464   5.948   0.067   7.821 -0.5892  2.6310 -0.2461
  164SAPE  H17S18465   5.794  -0.001   7.893 -0.0861 -0.7934 -0.6500
  164SAPE  C21818466   5.818   0.223   7.870 -0.2490  0.5206 -0.1958
  164SAPE  H18R18467   5.742   0.276   7.808 -0.2334  0.7052 -0.0580
  164SAPE  H18S18468   5.916   0.266   7.839 -0.1977  0.4746 -0.0999
  164SAPE  C21918469   5.794   0.243   8.021 -0.1397  0.3518 -0.0909
  164SAPE  H19R18470   5.810   0.347   8.056 -1.3971  1.0502 -1.4366
  164SAPE  H19S18471   5.878   0.187   8.068 -0.1951 -0.3542 -0.8104
  164SAPE  C22018472   5.657   0.191   8.063  0.3439  0.0918 -0.1078
  164SAPE  H20R18473   5.637   0.082   8.052 -1.3177  0.4833 -1.3453
  164SAPE  H20S18474   5.585   0.237   7.993  0.3694 -0.0106 -0.2039
  164SAPE  H20T18475   5.624   0.215   8.166 -0.4201  1.1477 -0.5903
  164SAPE   C3318476   6.300   0.037   6.907 -0.1226 -0.4690  0.1010
  164SAPE   H3X18477   6.259   0.051   7.010 -0.1946  0.5332 -0.0480
  164SAPE   H3Y18478   6.401   0.082   6.894 -1.0661  2.0770  0.9401
  164SAPE   C3418479   6.307  -0.110   6.886 -0.3093  0.5550  0.2285
  164SAPE   H4X18480   6.338  -0.123   6.780 -0.6481  2.1231 -0.0824
  164SAPE   H4Y18481   6.209  -0.154   6.915  0.4367 -0.1359  1.7811
  164SAPE   C3518482   6.411  -0.167   6.981 -0.0610 -0.6961  0.5325
  164SAPE   H5X18483   6.372  -0.159   7.085  1.1975 -0.1617  0.9876
  164SAPE   H5Y18484   6.504  -0.106   6.972 -0.2199 -0.6924 -1.5806
  164SAPE   C3618485   6.445  -0.316   6.961  0.5474 -0.1206  0.0081
  164SAPE   H6X18486   6.482  -0.305   6.857 -0.2755 -0.5010 -0.3319
  164SAPE   H6Y18487   6.351  -0.375   6.957  0.6831 -0.3781  0.4626
  164SAPE   C3718488   6.547  -0.374   7.064 -0.1778 -0.5007 -0.4887
  164SAPE   H7X18489   6.640  -0.319   7.038 -0.9534  0.2479 -1.7782
  164SAPE   H7Y18490   6.552  -0.484   7.046 -1.4726 -0.5893 -0.3933
  164SAPE   C3818491   6.495  -0.356   7.204 -0.3896 -0.1166 -0.4331
  164SAPE   H8X18492   6.387  -0.381   7.208 -0.1065 -1.2043  1.5341
  164SAPE   H8Y18493   6.500  -0.246   7.223  0.2715  0.1907 -2.2132
  164SAPE   C3918494   6.570  -0.421   7.321 -0.5886  0.1600 -0.1249
  164SAPE   H9X18495   6.679  -0.410   7.303 -0.4108  0.4871  1.0670
  164SAPE   H9Y18496   6.544  -0.530   7.318 -1.5080  0.3439  0.7230
  164SAPE  C31018497   6.524  -0.356   7.452  0.2410  0.0016  0.0896
  164SAPE  H10X18498   6.417  -0.379   7.473  0.7948 -0.8327  2.2394
  164SAPE  H10Y18499   6.540  -0.246   7.440  0.1827 -0.2404 -3.0385
  164SAPE  C31118500   6.604  -0.394   7.579  0.3746 -0.0626 -0.7549
  164SAPE  H11X18501   6.713  -0.378   7.569  0.8167 -2.7871 -0.9088
  164SAPE  H11Y18502   6.593  -0.503   7.595  0.5345 -0.3498 -2.4376
  164SAPE  C31218503   6.543  -0.331   7.706  0.1601  0.4215 -0.5602
  164SAPE  H12X18504   6.434  -0.312   7.697 -0.0102  0.3203  0.9893
  164SAPE  H12Y18505   6.588  -0.233   7.733 -0.0305  0.6276 -0.9862
  164SAPE  C31318506   6.573  -0.430   7.820 -0.6774 -0.7236 -0.4457
  164SAPE  H13X18507   6.683  -0.429   7.829 -0.6548 -3.5282  0.6712
  164SAPE  H13Y18508   6.530  -0.532   7.806 -0.5352 -0.9842  0.8460
  164SAPE  C31418509   6.515  -0.388   7.955  0.1341 -0.6926  0.0105
  164SAPE  H14X18510   6.404  -0.388   7.955  0.0857  0.9566 -1.4281
  164SAPE  H14Y18511   6.550  -0.284   7.971  1.6501 -0.9922 -1.1512
  164SAPE  C31518512   6.565  -0.489   8.060  0.2095 -0.1648 -0.0758
  164SAPE  H15X18513   6.562  -0.588   8.010 -1.9385  0.2991 -0.9503
  164SAPE  H15Y18514   6.492  -0.489   8.143 -1.0938 -1.4373 -1.1754
  164SAPE  C31618515   6.706  -0.440   8.110 -0.0935  0.1538 -0.8222
  164SAPE  H16X18516   6.709  -0.334   8.144  0.8677  0.1269 -0.7974
  164SAPE  H16Y18517   6.769  -0.443   8.019 -0.4704 -2.8251 -1.0851
  164SAPE  C31718518   6.783  -0.522   8.229 -0.3871  0.4783  0.1434
  164SAPE  H17X18519   6.780  -0.630   8.201 -0.6506  0.3905  0.4926
  164SAPE  H17Y18520   6.729  -0.506   8.325  0.4016  3.4918  0.1784
  164SAPE  C31818521   6.926  -0.467   8.239 -0.5915  0.3104 -0.2312
  164SAPE  H18X18522   6.971  -0.509   8.331 -1.6971 -1.1124 -0.2988
  164SAPE  H18Y18523   6.953  -0.359   8.239  1.6426 -0.1595 -1.9233
  164SAPE  H18Z18524   6.986  -0.502   8.152 -1.5432 -0.4361 -0.5981
  165SAPE     N18525   4.800   3.067   6.577 -0.1819 -0.1147 -0.4339
  165SAPE   HN118526   4.833   3.022   6.665 -0.0696 -0.2730 -0.5544
  165SAPE   HN218527   4.884   3.083   6.518 -0.5580  0.4371 -0.8185
  165SAPE   HN318528   4.756   3.160   6.590  2.1848  0.7423  3.0211
  165SAPE   C1218529   4.701   2.980   6.504 -0.6675  0.1527 -0.1748
  165SAPE  H12A18530   4.661   3.041   6.420  1.8099  0.0908 -1.4991
  165SAPE  H12B18531   4.623   2.949   6.577 -0.0999  2.4071  1.4870
  165SAPE   C1118532   4.775   2.859   6.458 -0.2367 -0.4590 -0.4279
  165SAPE  H11A18533   4.811   2.816   6.554 -0.5970  0.3175  0.0697
  165SAPE  H11B18534   4.855   2.885   6.386 -1.2109  2.5400 -0.5848
  165SAPE     P18535   4.622   2.639   6.425 -0.0826 -0.2174  0.0939
  165SAPE   O1318536   4.494   2.638   6.347 -0.2559 -0.6918 -0.7349
  165SAPE   O1418537   4.722   2.534   6.387  0.5823 -0.3840  0.1254
  165SAPE   O1218538   4.676   2.783   6.388 -0.4733 -0.5321 -0.3424
  165SAPE   O1118539   4.600   2.639   6.577 -0.2542  0.5635  0.3209
  165SAPE    C118540   4.468   2.675   6.638 -0.4303  0.0340 -0.0555
  165SAPE    HA18541   4.489   2.728   6.733 -0.4833  0.4898 -0.2975
  165SAPE    HB18542   4.415   2.747   6.572 -2.1144 -1.2681 -0.1978
  165SAPE    C218543   4.385   2.550   6.676  0.2852 -0.2171  0.2383
  165SAPE    HS18544   4.366   2.494   6.582  1.6330  0.5319 -0.5187
  165SAPE   O2118545   4.272   2.601   6.741 -0.3587 -0.2984 -0.0302
  165SAPE   C2118546   4.175   2.638   6.665  0.3342 -0.1784  0.3339
  165SAPE   O2218547   4.168   2.635   6.542  0.1455  0.0016 -0.1291
  165SAPE   C2218548   4.070   2.707   6.753  0.1086  0.4120  1.2690
  165SAPE   H2R18549   3.974   2.683   6.702  0.6174 -2.7564  1.5852
  165SAPE   H2S18550   4.068   2.661   6.854 -0.1474  2.3322  2.1802
  165SAPE    C318551   4.470   2.449   6.762 -0.4720  0.4132  0.3424
  165SAPE    HX18552   4.556   2.425   6.696  0.4414  2.0965  0.8558
  165SAPE    HY18553   4.424   2.351   6.784  0.9805 -1.0994 -2.6765
  165SAPE   O3118554   4.521   2.510   6.885 -0.3060 -0.0780 -0.0412
  165SAPE   C3118555   4.428   2.521   6.987 -0.6271  0.2226  0.9747
  165SAPE   O3218556   4.316   2.468   6.986 -0.5296  0.3998 -0.5181
  165SAPE   C3218557   4.481   2.618   7.095 -0.3122 -0.3912  0.1003
  165SAPE   H2X18558   4.533   2.705   7.049  1.3102  0.3483  3.0658
  165SAPE   H2Y18559   4.560   2.573   7.159  1.5487  1.0481 -1.0472
  165SAPE   C2318560   4.087   2.859   6.759 -0.0923  0.0454 -0.2094
  165SAPE   H3R18561   4.082   2.903   6.657  2.5728 -0.5952 -0.6701
  165SAPE   H3S18562   4.191   2.889   6.782 -0.0416  0.5031 -1.0169
  165SAPE   C2418563   3.991   2.926   6.859  0.0139 -0.0359  0.5537
  165SAPE   H4R18564   3.899   2.864   6.855  0.6898 -1.0176 -2.5896
  165SAPE   H4S18565   3.964   3.030   6.829  1.0863  1.3075  3.8005
  165SAPE   C2518566   4.056   2.957   6.989  0.0601 -0.1986  0.0055
  165SAPE   H5R18567   4.165   2.973   6.985  0.1266 -0.5107  0.5695
  165SAPE   C2618568   3.991   2.978   7.106 -0.2186  0.4042  0.0577
  165SAPE   H6R18569   4.051   3.004   7.195  1.1088  0.6832 -0.8879
  165SAPE   C2718570   3.840   2.958   7.131 -0.3887  0.3198 -0.0369
  165SAPE   H7R18571   3.773   2.949   7.043 -0.6654  2.8695 -0.1730
  165SAPE   H7S18572   3.814   3.048   7.191 -1.9356 -0.1345 -0.0024
  165SAPE   C2818573   3.825   2.836   7.221 -0.6159 -0.2562  0.9657
  165SAPE   H8R18574   3.785   2.756   7.156  0.9477  0.2722 -0.7148
  165SAPE   C2918575   3.855   2.808   7.350 -0.0318  0.3381 -0.8102
  165SAPE   H9R18576   3.824   2.716   7.402  0.4880  1.1835  1.1053
  165SAPE  C21018577   3.903   2.920   7.441 -0.6100 -0.9606  0.9650
  165SAPE  H10R18578   3.934   3.009   7.382  1.2938 -1.2206  1.5177
  165SAPE  H10S18579   3.992   2.887   7.497 -0.8437  1.2719  2.8010
  165SAPE  C21118580   3.797   2.961   7.539 -0.2467 -0.0380 -0.3144
  165SAPE  H11R18581   3.713   3.021   7.502 -1.2956 -2.2531 -1.7109
  165SAPE  C21218582   3.797   2.937   7.673 -0.8616  0.1789 -0.0350
  165SAPE  H12R18583   3.716   2.966   7.742 -1.4758  0.7672 -0.9799
  165SAPE  C21318584   3.911   2.858   7.745 -0.5511  0.5081  0.8672
  165SAPE  H13R18585   3.988   2.822   7.674 -0.6074  0.9449  0.5837
  165SAPE  H13S18586   3.871   2.767   7.796 -0.0420  1.0059  2.1907
  165SAPE  C21418587   3.963   2.952   7.848 -0.4354 -0.9967 -0.6098
  165SAPE  H14R18588   4.042   3.015   7.804 -1.8725  1.0685 -0.3849
  165SAPE  C21518589   3.922   2.964   7.977 -0.0517  0.3173  0.6734
  165SAPE  H15R18590   3.975   3.023   8.053 -1.8251  0.6634  1.6747
  165SAPE  C21618591   3.807   2.886   8.041  0.4902 -0.8805  0.2090
  165SAPE  H16R18592   3.840   2.786   8.077 -0.2743 -1.0154  0.5594
  165SAPE  H16S18593   3.740   2.853   7.959  2.5811 -2.3591 -1.0036
  165SAPE  C21718594   3.733   2.971   8.149  0.1415 -0.2854  0.1423
  165SAPE  H17R18595   3.695   3.065   8.105  0.6553  0.0297  0.3611
  165SAPE  H17S18596   3.801   3.003   8.231 -0.3761  0.0535  0.4449
  165SAPE  C21818597   3.625   2.886   8.215 -0.0582  0.3144 -0.0018
  165SAPE  H18R18598   3.655   2.782   8.240 -0.1051  0.0713 -0.9449
  165SAPE  H18S18599   3.546   2.863   8.141  1.1006 -2.7835 -0.4384
  165SAPE  C21918600   3.552   2.946   8.331 -0.3973  0.0177  0.3450
  165SAPE  H19R18601   3.509   3.044   8.302  1.0567  1.2955  2.1982
  165SAPE  H19S18602   3.624   2.970   8.412  0.6108 -1.0177 -0.2075
  165SAPE  C22018603   3.434   2.875   8.399  0.2259 -0.1629  0.1341
  165SAPE  H20R18604   3.400   2.951   8.473  0.8522 -1.5657  1.9354
  165SAPE  H20S18605   3.470   2.787   8.457 -1.1435 -0.6868  0.2371
  165SAPE  H20T18606   3.349   2.842   8.336 -0.4237 -0.2368  1.0210
  165SAPE   C3318607   4.369   2.675   7.194  0.8313 -0.5607  0.5363
  165SAPE   H3X18608   4.337   2.584   7.249 -4.1349  0.6136  0.0832
  165SAPE   H3Y18609   4.281   2.707   7.134 -0.3838 -0.4981  2.2741
  165SAPE   C3418610   4.419   2.789   7.286 -0.1788 -0.4153 -0.5455
  165SAPE   H4X18611   4.341   2.836   7.351  0.6456 -0.3141  0.3900
  165SAPE   H4Y18612   4.461   2.872   7.225  1.0000 -1.0194 -0.5672
  165SAPE   C3518613   4.533   2.746   7.375 -0.3885  0.4251 -0.6267
  165SAPE   H5X18614   4.618   2.713   7.312 -0.0052 -0.1963  0.1921
  165SAPE   H5Y18615   4.497   2.658   7.434  0.0188  1.0629  0.6197
  165SAPE   C3618616   4.584   2.852   7.476 -0.2523 -0.4947 -0.1739
  165SAPE   H6X18617   4.597   2.953   7.432  0.6282 -0.7154 -0.4644
  165SAPE   H6Y18618   4.688   2.822   7.502  0.5555  0.9211 -1.5728
  165SAPE   C3718619   4.503   2.862   7.603  0.1863 -0.2751 -0.0865
  165SAPE   H7X18620   4.500   2.758   7.641  1.7000 -0.3266 -0.0523
  165SAPE   H7Y18621   4.397   2.889   7.580 -0.7342 -1.5090  2.3280
  165SAPE   C3818622   4.575   2.949   7.708 -1.0939 -0.3038  0.1756
  165SAPE   H8X18623   4.583   3.056   7.677  1.3208 -1.1199 -2.4562
  165SAPE   H8Y18624   4.682   2.917   7.709 -1.2786 -0.9666 -0.6627
  165SAPE   C3918625   4.521   2.926   7.847 -0.4724 -0.3355 -0.3764
  165SAPE   H9X18626   4.540   2.821   7.881  1.9339  0.0056 -0.5033
  165SAPE   H9Y18627   4.410   2.933   7.849 -0.5192 -0.5620  2.2413
  165SAPE  C31018628   4.578   3.000   7.963 -0.1178 -0.1882 -0.8923
  165SAPE  H10X18629   4.549   3.106   7.952 -0.0429 -0.2459 -1.6869
  165SAPE  H10Y18630   4.689   3.000   7.968 -0.1026  1.8131 -0.2698
  165SAPE  C31118631   4.529   2.952   8.106  0.7231  1.0558 -0.0928
  165SAPE  H11X18632   4.538   2.842   8.114  2.8865  1.3278  3.1161
  165SAPE  H11Y18633   4.424   2.988   8.099  0.3476 -0.1711 -0.9621
  165SAPE  C31218634   4.590   3.017   8.227 -0.0672 -0.0003 -0.1447
  165SAPE  H12X18635   4.591   3.127   8.216  1.6379  0.0453  0.1730
  165SAPE  H12Y18636   4.695   2.980   8.228  0.0576  0.3426  0.6992
  165SAPE  C31318637   4.531   2.981   8.365 -0.2114  0.4616 -0.3830
  165SAPE  H13X18638   4.568   2.878   8.386 -0.2010  0.8327  1.5707
  165SAPE  H13Y18639   4.420   2.986   8.354 -0.9230 -2.9398  2.9583
  165SAPE  C31418640   4.580   3.075   8.477  0.4605  0.6646  0.2384
  165SAPE  H14X18641   4.540   3.042   8.575  0.0839  2.8678  0.8850
  165SAPE  H14Y18642   4.521   3.168   8.462 -2.5872 -1.1762  0.0240
  165SAPE  C31518643   4.738   3.088   8.475 -0.1564  0.3720 -0.0540
  165SAPE  H15X18644   4.777   3.126   8.378  0.9512 -1.0760 -0.2264
  165SAPE  H15Y18645   4.772   2.982   8.477  0.3117  0.5199 -0.1076
  165SAPE  C31618646   4.787   3.168   8.595 -0.2427 -0.1251 -0.5534
  165SAPE  H16X18647   4.746   3.129   8.690  2.3780  0.2107  0.8023
  165SAPE  H16Y18648   4.743   3.270   8.601  1.4018  0.5305  1.6968
  165SAPE  C31718649   4.937   3.152   8.612 -0.5504  0.2481  0.1127
  165SAPE  H17X18650   4.980   3.202   8.522  1.8983 -1.5934  0.1538
  165SAPE  H17Y18651   4.965   3.047   8.592 -0.8508  0.5862 -2.4374
  165SAPE  C31818652   4.997   3.200   8.739 -0.4048  0.2130  0.0469
  165SAPE  H18X18653   4.955   3.299   8.768  1.3044  0.2477  2.8044
  165SAPE  H18Y18654   5.108   3.202   8.740 -0.2076 -3.3580 -1.4171
  165SAPE  H18Z18655   4.977   3.120   8.813  1.6978 -2.0312 -1.6298
  166SAPE     N18656   4.309   0.914   6.476 -0.3755 -0.0993  0.1819
  166SAPE   HN118657   4.321   1.016   6.464  1.6662 -0.2290  0.7390
  166SAPE   HN218658   4.314   0.894   6.577  0.4362  0.2501  0.2243
  166SAPE   HN318659   4.394   0.873   6.430  0.7613  1.4084  0.8568
  166SAPE   C1218660   4.178   0.864   6.420 -0.2337 -0.5497 -0.0263
  166SAPE  H12A18661   4.091   0.905   6.474 -2.6881 -1.2390 -3.1945
  166SAPE  H12B18662   4.177   0.756   6.445 -2.0845 -0.3307  0.9728
  166SAPE   C1118663   4.170   0.911   6.276 -0.0216  0.3758 -0.1632
  166SAPE  H11A18664   4.187   1.019   6.259 -3.2258  1.0915  0.4910
  166SAPE  H11B18665   4.062   0.886   6.264 -0.1730 -0.1779  1.8210
  166SAPE     P18666   4.221   0.715   6.111 -0.2938  0.0228 -0.3929
  166SAPE   O1318667   4.127   0.749   6.005 -0.7093  0.2692  0.5341
  166SAPE   O1418668   4.332   0.628   6.086 -0.3772 -0.7202 -0.7260
  166SAPE   O1218669   4.266   0.838   6.195 -0.2092 -0.0883 -0.6413
  166SAPE   O1118670   4.119   0.643   6.210  0.4126  0.3832 -0.1323
  166SAPE    C118671   4.181   0.544   6.302  0.0872  0.1419 -0.4019
  166SAPE    HA18672   4.218   0.453   6.250 -1.1788 -0.7378  0.1973
  166SAPE    HB18673   4.265   0.586   6.361 -1.6634  0.9036  1.6478
  166SAPE    C218674   4.083   0.486   6.411  0.1085  0.2910  0.5461
  166SAPE    HS18675   4.017   0.418   6.352  0.3612  0.8727 -0.4301
  166SAPE   O2118676   4.012   0.594   6.465  0.3807  0.0963 -0.7009
  166SAPE   C2118677   3.880   0.604   6.437 -0.7240  0.2303 -0.2323
  166SAPE   O2218678   3.819   0.576   6.333  0.5282 -0.0137  0.5487
  166SAPE   C2218679   3.812   0.662   6.558 -0.4702 -0.3288  0.1308
  166SAPE   H2R18680   3.870   0.754   6.580  1.1899 -1.6428  1.6036
  166SAPE   H2S18681   3.712   0.698   6.528  0.1923  0.3035 -1.4386
  166SAPE    C318682   4.159   0.414   6.518  1.4138 -0.3139 -0.2529
  166SAPE    HX18683   4.240   0.471   6.568  1.4479 -1.1355  0.6623
  166SAPE    HY18684   4.216   0.330   6.472  2.5447 -0.5298  1.4330
  166SAPE   O3118685   4.068   0.364   6.615  0.1291  0.0769 -0.2734
  166SAPE   C3118686   4.115   0.262   6.683  0.0523 -0.1223  0.1478
  166SAPE   O3218687   4.228   0.209   6.672  0.0968  0.0827 -0.6436
  166SAPE   C3218688   4.008   0.202   6.776 -0.7145  0.0470  0.2559
  166SAPE   H2X18689   3.972   0.103   6.743  0.7349  0.3131 -2.4235
  166SAPE   H2Y18690   3.924   0.273   6.793 -1.1022  0.2883 -2.2864
  166SAPE   C2318691   3.826   0.583   6.694  0.2116  0.4232 -0.1306
  166SAPE   H3R18692   3.936   0.584   6.706  0.7381  4.0762 -3.2370
  166SAPE   H3S18693   3.778   0.483   6.693  0.4030  0.3060  1.0905
  166SAPE   C2418694   3.781   0.662   6.814  0.4890  0.0023  0.2957
  166SAPE   H4R18695   3.671   0.680   6.804  0.5832  0.8078  0.6062
  166SAPE   H4S18696   3.832   0.761   6.809 -0.5386  0.5260 -0.5314
  166SAPE   C2518697   3.798   0.590   6.946 -0.0746  1.0214  0.4410
  166SAPE   H5R18698   3.729   0.508   6.971 -1.2195  1.1500 -2.0405
  166SAPE   C2618699   3.901   0.621   7.032 -0.3187 -0.2077  0.6392
  166SAPE   H6R18700   3.904   0.568   7.129 -0.4799  0.4503  1.0098
  166SAPE   C2718701   4.008   0.721   7.006 -0.3407  0.4438 -0.2399
  166SAPE   H7R18702   4.049   0.730   6.903  0.1103  1.5085  0.0280
  166SAPE   H7S18703   4.099   0.683   7.057 -1.0342  0.4121  1.0110
  166SAPE   C2818704   3.974   0.852   7.076  0.1259  0.0515  0.3654
  166SAPE   H8R18705   3.932   0.934   7.017  0.9419 -0.3988 -0.8775
  166SAPE   C2918706   4.012   0.888   7.200 -0.1266  0.2440  0.8328
  166SAPE   H9R18707   3.980   0.985   7.241 -3.2548  0.8446 -2.5515
  166SAPE  C21018708   4.087   0.809   7.299 -0.4254  0.0600 -0.4278
  166SAPE  H10R18709   4.127   0.711   7.264 -0.5850  0.0351 -0.5412
  166SAPE  H10S18710   4.021   0.796   7.387  0.3580 -2.9321 -0.1809
  166SAPE  C21118711   4.201   0.903   7.335 -0.3904 -0.2455  0.2226
  166SAPE  H11R18712   4.265   0.938   7.253 -0.0331 -1.0128  0.1650
  166SAPE  C21218713   4.255   0.913   7.459  0.4337  0.2163  0.1847
  166SAPE  H12R18714   4.342   0.979   7.473  0.7983 -0.7420  3.2260
  166SAPE  C21318715   4.203   0.848   7.585 -0.6639 -0.3774 -0.7638
  166SAPE  H13R18716   4.283   0.829   7.659 -1.7944  0.5967  0.7724
  166SAPE  H13S18717   4.165   0.746   7.560 -0.0245 -0.7551 -0.2270
  166SAPE  C21418718   4.084   0.914   7.647 -0.1260  0.1033  0.0905
  166SAPE  H14R18719   4.019   0.954   7.568 -0.9923  1.0408  1.2379
  166SAPE  C21518720   4.057   0.916   7.778 -0.6954 -0.2520  0.0936
  166SAPE  H15R18721   3.960   0.956   7.811 -0.6896  0.5284 -0.7930
  166SAPE  C21618722   4.131   0.847   7.884 -0.0561  0.2550 -0.0441
  166SAPE  H16R18723   4.235   0.813   7.863  0.4744  1.3412  0.7410
  166SAPE  H16S18724   4.072   0.763   7.925 -0.2989  1.1291  1.4466
  166SAPE  C21718725   4.137   0.927   8.009 -0.6910 -0.4683 -0.3336
  166SAPE  H17R18726   4.189   1.022   7.984 -2.2442 -0.1773 -2.8132
  166SAPE  H17S18727   4.202   0.875   8.082  1.0603  1.8369 -0.1537
  166SAPE  C21818728   4.007   0.974   8.076  0.2311  0.1725  0.0474
  166SAPE  H18R18729   3.947   0.887   8.111  1.5841 -1.2143 -0.9881
  166SAPE  H18S18730   3.930   1.013   8.006  0.2207  1.8057  0.9195
  166SAPE  C21918731   4.042   1.080   8.183 -1.1420  0.5678  1.2316
  166SAPE  H19R18732   4.093   1.169   8.139 -1.1662  0.7470  1.5619
  166SAPE  H19S18733   4.102   1.030   8.261 -1.5070  0.6864  1.5942
  166SAPE  C22018734   3.915   1.124   8.264 -0.4813  0.1068  0.0332
  166SAPE  H20R18735   3.833   1.177   8.210  1.1906  3.8991  0.8410
  166SAPE  H20S18736   3.954   1.185   8.349  2.0742  1.1639 -1.7470
  166SAPE  H20T18737   3.869   1.030   8.299 -1.1859 -0.4085 -2.1440
  166SAPE   C3318738   4.068   0.164   6.915  0.4433  0.1211  0.4227
  166SAPE   H3X18739   4.148   0.093   6.885  0.0628 -0.0979 -0.1024
  166SAPE   H3Y18740   3.978   0.126   6.968  0.2796  0.4170  0.3564
  166SAPE   C3418741   4.123   0.282   6.985 -0.4684 -0.1731 -0.0857
  166SAPE   H4X18742   4.078   0.277   7.087  0.7713  1.2775  0.5906
  166SAPE   H4Y18743   4.081   0.375   6.943  0.7974  1.2631  1.6275
  166SAPE   C3518744   4.274   0.280   7.003 -0.5633 -0.3582  0.2973
  166SAPE   H5X18745   4.309   0.312   6.902 -1.8823  2.1721  0.5516
  166SAPE   H5Y18746   4.317   0.178   7.009  0.4832 -0.2079 -2.6290
  166SAPE   C3618747   4.331   0.367   7.115 -0.0050 -0.0850 -0.6478
  166SAPE   H6X18748   4.288   0.469   7.103  1.3741  0.4248 -1.5131
  166SAPE   H6Y18749   4.439   0.389   7.103  0.5850 -1.2091  2.0126
  166SAPE   C3718750   4.295   0.320   7.261  0.2751 -0.3140  0.3271
  166SAPE   H7X18751   4.357   0.234   7.294 -1.2182 -0.9633  1.5672
  166SAPE   H7Y18752   4.187   0.292   7.262 -0.3650  1.8941 -0.4952
  166SAPE   C3818753   4.315   0.427   7.364  0.2410  0.2480 -0.0398
  166SAPE   H8X18754   4.261   0.520   7.334 -0.4891 -0.3870 -0.7345
  166SAPE   H8Y18755   4.424   0.450   7.365  0.5011 -0.8945 -0.6865
  166SAPE   C3918756   4.287   0.372   7.507 -0.6279 -0.0014 -0.3723
  166SAPE   H9X18757   4.348   0.282   7.531 -0.5508  0.4510  1.2987
  166SAPE   H9Y18758   4.181   0.340   7.493 -0.4976 -1.1514  1.0164
  166SAPE  C31018759   4.313   0.468   7.628 -0.4629  0.0546  0.1993
  166SAPE  H10X18760   4.241   0.550   7.607 -1.0580 -0.7558 -1.0573
  166SAPE  H10Y18761   4.420   0.496   7.626 -0.1573 -1.0086  1.0725
  166SAPE  C31118762   4.279   0.403   7.760  0.4152 -0.9719  0.7025
  166SAPE  H11X18763   4.339   0.314   7.789  1.8747  0.4383  2.2104
  166SAPE  H11Y18764   4.171   0.381   7.771 -0.6120  2.3107 -1.2953
  166SAPE  C31218765   4.308   0.505   7.869  0.6004  0.2438  0.4220
  166SAPE  H12X18766   4.258   0.596   7.830 -0.8472  0.4643  2.5572
  166SAPE  H12Y18767   4.415   0.529   7.889  0.9555 -1.4196  0.6494
  166SAPE  C31318768   4.225   0.477   7.998  0.3560 -0.5748  0.3595
  166SAPE  H13X18769   4.130   0.446   7.949  0.1174  0.1508  0.3410
  166SAPE  H13Y18770   4.209   0.572   8.055  2.2095  0.7687 -1.2368
  166SAPE  C31418771   4.283   0.374   8.095  0.7101  0.0423 -0.0898
  166SAPE  H14X18772   4.313   0.292   8.026 -0.5317 -1.3183  0.9218
  166SAPE  H14Y18773   4.205   0.329   8.160  0.1476  3.8896  2.1775
  166SAPE  C31518774   4.393   0.432   8.179  0.4268 -0.1814  0.4278
  166SAPE  H15X18775   4.472   0.485   8.120 -1.0382 -0.0453 -1.5051
  166SAPE  H15Y18776   4.451   0.365   8.246 -0.7768  0.0697  1.7573
  166SAPE  C31618777   4.336   0.535   8.286 -0.0415 -0.8676  0.1509
  166SAPE  H16X18778   4.268   0.487   8.360 -0.8879  1.0971  0.7030
  166SAPE  H16Y18779   4.271   0.610   8.236  1.0609  1.1458  1.5713
  166SAPE  C31718780   4.442   0.619   8.358  0.1474  0.3270  0.3717
  166SAPE  H17X18781   4.511   0.548   8.409 -0.5187 -0.6283 -0.0261
  166SAPE  H17Y18782   4.405   0.678   8.444  0.8012  2.2097 -0.5899
  166SAPE  C31818783   4.514   0.708   8.253 -0.4612 -0.4192 -0.4022
  166SAPE  H18X18784   4.437   0.764   8.195  0.6230  0.2510 -1.2633
  166SAPE  H18Y18785   4.574   0.646   8.183  1.5380  0.4149  0.4956
  166SAPE  H18Z18786   4.582   0.786   8.293 -1.4992  1.2668 -1.7504
  167SAPE     N18787   5.670   5.941   5.960  0.0946  0.1592 -0.2730
  167SAPE   HN118788   5.745   5.961   6.030 -0.9745  0.3901  0.8503
  167SAPE   HN218789   5.677   5.839   5.942  3.4688 -0.6033  3.6537
  167SAPE   HN318790   5.684   5.994   5.872  0.5059  0.7438  0.1362
  167SAPE   C1218791   5.533   5.981   6.012 -0.0907 -0.0062 -0.0991
  167SAPE  H12A18792   5.515   5.934   6.111  2.1163  1.0626  0.8785
  167SAPE  H12B18793   5.453   5.944   5.944 -0.8063  0.6773  0.3631
  167SAPE   C1118794   5.514   6.132   6.045 -0.1000 -0.6438 -0.2152
  167SAPE  H11A18795   5.416   6.158   6.092 -0.5273 -0.1679 -1.3363
  167SAPE  H11B18796   5.514   6.183   5.947 -1.7886  1.1868  0.6758
  167SAPE     P18797   5.618   6.213   6.272  0.1291  0.1149  0.1761
  167SAPE   O1318798   5.754   6.219   6.326  0.0294 -0.8598 -0.0366
  167SAPE   O1418799   5.534   6.333   6.311 -0.0837  0.5721  0.1976
  167SAPE   O1218800   5.624   6.188   6.113 -0.0803 -0.2407  0.0096
  167SAPE   O1118801   5.556   6.074   6.312  0.3362  0.0925  0.0459
  167SAPE    C118802   5.417   6.072   6.357 -0.5933  0.1873 -0.3003
  167SAPE    HA18803   5.356   6.161   6.331  0.0359  0.0967 -2.2158
  167SAPE    HB18804   5.364   5.995   6.297  1.0367 -0.3950 -1.0308
  167SAPE    C218805   5.398   6.043   6.511 -0.1954  0.3622 -0.6983
  167SAPE    HS18806   5.289   6.019   6.509  0.8262 -5.6233 -1.2151
  167SAPE   O2118807   5.454   6.141   6.597  0.2710  0.1571  0.3210
  167SAPE   C2118808   5.380   6.253   6.615  0.5043  0.2295  1.1539
  167SAPE   O2218809   5.268   6.276   6.570  0.3564  0.6121 -0.3560
  167SAPE   C2218810   5.453   6.343   6.716 -0.0567 -0.0841 -0.2898
  167SAPE   H2R18811   5.558   6.356   6.681  0.6007  1.2325  1.9345
  167SAPE   H2S18812   5.401   6.441   6.721  0.8058  0.4660 -1.5477
  167SAPE    C318813   5.460   5.904   6.551  0.2563  0.0026 -0.3853
  167SAPE    HX18814   5.570   5.908   6.541  0.6170  3.7033  2.8504
  167SAPE    HY18815   5.413   5.828   6.484  0.0783 -0.2739  0.0453
  167SAPE   O3118816   5.430   5.881   6.688 -0.6584  0.0268  0.6618
  167SAPE   C3118817   5.463   5.760   6.739  0.1898  0.1331 -0.7291
  167SAPE   O3218818   5.511   5.670   6.676  0.1816 -0.1311 -0.1790
  167SAPE   C3218819   5.434   5.751   6.890  0.4080  0.4509  0.2074
  167SAPE   H2X18820   5.402   5.649   6.922 -0.7713  0.4196 -0.9952
  167SAPE   H2Y18821   5.349   5.821   6.901  0.8706  1.3282 -1.5215
  167SAPE   C2318822   5.475   6.272   6.852  0.1818 -0.3895 -0.6014
  167SAPE   H3R18823   5.515   6.345   6.925 -0.0161 -0.0470 -0.8330
  167SAPE   H3S18824   5.538   6.181   6.864 -0.5221 -0.8121 -0.0048
  167SAPE   C2418825   5.339   6.241   6.921  0.8405 -0.6071  0.1816
  167SAPE   H4R18826   5.367   6.182   7.011  0.9564  1.4317  1.5458
  167SAPE   H4S18827   5.295   6.163   6.854  1.1629  0.5042 -1.3847
  167SAPE   C2518828   5.240   6.353   6.956 -0.2857 -0.1873  0.4309
  167SAPE   H5R18829   5.174   6.368   6.869  1.7577  0.7034 -1.0464
  167SAPE   C2618830   5.225   6.427   7.070 -0.5222  0.3057  0.1506
  167SAPE   H6R18831   5.165   6.519   7.063  1.0295  1.5568  2.2674
  167SAPE   C2718832   5.289   6.408   7.208  0.1647 -0.1293 -0.1398
  167SAPE   H7R18833   5.354   6.317   7.208  0.3789 -0.0209 -2.0737
  167SAPE   H7S18834   5.211   6.395   7.285  1.4989 -1.6925  1.0221
  167SAPE   C2818835   5.386   6.518   7.250  0.2112  0.4343  0.0152
  167SAPE   H8R18836   5.426   6.587   7.174 -0.1302 -0.2183 -0.7869
  167SAPE   C2918837   5.433   6.523   7.379  0.3602  0.1203 -0.5909
  167SAPE   H9R18838   5.504   6.599   7.412  0.5539  0.4313 -1.6925
  167SAPE  C21018839   5.372   6.441   7.492  0.1767  0.1831 -0.1942
  167SAPE  H10R18840   5.330   6.343   7.461  1.2189 -0.9582  1.8373
  167SAPE  H10S18841   5.282   6.492   7.534 -0.7085 -2.6803  1.6864
  167SAPE  C21118842   5.490   6.417   7.595  0.1845  0.2464  0.3383
  167SAPE  H11R18843   5.595   6.424   7.562  0.1587  1.8626  0.5056
  167SAPE  C21218844   5.471   6.410   7.729 -0.2826 -0.0976  0.0812
  167SAPE  H12R18845   5.562   6.392   7.789 -0.8285 -1.0011  0.6718
  167SAPE  C21318846   5.336   6.430   7.797  0.2371  0.1062 -0.5932
  167SAPE  H13R18847   5.286   6.523   7.762 -2.2928 -0.4392  1.2811
  167SAPE  H13S18848   5.350   6.460   7.903 -2.8674  0.2020 -0.0976
  167SAPE  C21418849   5.240   6.312   7.801  0.4344 -0.5623  0.4956
  167SAPE  H14R18850   5.177   6.293   7.713 -0.3663 -3.4616  1.5853
  167SAPE  C21518851   5.227   6.222   7.901  0.2818  0.1099  0.0925
  167SAPE  H15R18852   5.154   6.140   7.887  1.1595 -0.3930 -1.8663
  167SAPE  C21618853   5.295   6.211   8.028  0.0838  0.1081  0.6104
  167SAPE  H16R18854   5.249   6.276   8.105  0.0790  0.1847  0.5424
  167SAPE  H16S18855   5.398   6.246   8.009  0.5806 -1.3218  0.4952
  167SAPE  C21718856   5.315   6.065   8.083  0.0484 -1.1109  0.2419
  167SAPE  H17R18857   5.389   6.081   8.164 -0.1552 -0.5451  0.3205
  167SAPE  H17S18858   5.365   6.007   8.002  2.2210  1.6402 -0.5395
  167SAPE  C21818859   5.189   5.990   8.126  0.1524 -0.1407 -0.1985
  167SAPE  H18R18860   5.113   5.979   8.046 -0.5805  1.4519  0.2541
  167SAPE  H18S18861   5.142   6.054   8.203  1.2186  0.8568 -0.3432
  167SAPE  C21918862   5.218   5.849   8.186  0.5535 -0.3520 -0.0707
  167SAPE  H19R18863   5.293   5.795   8.124  1.8900  0.0193  1.1708
  167SAPE  H19S18864   5.117   5.805   8.195  1.7100 -2.8038  2.6929
  167SAPE  C22018865   5.284   5.858   8.321  0.3015  0.2736  0.3206
  167SAPE  H20R18866   5.279   5.765   8.382 -1.4932  1.0036  1.3396
  167SAPE  H20S18867   5.228   5.932   8.381  1.5896  2.3974 -0.9773
  167SAPE  H20T18868   5.388   5.896   8.319  0.3971  0.1366  1.6607
  167SAPE   C3318869   5.551   5.801   6.989  0.4521  0.4917  0.6345
  167SAPE   H3X18870   5.592   5.903   6.980 -0.0233  0.6495  0.2249
  167SAPE   H3Y18871   5.642   5.738   6.981  0.4095  0.3407  1.2783
  167SAPE   C3418872   5.506   5.783   7.137 -0.1176  0.2989  0.1735
  167SAPE   H4X18873   5.584   5.841   7.190  0.9759 -0.1633 -0.8866
  167SAPE   H4Y18874   5.525   5.677   7.166  1.4021  1.4102  3.8573
  167SAPE   C3518875   5.365   5.827   7.173  0.3353  0.7256 -0.2238
  167SAPE   H5X18876   5.286   5.778   7.112  0.7875  1.3999 -1.3852
  167SAPE   H5Y18877   5.359   5.936   7.155  0.9335  1.5485  3.6645
  167SAPE   C3618878   5.332   5.807   7.324  0.4501  0.0698  0.4607
  167SAPE   H6X18879   5.339   5.698   7.342 -0.1679 -0.0775 -0.1196
  167SAPE   H6Y18880   5.227   5.828   7.353  0.2451  1.3258 -1.0207
  167SAPE   C3718881   5.421   5.873   7.430  0.7391 -0.0887 -0.7670
  167SAPE   H7X18882   5.458   5.968   7.386  0.8096  0.4980  0.5043
  167SAPE   H7Y18883   5.507   5.807   7.453  1.2775  0.2131 -1.8483
  167SAPE   C3818884   5.344   5.885   7.568  0.2509 -0.9773 -0.3829
  167SAPE   H8X18885   5.264   5.959   7.544  0.5643 -0.3941  0.3402
  167SAPE   H8Y18886   5.412   5.938   7.638 -0.9632 -0.0248  0.1286
  167SAPE   C3918887   5.296   5.754   7.630  0.5697  0.1553  0.7291
  167SAPE   H9X18888   5.375   5.677   7.618  0.7060  0.4989 -0.7527
  167SAPE   H9Y18889   5.213   5.723   7.563  1.7982 -2.7542  0.3871
  167SAPE  C31018890   5.245   5.765   7.775 -0.0788  0.4388  0.1056
  167SAPE  H10X18891   5.154   5.829   7.770 -0.9275 -0.8231 -1.4305
  167SAPE  H10Y18892   5.321   5.808   7.845  0.4516  1.0111 -0.8034
  167SAPE  C31118893   5.187   5.629   7.826 -0.0294  0.5443 -0.4109
  167SAPE  H11X18894   5.114   5.587   7.754 -0.1806 -1.2555  0.7371
  167SAPE  H11Y18895   5.123   5.644   7.916 -0.4027 -1.8384 -0.2086
  167SAPE  C31218896   5.296   5.533   7.864 -0.3558  0.5441 -0.3097
  167SAPE  H12X18897   5.373   5.526   7.785  0.3267  0.3944  0.3509
  167SAPE  H12Y18898   5.242   5.437   7.878  0.0439  0.4488  0.7009
  167SAPE  C31318899   5.360   5.561   8.008 -0.1521 -0.4372  0.2818
  167SAPE  H13X18900   5.275   5.588   8.073  1.2257  2.0327  1.1818
  167SAPE  H13Y18901   5.413   5.656   7.987 -1.4228  0.1953 -0.1424
  167SAPE  C31418902   5.465   5.467   8.062 -0.7971  0.5802 -0.6293
  167SAPE  H14X18903   5.516   5.420   7.975 -0.3789 -1.4264  0.6119
  167SAPE  H14Y18904   5.414   5.385   8.118  0.5830  0.3131  0.2863
  167SAPE  C31518905   5.566   5.549   8.152  0.3137 -0.0679  0.0531
  167SAPE  H15X18906   5.505   5.611   8.221  0.4971  0.2541 -0.0686
  167SAPE  H15Y18907   5.637   5.619   8.102  1.6341 -0.7780  0.8705
  167SAPE  C31618908   5.667   5.462   8.238  0.0474  0.2538 -0.2529
  167SAPE  H16X18909   5.730   5.387   8.184  0.1026 -1.4928  2.0700
  167SAPE  H16Y18910   5.592   5.402   8.294  0.1738  0.4026  0.0781
  167SAPE  C31718911   5.763   5.535   8.332 -0.1748 -0.6897 -0.1150
  167SAPE  H17X18912   5.708   5.598   8.405  1.0943 -1.4619  1.5786
  167SAPE  H17Y18913   5.827   5.597   8.266 -0.9131  3.0308  2.3606
  167SAPE  C31818914   5.850   5.437   8.411 -0.0300  0.4674 -0.4807
  167SAPE  H18X18915   5.794   5.356   8.463 -1.8081  2.9040  1.6018
  167SAPE  H18Y18916   5.887   5.505   8.490 -0.1153  0.8430 -0.7601
  167SAPE  H18Z18917   5.930   5.394   8.347  0.1326 -0.9167  0.6097
  168SAPE     N18918   2.376   2.414   6.366 -0.0346 -0.0549 -0.1015
  168SAPE   HN118919   2.298   2.472   6.331  1.2173  0.9104 -1.4214
  168SAPE   HN218920   2.339   2.318   6.377 -1.5928  0.2227 -2.3302
  168SAPE   HN318921   2.388   2.438   6.467 -1.4937 -2.6463  0.7721
  168SAPE   C1218922   2.494   2.413   6.272  0.3690 -0.3425 -0.5496
  168SAPE  H12A18923   2.543   2.513   6.283 -2.3814  1.3200 -2.2574
  168SAPE  H12B18924   2.455   2.403   6.169 -0.1678  0.9435 -0.4990
  168SAPE   C1118925   2.586   2.287   6.299  0.3583 -0.3368 -0.2319
  168SAPE  H11A18926   2.678   2.302   6.239  0.8980 -0.1831  0.6071
  168SAPE  H11B18927   2.532   2.196   6.265 -0.5738  0.4483 -0.9175
  168SAPE     P18928   2.664   2.136   6.500 -0.2097  0.1986  0.1288
  168SAPE   O1318929   2.632   2.027   6.407 -0.1769 -0.1289  0.4048
  168SAPE   O1418930   2.801   2.142   6.547 -0.4725 -0.2426 -0.1735
  168SAPE   O1218931   2.621   2.275   6.438 -0.3388  0.1080 -0.2796
  168SAPE   O1118932   2.560   2.126   6.622  0.0868  0.3332 -0.3492
  168SAPE    C118933   2.514   2.234   6.706 -0.1693 -0.3631 -0.4452
  168SAPE    HA18934   2.547   2.331   6.663  1.9395 -0.7097  0.2653
  168SAPE    HB18935   2.403   2.240   6.703 -0.1376  0.0469 -3.0261
  168SAPE    C218936   2.567   2.231   6.852 -0.1224  0.4356  0.1297
  168SAPE    HS18937   2.678   2.229   6.844 -0.2648  0.2796 -2.8999
  168SAPE   O2118938   2.511   2.113   6.921 -0.4268 -0.2571 -0.2370
  168SAPE   C2118939   2.577   2.061   7.012 -0.2719  0.9845 -0.1327
  168SAPE   O2218940   2.690   2.095   7.046  0.3142  0.3768 -0.2683
  168SAPE   C2218941   2.498   1.935   7.075  0.0348 -0.0756 -0.7459
  168SAPE   H2R18942   2.395   1.962   7.105  0.4043 -0.6642  1.2032
  168SAPE   H2S18943   2.494   1.850   7.003 -1.6147 -0.3231 -0.3850
  168SAPE    C318944   2.528   2.367   6.925  0.1458  0.4743 -0.0818
  168SAPE    HX18945   2.428   2.402   6.893 -0.6400 -0.6965  0.9931
  168SAPE    HY18946   2.590   2.439   6.868  0.5274  0.1124 -0.1335
  168SAPE   O3118947   2.557   2.375   7.074 -0.1334  0.4504  0.1193
  168SAPE   C3118948   2.678   2.394   7.118  0.2254 -0.3329  0.2269
  168SAPE   O3218949   2.782   2.397   7.050  0.1334  0.6300  0.1150
  168SAPE   C3218950   2.668   2.418   7.273 -0.5635  0.0397 -0.3152
  168SAPE   H2X18951   2.565   2.394   7.307  0.1752  0.1958  2.2480
  168SAPE   H2Y18952   2.690   2.524   7.299 -0.7260 -0.1702  0.6942
  168SAPE   C2318953   2.580   1.889   7.198 -0.3239 -0.4628 -0.0419
  168SAPE   H3R18954   2.685   1.875   7.167 -0.5955 -3.7797  0.1950
  168SAPE   H3S18955   2.551   1.785   7.225  1.0241 -0.7805  0.2142
  168SAPE   C2418956   2.567   1.971   7.331 -0.1492 -0.3754 -0.2850
  168SAPE   H4R18957   2.464   1.949   7.366 -0.1954  2.8846  2.1032
  168SAPE   H4S18958   2.570   2.077   7.298 -0.5853 -1.1825 -3.2264
  168SAPE   C2518959   2.677   1.941   7.426  0.1570 -0.0800  0.5742
  168SAPE   H5R18960   2.780   1.958   7.391  0.8324 -1.3466  1.8659
  168SAPE   C2618961   2.672   1.872   7.546  0.1641 -0.3682 -0.2811
  168SAPE   H6R18962   2.763   1.869   7.607 -0.0481  1.3134  0.1571
  168SAPE   C2718963   2.551   1.822   7.613  0.4523 -0.4770 -0.0817
  168SAPE   H7R18964   2.458   1.857   7.564  0.8271  2.0976  0.8840
  168SAPE   H7S18965   2.538   1.868   7.713 -0.1050  1.1184 -0.8458
  168SAPE   C2818966   2.546   1.673   7.621  0.4703  0.4964 -0.3113
  168SAPE   H8R18967   2.545   1.636   7.518 -1.0178  0.9759 -0.4937
  168SAPE   C2918968   2.538   1.586   7.723 -0.5642  0.3524 -0.6065
  168SAPE   H9R18969   2.534   1.479   7.695  2.3295  0.1605 -0.5797
  168SAPE  C21018970   2.540   1.612   7.867 -0.2773  0.3882 -0.2377
  168SAPE  H10R18971   2.517   1.719   7.882  0.2826  0.2802  1.7368
  168SAPE  H10S18972   2.643   1.605   7.907 -0.4513  0.0269  0.1543
  168SAPE  C21118973   2.467   1.513   7.947 -0.1485 -0.4408  0.5781
  168SAPE  H11R18974   2.501   1.409   7.939  0.7837 -0.2337  1.5811
  168SAPE  C21218975   2.363   1.529   8.025  0.4171  0.2612  0.4136
  168SAPE  H12R18976   2.330   1.439   8.079  1.4210 -0.3589  0.0215
  168SAPE  C21318977   2.290   1.653   8.052  0.2337  0.1820 -0.3132
  168SAPE  H13R18978   2.369   1.731   8.058  0.3398  0.0199  0.5586
  168SAPE  H13S18979   2.229   1.649   8.145  0.1611  0.9511 -0.3253
  168SAPE  C21418980   2.203   1.694   7.935 -0.6113 -0.0740  0.3410
  168SAPE  H14R18981   2.235   1.667   7.833  0.6022  1.4428  0.2865
  168SAPE  C21518982   2.078   1.746   7.944 -0.4502  0.1437  0.4755
  168SAPE  H15R18983   2.024   1.764   7.849  1.5930  1.0384 -0.5853
  168SAPE  C21618984   2.006   1.800   8.062 -0.6990  0.6869 -0.1270
  168SAPE  H16R18985   1.943   1.885   8.029 -1.9098  0.9383  2.6207
  168SAPE  H16S18986   2.082   1.842   8.131  0.0924  0.2595 -0.7124
  168SAPE  C21718987   1.911   1.692   8.125  0.7506  0.0320  0.4666
  168SAPE  H17R18988   1.975   1.611   8.168 -2.5197 -2.3709  1.2396
  168SAPE  H17S18989   1.840   1.644   8.054 -1.0299 -0.0701  2.2515
  168SAPE  C21818990   1.839   1.751   8.248  0.5854  0.2037 -0.0953
  168SAPE  H18R18991   1.776   1.832   8.207  0.3735  0.8870  1.5202
  168SAPE  H18S18992   1.920   1.783   8.316  1.0691  0.1957 -0.6594
  168SAPE  C21918993   1.756   1.651   8.333 -0.0788  0.5713 -0.1548
  168SAPE  H19R18994   1.817   1.561   8.355  0.5612  1.4165  1.7394
  168SAPE  H19S18995   1.674   1.614   8.268  1.5535 -3.1071 -0.3387
  168SAPE  C22018996   1.687   1.702   8.459  0.4569 -0.4523  1.1104
  168SAPE  H20R18997   1.766   1.727   8.532  1.4535 -0.2153 -0.0077
  168SAPE  H20S18998   1.631   1.618   8.505  0.9339 -0.7375  1.1718
  168SAPE  H20T18999   1.613   1.780   8.428  0.8686  0.2722  1.9165
  168SAPE   C3319000   2.759   2.326   7.351 -0.5611 -0.0549 -0.2293
  168SAPE   H3X19001   2.866   2.351   7.332 -0.4009 -0.2010  0.4280
  168SAPE   H3Y19002   2.748   2.226   7.304 -2.2849  0.2131 -0.4608
  168SAPE   C3419003   2.722   2.314   7.502  0.4699 -0.3921  0.1481
  168SAPE   H4X19004   2.630   2.253   7.513  0.2551  0.2425  2.1732
  168SAPE   H4Y19005   2.699   2.410   7.552 -1.8021 -1.2324  0.8463
  168SAPE   C3519006   2.834   2.243   7.579  0.0385  0.3351  0.0585
  168SAPE   H5X19007   2.928   2.294   7.547 -0.0142  1.1091  1.0958
  168SAPE   H5Y19008   2.837   2.147   7.522  0.5637  1.0411 -1.1305
  168SAPE   C3619009   2.815   2.232   7.732  0.1253 -0.1934 -0.2060
  168SAPE   H6X19010   2.708   2.221   7.757 -0.8358  0.5933 -3.4993
  168SAPE   H6Y19011   2.858   2.327   7.773 -2.8764  0.8639  0.7260
  168SAPE   C3719012   2.886   2.102   7.792  0.2426  0.1158  0.1970
  168SAPE   H7X19013   2.996   2.109   7.782  0.1480 -0.0791 -1.1526
  168SAPE   H7Y19014   2.850   2.006   7.748 -0.7141  0.1106  0.9542
  168SAPE   C3819015   2.858   2.093   7.946  0.4387 -0.0237 -0.4522
  168SAPE   H8X19016   2.749   2.071   7.959  0.7555 -0.5447  1.7111
  168SAPE   H8Y19017   2.890   2.187   7.995  1.6725  0.2358 -1.7044
  168SAPE   C3919018   2.938   1.979   8.007  1.2100 -0.0556 -0.5411
  168SAPE   H9X19019   3.048   1.988   7.994  1.2983  0.3718  0.4187
  168SAPE   H9Y19020   2.908   1.883   7.960  2.6133 -0.9502  0.3317
  168SAPE  C31019021   2.910   1.955   8.150 -0.1581  0.1840 -0.7990
  168SAPE  H10X19022   2.961   1.858   8.172  0.3988  0.3882 -1.1760
  168SAPE  H10Y19023   2.802   1.941   8.172 -0.1275  1.9454  0.6275
  168SAPE  C31119024   2.956   2.065   8.254  0.1458 -0.5134 -0.2844
  168SAPE  H11X19025   2.891   2.155   8.252 -2.2082 -2.1135  0.2217
  168SAPE  H11Y19026   3.065   2.086   8.244  0.0040  2.4253  2.4836
  168SAPE  C31219027   2.959   2.026   8.403  0.5676 -0.4751 -0.5312
  168SAPE  H12X19028   2.968   2.117   8.465 -0.1340 -0.6639 -0.1336
  168SAPE  H12Y19029   3.043   1.959   8.432  0.6060  0.0197  0.5305
  168SAPE  C31319030   2.823   1.971   8.433 -0.2684  0.3837  0.0989
  168SAPE  H13X19031   2.817   1.871   8.384  0.6248 -0.0638  0.8720
  168SAPE  H13Y19032   2.736   2.030   8.398 -0.8990 -2.0674 -2.9568
  168SAPE  C31419033   2.815   1.937   8.585  0.2697 -0.3548 -0.4459
  168SAPE  H14X19034   2.864   2.017   8.645 -1.4910  0.3679  0.1131
  168SAPE  H14Y19035   2.876   1.851   8.619  0.0579  0.2110  1.4696
  168SAPE  C31519036   2.665   1.921   8.623 -0.3443 -0.2367  0.3336
  168SAPE  H15X19037   2.632   1.834   8.561  1.2734 -1.0999  0.6402
  168SAPE  H15Y19038   2.607   2.005   8.580 -0.7100 -0.2995  0.6945
  168SAPE  C31619039   2.623   1.907   8.772 -0.6631 -0.2380  0.0217
  168SAPE  H16X19040   2.683   1.989   8.817 -0.0105  0.1943 -1.5603
  168SAPE  H16Y19041   2.667   1.813   8.812  0.5794  0.5003  0.4721
  168SAPE  C31719042   2.474   1.939   8.794 -0.7769 -0.1831  0.5483
  168SAPE  H17X19043   2.412   1.876   8.726 -0.9379 -1.8298  2.1427
  168SAPE  H17Y19044   2.450   2.046   8.773  2.3100  0.7922  1.4759
  168SAPE  C31819045   2.424   1.903   8.936 -0.3800 -0.8031 -0.0847
  168SAPE  H18X19046   2.327   1.957   8.946 -0.0512 -0.3503  0.8088
  168SAPE  H18Y19047   2.488   1.959   9.008  0.2880 -0.5449 -0.8697
  168SAPE  H18Z19048   2.414   1.799   8.974 -1.0480 -0.7990 -0.2445
  169SAPE     N19049   4.941   2.564   6.217 -0.1692  0.1044  0.1920
  169SAPE   HN119050   5.006   2.638   6.250 -0.5686 -0.3297  2.0696
  169SAPE   HN219051   4.905   2.589   6.123 -2.2084 -1.8201  0.3846
  169SAPE   HN319052   4.859   2.562   6.281 -0.5573  0.0098 -0.3018
  169SAPE   C1219053   5.015   2.434   6.219  0.5336 -0.3789  0.0630
  169SAPE  H12A19054   5.094   2.440   6.142  1.3181  1.9552  0.9666
  169SAPE  H12B19055   4.938   2.359   6.189  0.2339 -0.0695  0.0522
  169SAPE   C1119056   5.079   2.399   6.349  0.0275 -0.4092  0.1381
  169SAPE  H11A19057   5.120   2.296   6.340  0.0564 -0.4482  0.6659
  169SAPE  H11B19058   4.998   2.394   6.426  1.0719  0.9275  1.3640
  169SAPE     P19059   5.174   2.599   6.495 -0.0522 -0.1747 -0.5298
  169SAPE   O1319060   5.310   2.644   6.536 -0.4413 -0.1414  0.9992
  169SAPE   O1419061   5.082   2.700   6.434 -0.1546 -0.4284 -0.6200
  169SAPE   O1219062   5.182   2.491   6.384 -0.3750  0.0021  0.3364
  169SAPE   O1119063   5.092   2.523   6.602 -0.5862  0.4686 -0.2089
  169SAPE    C119064   4.963   2.564   6.636 -0.2771  0.1564  0.0128
  169SAPE    HA19065   4.907   2.626   6.562 -0.9198  0.1525  0.4826
  169SAPE    HB19066   4.904   2.473   6.660  0.1050 -0.5518 -1.6417
  169SAPE    C219067   4.976   2.647   6.769  0.6972  0.5066  0.2296
  169SAPE    HS19068   5.012   2.747   6.737 -2.3166  1.9911  1.1649
  169SAPE   O2119069   5.064   2.577   6.862  0.0629 -0.4339  0.2020
  169SAPE   C2119070   5.177   2.644   6.898 -0.3278  0.1302  0.0586
  169SAPE   O2219071   5.217   2.743   6.846 -0.3849 -0.2782 -0.6525
  169SAPE   C2219072   5.243   2.575   7.017  0.4356 -0.1072 -0.2793
  169SAPE   H2R19073   5.173   2.496   7.052 -0.1575  0.0541 -1.0735
  169SAPE   H2S19074   5.338   2.530   6.981  0.0418 -1.2137  0.0138
  169SAPE    C319075   4.830   2.655   6.830  0.0372  0.0324 -0.0145
  169SAPE    HX19076   4.797   2.552   6.858  1.7370 -0.5601 -0.0768
  169SAPE    HY19077   4.754   2.686   6.755 -0.6974  2.7805  1.7246
  169SAPE   O3119078   4.832   2.739   6.946  0.2551  0.1665 -0.3811
  169SAPE   C3119079   4.826   2.870   6.927 -0.1363  0.3581  0.0651
  169SAPE   O3219080   4.823   2.927   6.819 -0.1452  0.4256 -0.3352
  169SAPE   C3219081   4.833   2.937   7.065 -0.4507 -0.0549 -0.1853
  169SAPE   H2X19082   4.724   2.940   7.085 -0.5725 -0.2544 -0.7994
  169SAPE   H2Y19083   4.877   3.036   7.041 -1.0713 -0.3204 -2.6725
  169SAPE   C2319084   5.255   2.674   7.134  1.0645 -0.3907  0.2640
  169SAPE   H3R19085   5.155   2.721   7.141  1.0568 -0.5477  1.3510
  169SAPE   H3S19086   5.318   2.759   7.101 -0.7411  0.6406 -0.6663
  169SAPE   C2419087   5.298   2.609   7.267  1.1121 -0.4546 -0.0658
  169SAPE   H4R19088   5.374   2.668   7.323  0.2610  0.9635 -0.3762
  169SAPE   H4S19089   5.350   2.514   7.242  0.9844 -0.2638 -1.0809
  169SAPE   C2519090   5.172   2.568   7.342  0.1090 -0.2399  0.5571
  169SAPE   H5R19091   5.082   2.536   7.287  0.5856 -2.7205  1.0996
  169SAPE   C2619092   5.145   2.576   7.475  0.7644  0.6212 -0.2776
  169SAPE   H6R19093   5.058   2.522   7.514  0.8353  0.3102 -0.5474
  169SAPE   C2719094   5.253   2.594   7.586  0.9580 -0.5704  0.6678
  169SAPE   H7R19095   5.228   2.687   7.641  0.7377  0.7251 -1.4983
  169SAPE   H7S19096   5.345   2.626   7.533  0.2013  0.5613 -0.0260
  169SAPE   C2819097   5.290   2.470   7.664 -0.0262 -0.2938  0.2900
  169SAPE   H8R19098   5.333   2.382   7.614 -2.0519 -0.4649 -1.2753
  169SAPE   C2919099   5.277   2.456   7.801 -0.0630  0.0200  0.2163
  169SAPE   H9R19100   5.309   2.369   7.859  2.4753  0.1664 -0.8422
  169SAPE  C21019101   5.217   2.562   7.888 -0.2834 -0.5621  0.1793
  169SAPE  H10R19102   5.159   2.636   7.829  0.5821  0.3313  0.4340
  169SAPE  H10S19103   5.302   2.615   7.936  0.1738 -0.9750 -0.1643
  169SAPE  C21119104   5.114   2.506   7.984  0.0175  0.4032 -0.6935
  169SAPE  H11R19105   5.014   2.496   7.941  0.8630 -2.7531 -2.2421
  169SAPE  C21219106   5.135   2.461   8.113  0.0507 -0.3395  0.1444
  169SAPE  H12R19107   5.041   2.425   8.157 -0.9816 -0.5420 -2.1105
  169SAPE  C21319108   5.259   2.444   8.191 -0.1462  0.2112  0.6839
  169SAPE  H13R19109   5.251   2.496   8.289 -0.9981  1.9526 -0.2504
  169SAPE  H13S19110   5.348   2.490   8.144  0.1912 -2.2380 -1.3074
  169SAPE  C21419111   5.292   2.297   8.220  0.8080  0.0635 -0.0169
  169SAPE  H14R19112   5.216   2.238   8.272  0.6806 -1.0372 -1.3724
  169SAPE  C21519113   5.384   2.217   8.159 -0.6586 -0.3991  0.7976
  169SAPE  H15R19114   5.379   2.112   8.190 -0.3919 -0.1092  1.8811
  169SAPE  C21619115   5.497   2.250   8.062 -0.3729  0.2650 -0.2921
  169SAPE  H16R19116   5.596   2.240   8.112  0.0829  0.9087 -1.0425
  169SAPE  H16S19117   5.487   2.353   8.021  2.0011  1.3095  1.5219
  169SAPE  C21719118   5.485   2.160   7.935 -0.0982 -0.2008 -0.4323
  169SAPE  H17R19119   5.390   2.183   7.882 -0.8366  1.2325  1.4095
  169SAPE  H17S19120   5.487   2.053   7.967 -1.5572  0.3802  1.8072
  169SAPE  C21819121   5.607   2.186   7.834 -0.1532 -0.3746 -0.1522
  169SAPE  H18R19122   5.702   2.181   7.892 -0.1357  1.7979  0.0891
  169SAPE  H18S19123   5.595   2.286   7.787 -1.9316 -1.4820 -2.2572
  169SAPE  C21919124   5.613   2.093   7.714 -0.8204  0.0120 -0.4643
  169SAPE  H19R19125   5.686   2.136   7.642  0.7726 -0.4952  0.8021
  169SAPE  H19S19126   5.510   2.087   7.672 -0.3824 -0.8760 -1.4569
  169SAPE  C22019127   5.656   1.949   7.740  0.1346 -0.2785 -0.4025
  169SAPE  H20R19128   5.767   1.941   7.748  0.0650 -0.3068  0.6707
  169SAPE  H20S19129   5.619   1.879   7.663  3.0678 -1.6418 -0.7097
  169SAPE  H20T19130   5.600   1.927   7.833  2.7773  0.9220  1.6028
  169SAPE   C3319131   4.900   2.866   7.186  0.5156 -0.0628 -0.3041
  169SAPE   H3X19132   5.005   2.844   7.157  1.1027 -0.0164  1.6426
  169SAPE   H3Y19133   4.847   2.772   7.214  0.3738 -0.3898 -1.6166
  169SAPE   C3419134   4.912   2.962   7.306 -0.1256  0.0796  0.2145
  169SAPE   H4X19135   4.816   3.013   7.326 -2.6844 -3.7643 -1.0860
  169SAPE   H4Y19136   4.982   3.043   7.278  1.2152 -0.3014  2.2702
  169SAPE   C3519137   4.962   2.902   7.433 -0.4528  0.0645  0.5380
  169SAPE   H5X19138   5.071   2.881   7.426 -0.9924 -3.7236  0.9711
  169SAPE   H5Y19139   4.925   2.798   7.447  0.5042 -0.2453  0.8569
  169SAPE   C3619140   4.944   2.983   7.562  0.5803 -1.1118 -0.0157
  169SAPE   H6X19141   4.843   3.029   7.570  1.5777  1.1503  0.4180
  169SAPE   H6Y19142   5.025   3.059   7.567 -1.2022  0.9655 -0.9290
  169SAPE   C3719143   4.970   2.897   7.685  0.2253  0.0675  0.1516
  169SAPE   H7X19144   5.065   2.847   7.656  0.4720  0.3464  0.4589
  169SAPE   H7Y19145   4.891   2.820   7.686 -0.2686  0.4479 -2.5254
  169SAPE   C3819146   4.983   2.963   7.824 -0.1840  0.1591 -0.3650
  169SAPE   H8X19147   4.893   3.022   7.853  0.4145 -0.4804  3.3592
  169SAPE   H8Y19148   5.071   3.029   7.839  0.7608 -1.0685 -0.3739
  169SAPE   C3919149   4.990   2.853   7.937 -0.1488  0.2156 -0.2027
  169SAPE   H9X19150   5.100   2.833   7.932  0.1722  1.6600  0.4505
  169SAPE   H9Y19151   4.925   2.768   7.908 -0.8283  0.5258  0.3852
  169SAPE  C31019152   4.953   2.902   8.079 -0.0052  0.2988  0.4673
  169SAPE  H10X19153   4.844   2.893   8.102  0.1293 -2.5154  0.4076
  169SAPE  H10Y19154   4.985   3.008   8.091 -1.6428  1.2508 -2.4654
  169SAPE  C31119155   5.026   2.815   8.184 -0.2444  0.0673  0.6280
  169SAPE  H11X19156   5.135   2.828   8.170 -0.6250  2.8189 -0.3671
  169SAPE  H11Y19157   5.008   2.710   8.153  0.3604 -0.5084  2.1007
  169SAPE  C31219158   4.987   2.845   8.332 -0.2303 -0.0826  0.7344
  169SAPE  H12X19159   4.878   2.831   8.348 -0.3476 -1.1413 -0.7480
  169SAPE  H12Y19160   4.997   2.954   8.347 -1.3573 -0.0591  1.4151
  169SAPE  C31319161   5.075   2.757   8.433  0.1007 -1.3037  0.0048
  169SAPE  H13X19162   5.185   2.768   8.415  0.4256 -2.3045  1.2551
  169SAPE  H13Y19163   5.048   2.652   8.409 -1.8522 -0.3107 -2.5907
  169SAPE  C31419164   5.047   2.793   8.580  0.5216 -0.8320  0.1612
  169SAPE  H14X19165   4.938   2.812   8.575  0.2751 -1.0301  3.0779
  169SAPE  H14Y19166   5.085   2.894   8.608 -0.5239 -0.4929  0.4024
  169SAPE  C31519167   5.085   2.674   8.677 -0.2893 -0.6522  0.3646
  169SAPE  H15X19168   5.192   2.656   8.655 -0.0670  1.9461 -1.1045
  169SAPE  H15Y19169   5.008   2.597   8.656 -1.3507  0.9576 -2.1521
  169SAPE  C31619170   5.080   2.721   8.825  0.3322  0.0056 -0.6570
  169SAPE  H16X19171   4.974   2.719   8.858  1.2779 -1.2851  2.7154
  169SAPE  H16Y19172   5.119   2.823   8.841  1.4453 -0.5055  0.0219
  169SAPE  C31719173   5.158   2.623   8.920 -0.1824 -0.2362 -0.5824
  169SAPE  H17X19174   5.257   2.589   8.883 -0.5810 -4.1757  1.3872
  169SAPE  H17Y19175   5.098   2.529   8.928  0.2062 -0.3287  3.9936
  169SAPE  C31819176   5.179   2.683   9.056  0.3293 -0.0084 -0.7047
  169SAPE  H18X19177   5.251   2.768   9.048 -0.4022  0.7196  0.3040
  169SAPE  H18Y19178   5.238   2.615   9.121  0.1357  0.5762  0.0955
  169SAPE  H18Z19179   5.083   2.708   9.106 -0.4209 -1.3463 -1.4170
  170SAPE     N19180   0.960   0.640   6.297  0.0341  0.0534  0.5269
  170SAPE   HN119181   1.058   0.663   6.273  0.3832  0.5047  2.2246
  170SAPE   HN219182   0.895   0.686   6.230  1.0868 -0.5213 -0.9459
  170SAPE   HN319183   0.945   0.688   6.388 -0.9764 -0.2314  0.5155
  170SAPE   C1219184   0.927   0.496   6.318  0.1258  0.1777 -0.1922
  170SAPE  H12A19185   0.827   0.492   6.365 -0.0184  0.5199 -0.4609
  170SAPE  H12B19186   1.004   0.469   6.393  1.5272  1.9082 -0.9294
  170SAPE   C1119187   0.936   0.417   6.196 -0.2302 -0.1499  1.0051
  170SAPE  H11A19188   0.866   0.466   6.125  1.7875  2.8425  0.8991
  170SAPE  H11B19189   0.903   0.312   6.214 -1.5863  0.1814  0.5671
  170SAPE     P19190   1.155   0.320   6.105 -0.2383  0.2643  0.0899
  170SAPE   O1319191   1.106   0.222   6.005  0.2718 -0.1430  0.8001
  170SAPE   O1419192   1.289   0.382   6.080  0.4707 -0.6150 -0.2262
  170SAPE   O1219193   1.056   0.440   6.126  0.5122  0.4248  0.4337
  170SAPE   O1119194   1.162   0.251   6.240  0.3897 -0.2707 -0.1403
  170SAPE    C119195   1.243   0.298   6.349  0.3411 -0.2281  0.0001
  170SAPE    HA19196   1.338   0.344   6.314 -1.4485  2.3834 -1.8063
  170SAPE    HB19197   1.187   0.374   6.407  0.8370 -1.6078  2.4404
  170SAPE    C219198   1.272   0.176   6.442  0.1847  0.5048  0.2493
  170SAPE    HS19199   1.312   0.097   6.375  0.0760  1.6856 -1.2557
  170SAPE   O2119200   1.161   0.131   6.528 -0.1281  0.1818  0.6326
  170SAPE   C2119201   1.162  -0.003   6.554 -0.1846 -0.1191  0.6382
  170SAPE   O2219202   1.231  -0.082   6.495 -0.1563  0.2458  0.4717
  170SAPE   C2219203   1.080  -0.034   6.675  0.4253  0.0221  0.3724
  170SAPE   H2R19204   1.143   0.004   6.758 -0.5782  0.9032  0.7527
  170SAPE   H2S19205   0.986   0.026   6.673  0.3129 -0.1578 -0.7723
  170SAPE    C319206   1.388   0.211   6.543 -0.2919  0.4247 -0.0987
  170SAPE    HX19207   1.354   0.304   6.595 -0.7990  1.4665 -2.1810
  170SAPE    HY19208   1.480   0.239   6.488 -1.9985  2.3153 -2.2112
  170SAPE   O3119209   1.419   0.101   6.634 -0.6899  0.5679  0.1103
  170SAPE   C3119210   1.524   0.026   6.608 -0.2222 -0.1083 -0.3108
  170SAPE   O3219211   1.588   0.030   6.508 -0.5082  0.3661  0.6392
  170SAPE   C3219212   1.544  -0.079   6.719  0.8795  0.7546  0.0947
  170SAPE   H2X19213   1.647  -0.117   6.702  0.3282 -1.6774  1.6407
  170SAPE   H2Y19214   1.473  -0.161   6.695  0.0323  0.8579  2.0447
  170SAPE   C2319215   1.058  -0.181   6.681 -0.1773  0.5811  0.7232
  170SAPE   H3R19216   1.028  -0.218   6.581  0.9881  0.5316  0.3826
  170SAPE   H3S19217   0.966  -0.207   6.738 -0.9280 -0.7347 -1.0012
  170SAPE   C2419218   1.178  -0.254   6.745  0.4379  0.1301 -0.1345
  170SAPE   H4R19219   1.248  -0.182   6.793  0.0057  2.0516 -2.2203
  170SAPE   H4S19220   1.242  -0.295   6.664 -0.3753 -0.0042 -0.7191
  170SAPE   C2519221   1.134  -0.365   6.845  0.3981  0.8802 -0.2643
  170SAPE   H5R19222   1.115  -0.456   6.786  1.1253  1.7346 -1.8772
  170SAPE   C2619223   1.108  -0.360   6.977 -0.2615  0.2226  0.2564
  170SAPE   H6R19224   1.069  -0.454   7.019 -0.6568 -0.0247 -0.6393
  170SAPE   C2719225   1.135  -0.246   7.070 -0.5801  0.2329  0.3722
  170SAPE   H7R19226   1.145  -0.148   7.019  2.0847 -0.9484 -1.6672
  170SAPE   H7S19227   1.229  -0.272   7.123 -0.2736  1.5062  0.4995
  170SAPE   C2819228   1.012  -0.235   7.149 -0.2497  1.4950  0.5128
  170SAPE   H8R19229   0.928  -0.183   7.099 -2.4475 -1.6906  0.6280
  170SAPE   C2919230   0.998  -0.269   7.278 -0.4940  0.3533 -0.1390
  170SAPE   H9R19231   0.902  -0.251   7.329 -0.8639 -2.7400  0.4415
  170SAPE  C21019232   1.107  -0.322   7.369  0.3037  0.6732  0.3677
  170SAPE  H10R19233   1.102  -0.261   7.461  2.7214  1.1878  0.2163
  170SAPE  H10S19234   1.211  -0.302   7.336 -0.4224 -1.5509 -4.0383
  170SAPE  C21119235   1.100  -0.472   7.397  0.0367 -0.2457  0.0988
  170SAPE  H11R19236   1.139  -0.545   7.324  0.9224 -1.1275  1.4040
  170SAPE  C21219237   1.069  -0.527   7.516 -0.0409  0.2613  0.2792
  170SAPE  H12R19238   1.085  -0.636   7.521  2.2494  0.5798  0.8531
  170SAPE  C21319239   1.025  -0.449   7.643  0.0536  0.0854  0.0465
  170SAPE  H13R19240   0.925  -0.407   7.619  0.0939 -0.8903 -2.0650
  170SAPE  H13S19241   1.098  -0.369   7.666 -1.3832  1.6572 -0.6095
  170SAPE  C21419242   1.021  -0.544   7.761 -0.5586 -0.3061  0.0928
  170SAPE  H14R19243   1.044  -0.650   7.742 -2.9267 -0.9352  0.3306
  170SAPE  C21519244   0.995  -0.519   7.890 -0.3604  0.6784  0.3191
  170SAPE  H15R19245   0.981  -0.596   7.966 -1.7589  1.1720  0.6115
  170SAPE  C21619246   0.965  -0.383   7.941  0.2447  0.8923  0.0189
  170SAPE  H16R19247   0.857  -0.381   7.968 -0.1540 -1.1818 -1.2475
  170SAPE  H16S19248   0.961  -0.310   7.857 -0.8209 -1.1971 -1.8618
  170SAPE  C21719249   1.049  -0.342   8.065  0.4334 -0.6175 -0.6796
  170SAPE  H17R19250   1.024  -0.234   8.068 -0.6696 -0.8943  1.8942
  170SAPE  H17S19251   1.159  -0.349   8.052  0.5646  0.7863 -0.4575
  170SAPE  C21819252   1.003  -0.424   8.189 -0.1090 -0.2403  0.1413
  170SAPE  H18R19253   1.042  -0.526   8.167  1.0687 -0.5346  3.0401
  170SAPE  H18S19254   0.894  -0.435   8.207  0.1238  0.3652  2.1932
  170SAPE  C21919255   1.059  -0.375   8.326  0.4686  0.1034  0.6428
  170SAPE  H19R19256   1.169  -0.389   8.338  0.8196  0.4302 -1.6916
  170SAPE  H19S19257   1.010  -0.441   8.400 -3.2305  1.0455 -0.7773
  170SAPE  C22019258   1.009  -0.236   8.362  0.6985  0.1076  0.4788
  170SAPE  H20R19259   1.017  -0.164   8.278 -1.4941  0.4267  0.4929
  170SAPE  H20S19260   1.077  -0.203   8.443  2.0962 -3.4256  0.9244
  170SAPE  H20T19261   0.903  -0.240   8.395  0.3839 -1.1472 -0.6170
  170SAPE   C3319262   1.521  -0.033   6.867 -0.0889  0.0567 -0.0865
  170SAPE   H3X19263   1.420   0.011   6.877  0.4882  1.5737 -0.7079
  170SAPE   H3Y19264   1.589   0.051   6.891 -1.5190  1.0343  0.6815
  170SAPE   C3419265   1.532  -0.154   6.956  0.3926 -0.3420 -0.0914
  170SAPE   H4X19266   1.625  -0.211   6.934  1.5973  1.6957 -0.6168
  170SAPE   H4Y19267   1.448  -0.224   6.941  1.1302 -1.0905 -0.8683
  170SAPE   C3519268   1.542  -0.102   7.103  0.1859 -0.2207 -0.1692
  170SAPE   H5X19269   1.455  -0.035   7.122  1.5143  1.1922  1.2229
  170SAPE   H5Y19270   1.631  -0.037   7.117 -0.3901  1.1221 -2.2240
  170SAPE   C3619271   1.558  -0.212   7.211  1.2243 -0.1274  0.4247
  170SAPE   H6X19272   1.661  -0.252   7.220  1.1474 -0.0866  1.8617
  170SAPE   H6Y19273   1.493  -0.297   7.180 -0.3196  1.3282 -0.5182
  170SAPE   C3719274   1.512  -0.151   7.349 -0.6337 -0.0396  0.2081
  170SAPE   H7X19275   1.403  -0.136   7.331 -0.8921 -1.4594  0.4444
  170SAPE   H7Y19276   1.574  -0.062   7.371 -0.7384 -0.0519  0.5551
  170SAPE   C3819277   1.526  -0.239   7.468 -0.2986  0.5971  0.7412
  170SAPE   H8X19278   1.633  -0.268   7.471 -0.1062  1.0429 -0.9175
  170SAPE   H8Y19279   1.465  -0.328   7.440  1.9099 -0.1033 -2.3945
  170SAPE   C3919280   1.502  -0.175   7.607  0.0205 -0.0433  0.7001
  170SAPE   H9X19281   1.397  -0.140   7.616  0.1748  0.0861  2.3053
  170SAPE   H9Y19282   1.560  -0.081   7.613 -1.5161  0.9765  0.1955
  170SAPE  C31019283   1.519  -0.271   7.722 -0.9114  0.0284  0.0241
  170SAPE  H10X19284   1.627  -0.295   7.726 -0.9506 -0.1082  0.2651
  170SAPE  H10Y19285   1.472  -0.371   7.731  0.6215 -0.8303 -1.0084
  170SAPE  C31119286   1.485  -0.183   7.847  0.3563  0.4334  0.0850
  170SAPE  H11X19287   1.393  -0.126   7.826  1.5032  2.2458 -0.1650
  170SAPE  H11Y19288   1.562  -0.104   7.859 -0.0966  0.7543  0.9610
  170SAPE  C31219289   1.472  -0.260   7.979  0.4638 -0.1950 -0.1990
  170SAPE  H12X19290   1.563  -0.322   7.990  0.2216 -0.5296 -0.0465
  170SAPE  H12Y19291   1.384  -0.328   7.977  0.0921  0.2561  0.2812
  170SAPE  C31319292   1.459  -0.159   8.093  0.5211  0.1962  0.1127
  170SAPE  H13X19293   1.370  -0.094   8.080 -0.1474 -0.9449 -1.2277
  170SAPE  H13Y19294   1.550  -0.096   8.106  1.2029 -1.0898  2.3262
  170SAPE  C31419295   1.442  -0.215   8.235  0.1434 -0.2393 -0.2316
  170SAPE  H14X19296   1.529  -0.284   8.244  0.6325  0.2108 -1.2951
  170SAPE  H14Y19297   1.355  -0.282   8.248  1.3398 -1.7060  0.6725
  170SAPE  C31519298   1.439  -0.104   8.338  0.1336  0.6224 -0.4813
  170SAPE  H15X19299   1.362  -0.030   8.307 -0.5531 -0.3804 -1.2727
  170SAPE  H15Y19300   1.539  -0.058   8.323 -0.2305  1.7205  0.2903
  170SAPE  C31619301   1.425  -0.164   8.481  0.6783  0.8884  0.2804
  170SAPE  H16X19302   1.502  -0.243   8.490 -0.5005 -0.2397  0.6059
  170SAPE  H16Y19303   1.329  -0.217   8.492  0.3124  1.3920 -0.4007
  170SAPE  C31719304   1.442  -0.060   8.596  0.0508  0.2760 -0.1465
  170SAPE  H17X19305   1.541  -0.009   8.590  0.9520 -1.5310 -1.5974
  170SAPE  H17Y19306   1.442  -0.104   8.698 -2.2096  1.0481  0.2411
  170SAPE  C31819307   1.329   0.047   8.606 -0.3970 -0.5136  0.4070
  170SAPE  H18X19308   1.324   0.094   8.505 -0.4950 -0.2322  0.5397
  170SAPE  H18Y19309   1.363   0.116   8.686  1.4975 -0.5902 -0.2839
  170SAPE  H18Z19310   1.237  -0.008   8.633 -2.3946  1.6243 -1.6554
  171SAPE     N19311   2.576   1.132   6.286  0.4188 -0.6475  0.1985
  171SAPE   HN119312   2.601   1.050   6.346  0.0561 -0.6380  0.3601
  171SAPE   HN219313   2.632   1.121   6.199 -0.2603  0.7207 -0.4268
  171SAPE   HN319314   2.607   1.220   6.330 -1.4679  1.0486 -1.6736
  171SAPE   C1219315   2.425   1.143   6.279  0.1999  0.6697 -0.0687
  171SAPE  H12A19316   2.398   1.214   6.199 -1.2816  0.0519 -0.1398
  171SAPE  H12B19317   2.376   1.173   6.374 -1.6173 -0.1586 -0.7099
  171SAPE   C1119318   2.362   1.002   6.241 -0.4951 -0.7338  0.9247
  171SAPE  H11A19319   2.393   0.976   6.138 -1.4839  2.6258 -0.3636
  171SAPE  H11B19320   2.253   1.023   6.240 -0.3089  0.4076 -1.1939
  171SAPE     P19321   2.326   0.776   6.381  0.2656 -0.4053 -0.0869
  171SAPE   O1319322   2.232   0.736   6.274  0.2973 -0.3928  0.1085
  171SAPE   O1419323   2.430   0.678   6.420 -0.0085 -0.0927 -0.5685
  171SAPE   O1219324   2.396   0.904   6.331 -0.1000 -0.6326 -0.1122
  171SAPE   O1119325   2.240   0.806   6.509  0.0001 -0.3374  0.4069
  171SAPE    C119326   2.234   0.936   6.571 -0.5898  0.2706  0.2259
  171SAPE    HA19327   2.222   1.015   6.493  0.2992 -0.7747 -1.0156
  171SAPE    HB19328   2.150   0.945   6.642  1.0909 -0.3406  2.3878
  171SAPE    C219329   2.370   0.961   6.647  0.5827 -0.2354 -1.2534
  171SAPE    HS19330   2.453   0.979   6.575  0.7829  0.1193 -0.9376
  171SAPE   O2119331   2.389   0.851   6.732  0.0030 -0.1890  0.0228
  171SAPE   C2119332   2.508   0.802   6.751 -0.6566 -0.4401  0.0572
  171SAPE   O2219333   2.610   0.837   6.686 -0.8901 -0.2269 -0.1972
  171SAPE   C2219334   2.518   0.686   6.856  0.8082  0.4368  0.4631
  171SAPE   H2R19335   2.413   0.667   6.888  0.5939 -0.2247 -0.5540
  171SAPE   H2S19336   2.560   0.591   6.815 -2.7132 -1.4429  0.7753
  171SAPE    C319337   2.378   1.089   6.730  0.6818 -1.1514 -0.2103
  171SAPE    HX19338   2.290   1.079   6.797  0.3018 -1.5917 -0.7643
  171SAPE    HY19339   2.362   1.183   6.674 -1.9001  0.5120  2.9363
  171SAPE   O3119340   2.497   1.092   6.801  0.4965  0.7310 -0.8971
  171SAPE   C3119341   2.610   1.130   6.745  0.5840 -0.7952  0.2342
  171SAPE   O3219342   2.626   1.144   6.624  0.2379  0.1901 -0.9627
  171SAPE   C3219343   2.717   1.165   6.844  0.4773 -0.4858 -0.5097
  171SAPE   H2X19344   2.704   1.269   6.882 -2.5141 -0.7443 -0.5408
  171SAPE   H2Y19345   2.810   1.177   6.785  0.8173 -0.1265  0.0855
  171SAPE   C2319346   2.593   0.731   6.985  0.0662  0.1918  0.1157
  171SAPE   H3R19347   2.584   0.838   7.016 -1.0583 -0.5863  2.7722
  171SAPE   H3S19348   2.699   0.711   6.962 -0.7060 -0.6759 -3.1828
  171SAPE   C2419349   2.561   0.638   7.102 -0.0152 -0.1908  0.1648
  171SAPE   H4R19350   2.563   0.538   7.055 -0.4355 -0.1716  0.0990
  171SAPE   H4S19351   2.456   0.646   7.137  0.1461 -2.0007  1.1766
  171SAPE   C2519352   2.659   0.656   7.213 -0.0032 -0.0543  0.1044
  171SAPE   H5R19353   2.652   0.757   7.256 -0.7531  0.3935 -1.0037
  171SAPE   C2619354   2.751   0.566   7.247 -0.0777 -0.0057  0.2016
  171SAPE   H6R19355   2.828   0.591   7.321  0.9186 -0.1107 -0.7731
  171SAPE   C2719356   2.756   0.429   7.187  0.0180  0.4121 -0.3228
  171SAPE   H7R19357   2.720   0.421   7.082 -0.6127 -2.6679  0.0167
  171SAPE   H7S19358   2.691   0.360   7.244 -1.6399 -2.0839 -4.7139
  171SAPE   C2819359   2.894   0.373   7.182  0.0431  0.6245 -0.4812
  171SAPE   H8R19360   2.946   0.364   7.085  3.2670 -0.3119  1.1879
  171SAPE   C2919361   2.973   0.332   7.292 -0.1044 -0.1287 -0.1953
  171SAPE   H9R19362   3.065   0.276   7.270  0.4939  1.0568 -0.8067
  171SAPE  C21019363   2.933   0.328   7.434  0.5970 -0.7707  0.2313
  171SAPE  H10R19364   2.934   0.224   7.471  1.1200 -0.9615 -0.3170
  171SAPE  H10S19365   2.824   0.350   7.437  0.5843 -0.8214  0.1322
  171SAPE  C21119366   2.997   0.423   7.533 -0.4519  0.4734 -0.0077
  171SAPE  H11R19367   3.104   0.429   7.510 -0.3335  0.1430  0.4457
  171SAPE  C21219368   2.935   0.496   7.632 -0.0789  0.3609 -0.2412
  171SAPE  H12R19369   3.001   0.534   7.711  1.2680  1.2304 -1.7186
  171SAPE  C21319370   2.790   0.499   7.662 -0.5063 -0.2694  0.5076
  171SAPE  H13R19371   2.747   0.398   7.682 -1.3799  0.2000  1.0161
  171SAPE  H13S19372   2.732   0.526   7.572  0.2252 -0.6619 -0.0985
  171SAPE  C21419373   2.756   0.590   7.772 -0.2142 -0.6338 -0.6486
  171SAPE  H14R19374   2.789   0.550   7.869  3.1925 -0.2574 -1.5269
  171SAPE  C21519375   2.717   0.724   7.766  0.0803 -0.1649 -0.0998
  171SAPE  H15R19376   2.693   0.782   7.856  2.3291  2.0893 -0.8381
  171SAPE  C21619377   2.699   0.793   7.634  0.2626 -1.5118 -0.6967
  171SAPE  H16R19378   2.787   0.794   7.565 -0.5491 -1.1276 -1.7600
  171SAPE  H16S19379   2.689   0.900   7.663  2.1452 -1.0304 -1.6637
  171SAPE  C21719380   2.569   0.763   7.566  0.4078 -0.5423 -0.2656
  171SAPE  H17R19381   2.481   0.729   7.625 -0.2318  1.7143  0.1632
  171SAPE  H17S19382   2.586   0.686   7.487 -1.9577 -4.2704  2.5196
  171SAPE  C21819383   2.512   0.879   7.495 -0.6931 -0.6102  0.5919
  171SAPE  H18R19384   2.583   0.933   7.429 -0.7771  0.0244  1.0127
  171SAPE  H18S19385   2.490   0.958   7.570  0.1548 -0.0497  0.2585
  171SAPE  C21919386   2.381   0.852   7.414 -0.8673 -0.3569  0.0836
  171SAPE  H19R19387   2.290   0.835   7.475 -1.1202 -1.2043 -0.5162
  171SAPE  H19S19388   2.389   0.753   7.365 -0.2389  0.1772 -0.9521
  171SAPE  C22019389   2.347   0.960   7.311 -0.2242  0.4700  0.5536
  171SAPE  H20R19390   2.255   0.930   7.258  2.5124 -3.8878 -2.3627
  171SAPE  H20S19391   2.431   0.951   7.238 -1.1938 -0.6915 -0.4653
  171SAPE  H20T19392   2.344   1.061   7.356  1.0729  0.2729  1.1333
  171SAPE   C3319393   2.737   1.059   6.954  0.4713  0.0300  0.0345
  171SAPE   H3X19394   2.742   0.960   6.905  2.8453  0.1951 -0.1579
  171SAPE   H3Y19395   2.651   1.054   7.024  0.9085 -1.1651  0.5159
  171SAPE   C3419396   2.852   1.084   7.043  0.0523  0.0796  0.3504
  171SAPE   H4X19397   2.830   1.178   7.098  1.8543  0.8461 -0.1314
  171SAPE   H4Y19398   2.944   1.113   6.987 -1.6414  2.0664 -1.6001
  171SAPE   C3519399   2.878   0.962   7.133 -0.6596  0.2815 -0.0705
  171SAPE   H5X19400   2.901   0.876   7.067 -4.0990 -1.1706  0.4281
  171SAPE   H5Y19401   2.787   0.934   7.190  0.0358  1.0781  1.4948
  171SAPE   C3619402   2.984   1.006   7.238 -0.3008 -0.0194  0.1623
  171SAPE   H6X19403   2.939   1.101   7.276 -0.6409  0.1822 -0.7288
  171SAPE   H6Y19404   3.079   1.023   7.184 -1.0596  1.5513 -0.7586
  171SAPE   C3719405   2.995   0.908   7.354 -0.3085 -0.5946  0.1314
  171SAPE   H7X19406   3.041   0.816   7.312  0.0593 -1.2968  1.9659
  171SAPE   H7Y19407   2.895   0.896   7.401 -1.1291  0.8843 -1.1325
  171SAPE   C3819408   3.088   0.964   7.463  0.2207  0.5160 -0.5305
  171SAPE   H8X19409   3.043   1.059   7.499 -0.3637  0.5058 -1.2135
  171SAPE   H8Y19410   3.193   0.979   7.428  1.3973 -4.1237  0.3664
  171SAPE   C3919411   3.091   0.877   7.585  0.1373  0.5614  0.4016
  171SAPE   H9X19412   3.123   0.773   7.560  1.5474  1.3072 -1.0992
  171SAPE   H9Y19413   2.984   0.877   7.614 -0.0025  0.4752 -0.1175
  171SAPE  C31019414   3.179   0.931   7.698 -0.0152 -0.2198  0.8270
  171SAPE  H10X19415   3.158   1.040   7.699 -1.0783 -0.3002 -2.1111
  171SAPE  H10Y19416   3.285   0.910   7.672 -0.3724  0.5923 -1.4780
  171SAPE  C31119417   3.144   0.875   7.837  0.2639  0.2518  0.5097
  171SAPE  H11X19418   3.035   0.878   7.858  0.2105 -0.9252  0.4474
  171SAPE  H11Y19419   3.188   0.947   7.910  1.4339  1.4226 -1.2717
  171SAPE  C31219420   3.188   0.729   7.854  0.6623 -0.2934  0.2960
  171SAPE  H12X19421   3.294   0.738   7.886  0.6231 -0.0099  0.3484
  171SAPE  H12Y19422   3.196   0.684   7.753  0.9278  1.1760 -0.3563
  171SAPE  C31319423   3.101   0.662   7.959 -0.0721  0.1197  0.8721
  171SAPE  H13X19424   3.057   0.570   7.916 -1.0457  0.2645  1.5322
  171SAPE  H13Y19425   3.010   0.723   7.977  0.6853  1.0743  1.5642
  171SAPE  C31419426   3.157   0.656   8.101 -0.4964  0.0268 -0.1935
  171SAPE  H14X19427   3.194   0.757   8.126 -0.8470  0.1530 -0.1850
  171SAPE  H14Y19428   3.242   0.584   8.112 -1.2837 -0.6157  2.1433
  171SAPE  C31519429   3.057   0.623   8.218 -0.2965  0.1981  0.7175
  171SAPE  H15X19430   3.004   0.528   8.199  0.4760  0.0010 -0.4967
  171SAPE  H15Y19431   2.974   0.696   8.232  0.7151  1.1451  2.0674
  171SAPE  C31619432   3.147   0.603   8.348  0.0593  0.3446  0.1832
  171SAPE  H16X19433   3.194   0.702   8.364  0.0028  0.1478  1.6778
  171SAPE  H16Y19434   3.234   0.536   8.329 -0.8659 -0.1732 -2.7927
  171SAPE  C31719435   3.068   0.569   8.477  0.4107 -0.2386  0.0416
  171SAPE  H17X19436   3.020   0.468   8.472 -2.4770  0.9189  1.5977
  171SAPE  H17Y19437   2.986   0.641   8.501  0.1150 -0.7914  0.7465
  171SAPE  C31819438   3.148   0.557   8.602  0.2046 -0.4212 -0.0872
  171SAPE  H18X19439   3.203   0.460   8.601 -0.5448 -0.9151  1.7896
  171SAPE  H18Y19440   3.086   0.552   8.694  0.1618 -1.1242 -0.1463
  171SAPE  H18Z19441   3.221   0.640   8.615  1.1884 -1.3150  0.2504
  172SAPE     N19442   0.184   6.093   6.424  0.0228  0.0293  0.3782
  172SAPE   HN119443   0.161   6.194   6.426 -0.9789 -0.1726 -0.0829
  172SAPE   HN219444   0.223   6.075   6.329 -1.9046  2.6937 -1.0347
  172SAPE   HN319445   0.102   6.032   6.444 -1.1010  0.8664 -1.4991
  172SAPE   C1219446   0.285   6.061   6.532  0.1335  0.1604 -0.1952
  172SAPE  H12A19447   0.327   5.965   6.494 -0.4107  0.4947 -1.7550
  172SAPE  H12B19448   0.232   6.049   6.628 -0.9790 -0.2681 -0.8387
  172SAPE   C1119449   0.396   6.167   6.550 -0.0464  0.3097  0.2162
  172SAPE  H11A19450   0.447   6.138   6.645 -2.5064 -1.5310  1.0677
  172SAPE  H11B19451   0.347   6.266   6.565  0.7183  0.3278  3.4141
  172SAPE     P19452   0.604   6.058   6.432  0.5188  0.0065 -0.1837
  172SAPE   O1319453   0.555   5.938   6.358  0.0722 -0.1642  0.0234
  172SAPE   O1419454   0.704   6.141   6.369 -0.0342  0.1179  0.4004
  172SAPE   O1219455   0.487   6.157   6.444  0.1878 -0.1559  0.5722
  172SAPE   O1119456   0.645   6.031   6.580  0.3913  0.1040 -0.3634
  172SAPE    C119457   0.762   6.075   6.638 -0.1772 -0.0520  0.1784
  172SAPE    HA19458   0.839   5.997   6.620 -0.7841 -0.6681  0.2269
  172SAPE    HB19459   0.788   6.171   6.588 -0.4271 -0.0111  0.1256
  172SAPE    C219460   0.756   6.109   6.792  0.3714 -0.5017 -1.1145
  172SAPE    HS19461   0.858   6.138   6.824 -0.7768  1.2817  1.2656
  172SAPE   O2119462   0.715   5.994   6.864 -0.3501  0.5571  0.0308
  172SAPE   C2119463   0.813   5.897   6.861  0.6379 -0.2371 -0.6899
  172SAPE   O2219464   0.920   5.903   6.801  0.4966  0.3938  0.2185
  172SAPE   C2219465   0.765   5.783   6.948  0.4020 -0.9566 -0.3644
  172SAPE   H2R19466   0.679   5.725   6.908  0.7539 -2.0060  0.3507
  172SAPE   H2S19467   0.849   5.711   6.951  1.1473 -0.1088 -0.2589
  172SAPE    C319468   0.669   6.236   6.820 -0.1032 -0.4256  0.7808
  172SAPE    HX19469   0.562   6.213   6.800 -0.0372  1.3560 -2.2233
  172SAPE    HY19470   0.704   6.308   6.743  2.8252 -2.1107  0.4126
  172SAPE   O3119471   0.687   6.282   6.946  0.0812  0.3535 -0.2969
  172SAPE   C3119472   0.616   6.214   7.034  0.0398 -0.0454  0.0759
  172SAPE   O3219473   0.517   6.142   7.017 -0.0116 -0.5910  0.0212
  172SAPE   C3219474   0.691   6.225   7.171  0.8729  0.2469 -0.1162
  172SAPE   H2X19475   0.714   6.333   7.183 -0.0878  0.4564 -0.0181
  172SAPE   H2Y19476   0.783   6.163   7.171  0.2445 -0.7121 -0.4977
  172SAPE   C2319477   0.721   5.812   7.094  0.7487  0.2839 -0.5723
  172SAPE   H3R19478   0.663   5.723   7.127 -3.0578  1.7409 -2.6333
  172SAPE   H3S19479   0.650   5.898   7.096 -0.0583 -0.3196  2.2786
  172SAPE   C2419480   0.829   5.852   7.189 -0.2053  0.1121 -0.3840
  172SAPE   H4R19481   0.785   5.910   7.273  2.7942  3.7769 -1.0246
  172SAPE   H4S19482   0.898   5.924   7.140  1.6283 -0.4022  1.3413
  172SAPE   C2519483   0.907   5.730   7.232  0.6470 -0.6062 -0.4662
  172SAPE   H5R19484   0.958   5.681   7.148 -1.2145  0.1361 -2.0928
  172SAPE   C2619485   0.903   5.681   7.358 -0.0740 -0.6382  0.7913
  172SAPE   H6R19486   0.958   5.586   7.372 -1.2373 -1.6443 -0.9968
  172SAPE   C2719487   0.824   5.732   7.481 -0.6118 -0.4552  0.8900
  172SAPE   H7R19488   0.821   5.650   7.556  1.9940 -0.8062  0.7032
  172SAPE   H7S19489   0.721   5.750   7.443  0.3650  2.0929 -0.7837
  172SAPE   C2819490   0.874   5.858   7.549 -0.7196  0.4691  1.0210
  172SAPE   H8R19491   0.926   5.931   7.485 -0.9771 -0.3775 -0.1946
  172SAPE   C2919492   0.867   5.890   7.682 -0.5973  0.4715  0.0563
  172SAPE   H9R19493   0.904   5.990   7.711 -1.5784  1.2544 -1.3197
  172SAPE  C21019494   0.794   5.800   7.781  0.9756 -0.1005  0.2693
  172SAPE  H10R19495   0.863   5.725   7.825  0.3122 -0.4739  0.6957
  172SAPE  H10S19496   0.717   5.735   7.735 -1.1096  0.1593  3.1342
  172SAPE  C21119497   0.720   5.881   7.882  0.1758 -0.3986  0.0350
  172SAPE  H11R19498   0.620   5.911   7.849 -1.0763 -3.5683  0.6492
  172SAPE  C21219499   0.761   5.916   8.005 -0.2026  1.2323 -0.0694
  172SAPE  H12R19500   0.701   5.991   8.059  0.2729  1.3089  0.3516
  172SAPE  C21319501   0.897   5.887   8.063  0.7217 -1.1225 -1.1570
  172SAPE  H13R19502   0.978   5.941   8.010  0.0617 -1.7578 -2.8664
  172SAPE  H13S19503   0.913   5.780   8.036  3.8664 -1.2875  0.7961
  172SAPE  C21419504   0.899   5.926   8.212  0.0346  0.5581 -0.0771
  172SAPE  H14R19505   0.965   6.012   8.228  1.4299 -0.1641 -1.7208
  172SAPE  C21519506   0.842   5.867   8.315 -0.2287 -0.4561  0.0368
  172SAPE  H15R19507   0.856   5.910   8.415 -1.0850 -0.5041  0.1835
  172SAPE  C21619508   0.751   5.750   8.306  0.1041  0.4849 -0.2345
  172SAPE  H16R19509   0.765   5.683   8.393 -3.3316  0.2564  0.2746
  172SAPE  H16S19510   0.766   5.683   8.219 -2.4651 -0.2658 -0.1558
  172SAPE  C21719511   0.607   5.800   8.311  0.6899 -0.1857 -0.6621
  172SAPE  H17R19512   0.540   5.732   8.255  0.8305  0.2854 -1.4175
  172SAPE  H17S19513   0.600   5.893   8.250 -0.0415 -0.3678 -0.8624
  172SAPE  C21819514   0.554   5.820   8.452 -0.0968  0.4127 -0.0696
  172SAPE  H18R19515   0.618   5.886   8.515 -0.2095 -1.6803  2.4298
  172SAPE  H18S19516   0.552   5.725   8.510 -2.8476  0.5775  0.2589
  172SAPE  C21919517   0.409   5.871   8.462 -0.8197 -0.1537  1.2389
  172SAPE  H19R19518   0.341   5.820   8.391 -2.7821  2.2516  1.2376
  172SAPE  H19S19519   0.407   5.975   8.422 -1.0119 -0.2022  1.1201
  172SAPE  C22019520   0.346   5.869   8.603 -0.2966  0.4121  0.9711
  172SAPE  H20R19521   0.253   5.929   8.599  0.4498  1.6237  1.3069
  172SAPE  H20S19522   0.406   5.914   8.685  1.1999 -0.7229  0.5521
  172SAPE  H20T19523   0.329   5.763   8.632  0.7320 -0.2073 -0.5525
  172SAPE   C3319524   0.600   6.186   7.289  0.2757 -0.2986  1.1489
  172SAPE   H3X19525   0.607   6.075   7.282 -0.6996 -0.2760 -0.8803
  172SAPE   H3Y19526   0.493   6.214   7.280  0.4014 -0.3268 -1.1024
  172SAPE   C3419527   0.648   6.246   7.426 -0.6575  0.2771  0.1965
  172SAPE   H4X19528   0.602   6.346   7.436  0.9093  1.0619 -0.0603
  172SAPE   H4Y19529   0.758   6.259   7.412 -0.5041  0.7733  1.6595
  172SAPE   C3519530   0.626   6.156   7.540 -0.2457  0.2259 -0.4022
  172SAPE   H5X19531   0.717   6.159   7.604  1.1914  0.2557 -2.3402
  172SAPE   H5Y19532   0.607   6.050   7.510 -0.7219  0.2327 -0.1260
  172SAPE   C3619533   0.510   6.194   7.628 -0.0540  0.4618 -0.0922
  172SAPE   H6X19534   0.505   6.107   7.697  0.4426  0.2396 -0.3343
  172SAPE   H6Y19535   0.416   6.194   7.570 -0.0940 -1.0260 -0.0572
  172SAPE   C3719536   0.528   6.323   7.704  0.0753  0.5316 -0.0262
  172SAPE   H7X19537   0.532   6.405   7.629  2.7206  0.0701 -0.4715
  172SAPE   H7Y19538   0.623   6.317   7.760  0.1254 -2.7412 -0.2442
  172SAPE   C3819539   0.410   6.347   7.796  0.0174  0.0787 -0.4772
  172SAPE   H8X19540   0.311   6.330   7.750 -0.5993  0.2736  0.7221
  172SAPE   H8Y19541   0.415   6.449   7.840  1.9300 -0.6459  1.1597
  172SAPE   C3919542   0.415   6.252   7.918  0.6572 -0.5308  0.1072
  172SAPE   H9X19543   0.433   6.147   7.888 -1.0686  0.3286 -4.9336
  172SAPE   H9Y19544   0.318   6.253   7.971  0.4342 -0.5424 -0.2908
  172SAPE  C31019545   0.532   6.293   8.012  0.0080  0.6221  0.1745
  172SAPE  H10X19546   0.531   6.404   8.018 -1.6031  0.5580  2.2625
  172SAPE  H10Y19547   0.627   6.254   7.969 -0.9315 -1.3404 -0.2088
  172SAPE  C31119548   0.516   6.231   8.149 -0.4391  0.4089  0.7900
  172SAPE  H11X19549   0.483   6.125   8.142  1.1086 -0.0485 -0.1615
  172SAPE  H11Y19550   0.439   6.292   8.201 -2.0634 -0.5615 -0.3684
  172SAPE  C31219551   0.639   6.246   8.239  0.2414 -0.1141 -0.6174
  172SAPE  H12X19552   0.659   6.355   8.250 -0.6664  0.1334 -1.2659
  172SAPE  H12Y19553   0.722   6.189   8.193 -1.8880 -4.8020  0.7754
  172SAPE  C31319554   0.623   6.179   8.377 -0.7809  0.4140 -0.8171
  172SAPE  H13X19555   0.621   6.070   8.355 -4.4220  0.3534 -0.8962
  172SAPE  H13Y19556   0.525   6.207   8.420 -2.2230 -1.0953 -2.8610
  172SAPE  C31419557   0.735   6.236   8.460  0.1503 -0.0632  0.3665
  172SAPE  H14X19558   0.751   6.345   8.453  0.2781 -0.1385 -0.6596
  172SAPE  H14Y19559   0.834   6.201   8.422  1.0610  0.4808  2.1397
  172SAPE  C31519560   0.730   6.201   8.613  0.2468  0.0676  1.4166
  172SAPE  H15X19561   0.731   6.090   8.609  2.3910 -0.0399  2.9205
  172SAPE  H15Y19562   0.640   6.233   8.670  0.1258  2.5276 -0.0169
  172SAPE  C31619563   0.853   6.262   8.688 -0.5540 -0.1550  0.0869
  172SAPE  H16X19564   0.852   6.373   8.685  0.5990 -0.0860  1.4134
  172SAPE  H16Y19565   0.950   6.230   8.646 -1.4088 -0.7956 -1.4893
  172SAPE  C31719566   0.852   6.225   8.832  0.2721 -0.3546  0.2517
  172SAPE  H17X19567   0.853   6.115   8.851 -0.5698 -0.2750  0.8270
  172SAPE  H17Y19568   0.765   6.277   8.877  2.3061  2.7197  0.9314
  172SAPE  C31819569   0.963   6.293   8.902  0.0853  0.2179 -0.6473
  172SAPE  H18X19570   0.955   6.271   9.011  1.0700  0.8320 -0.4347
  172SAPE  H18Y19571   0.942   6.402   8.891  0.5533  0.2550 -1.2254
  172SAPE  H18Z19572   1.064   6.264   8.866  0.7170 -3.5745  3.3546
  173SOPE     N19573   2.226   2.425  10.898  0.2913 -0.1024 -0.0369
  173SOPE   HN119574   2.320   2.424  10.942 -0.9843  0.9347  2.9767
  173SOPE   HN219575   2.161   2.496  10.939 -0.5319 -0.9182  0.1142
  173SOPE   HN319576   2.182   2.331  10.907  2.3727 -0.9795  1.7731
  173SOPE   C1219577   2.255   2.463  10.754 -0.3843  0.9111  1.0161
  173SOPE  H12A19578   2.165   2.456  10.690 -0.0618 -0.0124  0.6498
  173SOPE  H12B19579   2.340   2.401  10.717 -1.9445 -0.4690 -0.4260
  173SOPE   C1119580   2.313   2.607  10.743  0.0829 -0.0276 -0.5996
  173SOPE  H11A19581   2.290   2.626  10.636 -0.1487  0.1884 -0.5097
  173SOPE  H11B19582   2.422   2.613  10.762  0.2672  1.3347 -1.8962
  173SOPE     P19583   2.248   2.848  10.830  0.5361 -0.4561  0.0558
  173SOPE   O1319584   2.335   2.893  10.939 -0.2174  0.3069  0.4683
  173SOPE   O1419585   2.116   2.906  10.829  0.5351 -0.1780 -0.1012
  173SOPE   O1219586   2.240   2.695  10.829 -0.2529 -0.9886 -0.1114
  173SOPE   O1119587   2.316   2.877  10.694 -0.4566 -0.3291 -0.0645
  173SOPE    C119588   2.256   2.865  10.570 -0.1569 -0.0707  1.1792
  173SOPE    HA19589   2.156   2.818  10.559  1.5120 -3.6580 -0.4179
  173SOPE    HB19590   2.326   2.800  10.513  0.5075  0.3932  1.4611
  173SOPE    C219591   2.258   3.008  10.501  0.7693 -0.3016  0.1723
  173SOPE    HS19592   2.177   3.072  10.542  0.1050  0.5049 -2.2155
  173SOPE   O2119593   2.231   2.989  10.359  0.1281  0.7994 -0.5351
  173SOPE   C2119594   2.106   2.965  10.324 -0.4047 -0.5054  0.9982
  173SOPE   O2219595   2.002   2.965  10.395 -0.3959 -0.0219  0.1897
  173SOPE   C2219596   2.104   2.936  10.174 -0.2419  0.6802  0.1134
  173SOPE   H2R19597   2.033   2.853  10.153  0.9580  0.0944 -1.8434
  173SOPE   H2S19598   2.203   2.895  10.147 -0.5616  0.7806 -1.3119
  173SOPE    C319599   2.390   3.078  10.533 -0.7894 -0.0520 -0.2065
  173SOPE    HX19600   2.473   3.004  10.525  0.5808  1.3398  0.6126
  173SOPE    HY19601   2.385   3.104  10.641  4.0988 -1.6327  0.6415
  173SOPE   O3119602   2.424   3.186  10.449  0.5301  0.5530  0.3913
  173SOPE   C3119603   2.518   3.269  10.495  1.1854  0.3034 -0.1274
  173SOPE   O3219604   2.580   3.255  10.598  1.3028 -0.5573  0.4509
  173SOPE   C3219605   2.553   3.363  10.382 -0.2856 -0.0975  0.7217
  173SOPE   H2X19606   2.629   3.304  10.326 -1.4770 -0.2710 -0.7750
  173SOPE   H2Y19607   2.591   3.456  10.429 -2.3744  0.7621  0.8101
  173SOPE   C2319608   2.065   3.057  10.090 -0.3065  0.6638  0.3754
  173SOPE   H3R19609   2.135   3.143  10.098  0.1011  0.4633 -0.7828
  173SOPE   H3S19610   1.965   3.094  10.121 -0.5057  0.5374 -0.1160
  173SOPE   C2419611   2.047   3.011   9.948 -0.1944 -0.6133  0.7464
  173SOPE   H4R19612   2.133   2.947   9.918 -0.8331 -0.2432 -2.2073
  173SOPE   H4S19613   1.963   2.939   9.937  0.6290 -1.4845  0.0430
  173SOPE   C2519614   2.042   3.136   9.854  0.6078 -0.1039  0.5361
  173SOPE   H5R19615   1.940   3.180   9.859  1.5924  2.2764  0.5313
  173SOPE   H5S19616   2.107   3.217   9.891 -0.3422  3.0247 -3.8114
  173SOPE   C2619617   2.072   3.096   9.704 -0.3403 -0.3544 -0.6456
  173SOPE   H6R19618   2.084   3.191   9.647  1.4612 -0.8288 -1.1374
  173SOPE   H6S19619   2.163   3.033   9.695  1.7015  2.2879  0.1992
  173SOPE   C2719620   1.947   3.037   9.626  0.4983 -0.3230  0.2016
  173SOPE   H7R19621   1.850   3.059   9.675  1.0706  1.2020  0.7231
  173SOPE   H7S19622   1.941   3.085   9.526 -0.5239  1.9396  1.2970
  173SOPE   C2819623   1.944   2.888   9.599 -0.1834  0.9368  0.4156
  173SOPE   H8R19624   1.948   2.835   9.696 -3.3687  2.3606  1.4594
  173SOPE   H8S19625   1.846   2.856   9.558  0.0265 -2.0499  1.9853
  173SOPE   C2919626   2.061   2.840   9.522 -0.6603  0.9312  0.5967
  173SOPE   H9119627   2.154   2.886   9.558  0.4324  0.5163 -1.5014
  173SOPE  C21019628   2.074   2.727   9.447  0.6036  0.2660 -0.0525
  173SOPE  H10119629   2.175   2.714   9.404 -0.6698 -2.1224 -2.6475
  173SOPE  C21119630   1.973   2.629   9.403 -0.5498 -0.4700  0.4787
  173SOPE  H11R19631   1.900   2.610   9.485  3.9243 -0.5947  4.9396
  173SOPE  H11S19632   2.022   2.531   9.386  0.9724  0.2485  0.5426
  173SOPE  C21219633   1.918   2.658   9.264 -0.2498 -0.3470 -0.1620
  173SOPE  H12R19634   1.995   2.654   9.184  0.6576 -0.8244  0.7191
  173SOPE  H12S19635   1.878   2.762   9.268 -0.2973 -0.3970  1.2831
  173SOPE  C21319636   1.794   2.576   9.225 -0.0681  1.0002 -0.6213
  173SOPE  H13R19637   1.726   2.568   9.313 -0.3852 -0.6282 -0.9655
  173SOPE  H13S19638   1.838   2.477   9.199  0.0707  0.8053  0.3177
  173SOPE  C21419639   1.699   2.630   9.114 -0.2291 -0.3878  0.2320
  173SOPE  H14R19640   1.758   2.640   9.020 -1.5266  2.1792 -0.3973
  173SOPE  H14S19641   1.662   2.732   9.136 -0.1722 -0.5859  1.3020
  173SOPE  C21519642   1.570   2.548   9.100  0.5765 -0.3767 -0.7731
  173SOPE  H15R19643   1.523   2.544   9.201  0.3728  2.8951 -0.6107
  173SOPE  H15S19644   1.594   2.445   9.069  0.4873 -0.1977 -1.4457
  173SOPE  C21619645   1.476   2.603   8.990  0.5069  0.0562 -0.1353
  173SOPE  H16R19646   1.486   2.713   8.976  2.9978 -0.1107 -0.2558
  173SOPE  H16S19647   1.373   2.569   9.011 -0.1063  1.3283 -0.9529
  173SOPE  C21719648   1.507   2.540   8.854 -0.3905 -0.0069  1.2210
  173SOPE  H17R19649   1.425   2.559   8.782 -0.6883  1.5413  1.9294
  173SOPE  H17S19650   1.514   2.429   8.861 -0.9897 -0.0231  1.7120
  173SOPE  C21819651   1.633   2.591   8.782 -0.5363 -0.8426  0.0898
  173SOPE  H18R19652   1.626   2.702   8.770  1.8927 -0.4616  1.4738
  173SOPE  H18S19653   1.645   2.542   8.683  2.0863 -2.4832  1.1173
  173SOPE  H18T19654   1.714   2.561   8.852 -0.9047  1.5403  1.6654
  173SOPE   C3319655   2.439   3.400  10.284 -0.3098  0.1287 -0.9088
  173SOPE   H3X19656   2.348   3.438  10.336  1.3912  2.0233  0.8575
  173SOPE   H3Y19657   2.411   3.309  10.227 -0.2193 -1.1976  1.0691
  173SOPE   C3419658   2.478   3.516  10.193 -0.0662  0.9685  0.1236
  173SOPE   H4X19659   2.543   3.476  10.113 -2.1065 -0.4971 -0.8898
  173SOPE   H4Y19660   2.523   3.600  10.251 -2.1624  3.1536 -1.1939
  173SOPE   C3519661   2.357   3.564  10.105 -0.1759 -0.7825  0.0734
  173SOPE   H5X19662   2.273   3.595  10.171  1.6209  1.2198  1.5493
  173SOPE   H5Y19663   2.326   3.471  10.052  0.5514 -1.1461  0.2764
  173SOPE   C3619664   2.387   3.678  10.005 -0.3731  0.5431  0.4261
  173SOPE   H6X19665   2.472   3.731  10.054 -0.5564 -0.1761  1.5655
  173SOPE   H6Y19666   2.313   3.761   9.996  0.7822  1.3860 -2.3018
  173SOPE   C3719667   2.402   3.637   9.853  0.9908  0.7639 -0.1589
  173SOPE   H7X19668   2.313   3.578   9.823  1.9653 -1.8946  1.8188
  173SOPE   H7Y19669   2.492   3.573   9.844  0.2401 -0.3172 -0.0854
  173SOPE   C3819670   2.429   3.752   9.754 -0.2130 -0.1035  0.7885
  173SOPE   H8X19671   2.512   3.823   9.776 -1.0932  1.0043  0.6700
  173SOPE   H8Y19672   2.336   3.813   9.753 -0.4240 -0.3922 -1.0586
  173SOPE   C3919673   2.447   3.711   9.606 -0.3321  0.6489 -0.2990
  173SOPE   H9X19674   2.351   3.665   9.574 -0.0899 -1.5639  1.8234
  173SOPE   H9Y19675   2.514   3.623   9.602 -1.9074 -0.5881 -0.6950
  173SOPE  C31019676   2.489   3.828   9.519  0.3502 -0.3534 -1.0708
  173SOPE  H10X19677   2.582   3.862   9.571 -0.6999  1.1556 -0.0946
  173SOPE  H10Y19678   2.404   3.899   9.532 -0.7851 -1.8709  0.1086
  173SOPE  C31119679   2.508   3.781   9.376 -0.5757 -1.0804 -0.6336
  173SOPE  H11X19680   2.544   3.676   9.369  0.4505 -0.6215 -3.6243
  173SOPE  H11Y19681   2.575   3.848   9.319 -1.6418  0.4512 -0.1623
  173SOPE  C31219682   2.371   3.783   9.315 -0.3436 -0.1575  0.0495
  173SOPE  H12X19683   2.322   3.882   9.324  1.2074  0.5309  1.4390
  173SOPE  H12Y19684   2.309   3.715   9.377  0.7589 -0.6417  0.6432
  173SOPE  C31319685   2.361   3.746   9.169 -0.4071  0.1186  0.0703
  173SOPE  H13X19686   2.424   3.656   9.152  0.2282  0.9398 -2.1789
  173SOPE  H13Y19687   2.401   3.824   9.102 -1.6494 -0.4526 -1.3825
  173SOPE  C31419688   2.221   3.698   9.123 -0.0883  0.4406 -0.5629
  173SOPE  H14X19689   2.157   3.787   9.106 -0.5138  0.3912  0.6710
  173SOPE  H14Y19690   2.168   3.621   9.183  0.8545 -0.1271 -0.4363
  173SOPE  C31519691   2.228   3.641   8.978  0.3181 -0.0067 -0.0516
  173SOPE  H15X19692   2.308   3.701   8.931  0.4979 -1.5734 -1.8502
  173SOPE  H15Y19693   2.134   3.657   8.920  1.4235  0.4837 -1.7689
  173SOPE  C31619694   2.250   3.490   8.967 -0.5187  0.1175  0.2340
  173SOPE  H16X19695   2.168   3.430   9.013  0.0458 -1.5673 -0.8867
  173SOPE  H16Y19696   2.347   3.456   9.010 -0.6951  0.2679  0.7702
  173SOPE  C31719697   2.246   3.425   8.823 -0.7434 -0.0463  0.1804
  173SOPE  H17X19698   2.327   3.483   8.773  1.9987  0.3337  4.5442
  173SOPE  H17Y19699   2.149   3.463   8.787 -1.0124  1.3091  2.1628
  173SOPE  C31819700   2.262   3.276   8.818 -0.0213 -0.7973  0.2164
  173SOPE  H18X19701   2.351   3.247   8.878 -0.0366  0.6002  0.9582
  173SOPE  H18Y19702   2.266   3.236   8.714 -1.5653  0.7530 -0.4877
  173SOPE  H18Z19703   2.179   3.239   8.881 -0.9215  1.8206  0.6870
  174SOPE     N19704   2.592   2.825  11.023 -0.1970 -0.7019  0.0793
  174SOPE   HN119705   2.630   2.797  10.930 -0.5795 -1.9641  0.2874
  174SOPE   HN219706   2.497   2.866  11.013  1.1044  2.2208 -1.9145
  174SOPE   HN319707   2.653   2.907  11.044  0.6966 -1.1633 -0.6261
  174SOPE   C1219708   2.613   2.711  11.111  0.1525  0.4686 -0.1233
  174SOPE  H12A19709   2.611   2.741  11.219 -0.8071 -3.5852  1.1557
  174SOPE  H12B19710   2.713   2.663  11.100 -0.3089 -0.2701 -1.2101
  174SOPE   C1119711   2.498   2.614  11.070 -0.4115 -0.1715  0.0222
  174SOPE  H11A19712   2.402   2.668  11.061  0.3494  1.7154  2.2108
  174SOPE  H11B19713   2.487   2.547  11.158 -2.2069 -0.9082 -0.7025
  174SOPE     P19714   2.590   2.399  10.938 -0.4428  0.0994 -0.1414
  174SOPE   O1319715   2.469   2.318  10.970 -0.0281  0.1398  0.9337
  174SOPE   O1419716   2.705   2.377  11.026 -0.0097  0.4831  0.3535
  174SOPE   O1219717   2.545   2.548  10.948 -0.2502  0.2983 -0.0513
  174SOPE   O1119718   2.632   2.369  10.783 -0.4589 -0.1064 -0.1170
  174SOPE    C119719   2.733   2.448  10.714  0.0293 -0.0729 -0.0685
  174SOPE    HA19720   2.830   2.395  10.711 -0.6676 -1.5179  1.5176
  174SOPE    HB19721   2.745   2.536  10.780 -1.1796 -0.4522  0.6896
  174SOPE    C219722   2.670   2.492  10.583  0.3502 -0.5666  0.1454
  174SOPE    HS19723   2.581   2.548  10.619  1.7203  1.0889  1.1465
  174SOPE   O2119724   2.640   2.374  10.505 -0.0465 -0.0158 -0.3680
  174SOPE   C2119725   2.541   2.380  10.416  0.0119  0.1765 -0.6174
  174SOPE   O2219726   2.459   2.467  10.413 -0.6358  0.5071  0.2721
  174SOPE   C2219727   2.543   2.255  10.327 -0.6016  0.2493 -0.4621
  174SOPE   H2R19728   2.476   2.178  10.371 -1.9153  0.1510 -2.5106
  174SOPE   H2S19729   2.645   2.210  10.319 -0.2487  0.5174  1.7480
  174SOPE    C319730   2.770   2.582  10.517 -0.4106 -0.0802  0.2376
  174SOPE    HX19731   2.867   2.534  10.497 -0.1820  0.7291 -0.6897
  174SOPE    HY19732   2.786   2.669  10.584 -0.1205 -0.0119  0.0817
  174SOPE   O3119733   2.714   2.629  10.390  0.0116  0.6513  0.4723
  174SOPE   C3119734   2.630   2.729  10.388 -0.0679 -0.7460 -0.0796
  174SOPE   O3219735   2.581   2.793  10.479 -0.4259 -0.3001 -0.1178
  174SOPE   C3219736   2.588   2.746  10.240 -0.0047  0.6159  0.2496
  174SOPE   H2X19737   2.513   2.667  10.220 -0.3485  1.0740 -0.3307
  174SOPE   H2Y19738   2.679   2.742  10.177 -1.1258 -0.1883 -1.3988
  174SOPE   C2319739   2.478   2.277  10.190  0.7324 -0.3471  0.3829
  174SOPE   H3R19740   2.523   2.363  10.135  0.6507 -1.5242 -1.5931
  174SOPE   H3S19741   2.370   2.297  10.205  1.0377  1.4832  0.4455
  174SOPE   C2419742   2.490   2.155  10.102 -0.6299  0.2040 -0.1975
  174SOPE   H4R19743   2.600   2.154  10.087 -0.3704  0.4617  1.4587
  174SOPE   H4S19744   2.472   2.066  10.165 -1.7453  0.6529  0.1462
  174SOPE   C2519745   2.408   2.144   9.978 -0.2530 -0.3296  0.8918
  174SOPE   H5R19746   2.433   2.051   9.922  1.7403  1.6635 -1.8362
  174SOPE   H5S19747   2.300   2.155  10.000 -1.3796 -1.8789 -2.9111
  174SOPE   C2619748   2.446   2.262   9.883  0.2617 -0.6826 -0.0792
  174SOPE   H6R19749   2.403   2.356   9.923 -0.4051  0.0289 -2.3163
  174SOPE   H6S19750   2.557   2.257   9.875  0.1231 -0.9505 -2.5337
  174SOPE   C2719751   2.389   2.269   9.742  0.3245 -0.1706 -0.3243
  174SOPE   H7R19752   2.422   2.179   9.685  0.8965  1.1030 -2.0970
  174SOPE   H7S19753   2.278   2.268   9.747  0.0870  1.7222 -2.9535
  174SOPE   C2819754   2.438   2.386   9.660 -0.9390  0.2343  0.0104
  174SOPE   H8R19755   2.548   2.372   9.652 -1.2700 -2.6348 -0.9449
  174SOPE   H8S19756   2.414   2.372   9.553  2.5707 -2.4693 -0.6037
  174SOPE   C2919757   2.412   2.528   9.702  0.2153 -0.0335 -0.4973
  174SOPE   H9119758   2.315   2.542   9.750  0.8127  0.1410  0.6918
  174SOPE  C21019759   2.493   2.636   9.724 -0.2330 -0.0080 -0.5077
  174SOPE  H10119760   2.434   2.722   9.758  1.0211 -0.4158  3.0239
  174SOPE  C21119761   2.641   2.647   9.708  0.0092 -0.4104  0.1865
  174SOPE  H11R19762   2.688   2.552   9.676  0.5479 -0.0033 -0.2563
  174SOPE  H11S19763   2.696   2.667   9.802 -3.5009  1.0177  2.1377
  174SOPE  C21219764   2.689   2.764   9.616  0.1747 -0.3799 -0.2927
  174SOPE  H12R19765   2.799   2.763   9.600  0.0522  0.4296 -1.2818
  174SOPE  H12S19766   2.662   2.867   9.647 -1.7852  0.1408 -3.2699
  174SOPE  C21319767   2.636   2.757   9.468  0.0772  0.2917 -0.9199
  174SOPE  H13R19768   2.527   2.738   9.473  0.0319  0.4265 -1.3196
  174SOPE  H13S19769   2.682   2.663   9.431 -0.0455 -0.1914  0.1258
  174SOPE  C21419770   2.656   2.872   9.378  0.4665 -0.0781 -0.1434
  174SOPE  H14R19771   2.764   2.874   9.350  0.1606 -0.2333 -1.4173
  174SOPE  H14S19772   2.622   2.955   9.443 -0.1023 -1.7176  1.7341
  174SOPE  C21519773   2.575   2.875   9.247 -0.2458 -0.0230  0.1933
  174SOPE  H15R19774   2.599   2.790   9.180  0.2089 -0.1686  0.5384
  174SOPE  H15S19775   2.604   2.959   9.182 -2.9213  0.8039 -0.0686
  174SOPE  C21619776   2.421   2.889   9.258  0.7684  0.6126 -0.7784
  174SOPE  H16R19777   2.400   2.956   9.344 -0.8649 -1.9223  0.9255
  174SOPE  H16S19778   2.380   2.789   9.285  2.1494 -0.1361 -1.3505
  174SOPE  C21719779   2.359   2.917   9.119 -0.2487  0.2535  0.8399
  174SOPE  H17R19780   2.362   2.821   9.062  0.7491  0.2871  0.8168
  174SOPE  H17S19781   2.405   3.004   9.068 -0.6918  0.6109  1.0509
  174SOPE  C21819782   2.214   2.962   9.128  0.2197 -0.0728  0.1526
  174SOPE  H18R19783   2.158   2.896   9.196  1.1806 -0.0363  1.0098
  174SOPE  H18S19784   2.161   2.966   9.030  2.3875  1.2465 -1.0491
  174SOPE  H18T19785   2.195   3.063   9.171  1.8259  0.1112  0.5188
  174SOPE   C3319786   2.525   2.886  10.206 -0.4724  0.6002 -0.1384
  174SOPE   H3X19787   2.594   2.963  10.247  1.5803 -2.7732  3.4063
  174SOPE   H3Y19788   2.429   2.906  10.258 -0.6186 -0.6689  0.0993
  174SOPE   C3419789   2.511   2.905  10.054 -0.4408 -0.2031 -0.7506
  174SOPE   H4X19790   2.432   2.838  10.015 -0.3302 -1.8248  1.6366
  174SOPE   H4Y19791   2.608   2.873  10.009 -0.5042  0.5957 -1.4949
  174SOPE   C3519792   2.468   3.049  10.024 -0.3556 -0.1775 -0.1366
  174SOPE   H5X19793   2.553   3.120  10.034 -2.5762  2.6604 -0.1408
  174SOPE   H5Y19794   2.390   3.076  10.098  0.3179  0.0980  0.4889
  174SOPE   C3619795   2.454   3.082   9.876  0.2323  0.6000 -0.8441
  174SOPE   H6X19796   2.376   3.015   9.836  0.4707  1.0512 -2.1183
  174SOPE   H6Y19797   2.554   3.065   9.831  1.4220 -1.2055  2.1627
  174SOPE   C3719798   2.407   3.220   9.851 -0.1314 -1.1760 -0.1634
  174SOPE   H7X19799   2.487   3.287   9.888 -0.6949  0.4105 -1.6736
  174SOPE   H7Y19800   2.309   3.232   9.903 -1.3946 -1.9207 -2.2370
  174SOPE   C3819801   2.388   3.255   9.694  0.2080 -0.3763 -0.8160
  174SOPE   H8X19802   2.335   3.352   9.691 -2.0752 -1.5429 -0.2313
  174SOPE   H8Y19803   2.316   3.185   9.646  0.7488 -1.9704  0.5727
  174SOPE   C3919804   2.518   3.258   9.615  0.0590 -0.2212 -0.1004
  174SOPE   H9X19805   2.597   3.188   9.649  2.5450  0.9865 -2.8944
  174SOPE   H9Y19806   2.568   3.350   9.650  0.2064 -0.3540  0.0403
  174SOPE  C31019807   2.515   3.244   9.466  0.5809 -0.6427  0.0489
  174SOPE  H10X19808   2.454   3.318   9.410  2.5151  0.0396 -1.3003
  174SOPE  H10Y19809   2.479   3.144   9.432  0.9452 -0.1306 -2.0147
  174SOPE  C31119810   2.651   3.271   9.399 -0.0520  0.0902  0.2842
  174SOPE  H11X19811   2.714   3.188   9.436  2.2488  1.2612 -0.8056
  174SOPE  H11Y19812   2.696   3.367   9.432  2.7821 -0.9032 -0.4543
  174SOPE  C31219813   2.644   3.280   9.240  0.2709  0.5533 -0.0808
  174SOPE  H12X19814   2.617   3.380   9.199 -2.8673  0.3053  1.1440
  174SOPE  H12Y19815   2.553   3.220   9.216 -0.4106 -0.2560  3.8019
  174SOPE  C31319816   2.767   3.213   9.170  0.1883 -0.8268  0.9573
  174SOPE  H13X19817   2.773   3.102   9.180  0.1967 -1.0632 -1.2708
  174SOPE  H13Y19818   2.861   3.258   9.207  1.7256 -1.8405 -1.4466
  174SOPE  C31419819   2.757   3.232   9.017  0.2905 -0.2866 -0.2909
  174SOPE  H14X19820   2.719   3.333   8.989  0.0152 -0.4848 -0.6348
  174SOPE  H14Y19821   2.687   3.155   8.977  1.4568 -1.6343  0.1762
  174SOPE  C31519822   2.892   3.200   8.952  0.3465 -0.6015  0.4075
  174SOPE  H15X19823   2.921   3.094   8.966  0.9186 -0.3814  0.9506
  174SOPE  H15Y19824   2.962   3.273   8.999  0.4674  0.0649 -0.7824
  174SOPE  C31619825   2.883   3.231   8.800  0.5542  0.3997 -0.4410
  174SOPE  H16X19826   2.782   3.204   8.763  0.5286  0.7198 -0.6049
  174SOPE  H16Y19827   2.951   3.155   8.754  0.0625  0.5859 -1.5058
  174SOPE  C31719828   2.942   3.370   8.765  0.3774 -0.0185 -0.0388
  174SOPE  H17X19829   2.905   3.442   8.840  2.3179  0.3208  0.6383
  174SOPE  H17Y19830   2.901   3.399   8.666  0.2800 -1.5767 -0.4897
  174SOPE  C31819831   3.093   3.381   8.755 -0.0366  0.1662  0.6535
  174SOPE  H18X19832   3.147   3.294   8.711  2.0086  0.9200  1.5409
  174SOPE  H18Y19833   3.138   3.385   8.857 -1.0816 -0.2619  1.1515
  174SOPE  H18Z19834   3.137   3.461   8.692  0.2132 -1.0833 -0.8356
  175SOPE     N19835   5.154   4.135  10.533  0.4602 -0.0052  0.0394
  175SOPE   HN119836   5.153   4.085  10.624 -0.7357 -1.6317 -0.8327
  175SOPE   HN219837   5.248   4.116  10.492  0.0658 -0.6019 -0.5977
  175SOPE   HN319838   5.141   4.236  10.556 -0.4291  0.1061 -0.8823
  175SOPE   C1219839   5.042   4.085  10.445 -0.2791 -0.6045 -0.4338
  175SOPE  H12A19840   5.042   3.974  10.447  0.0011 -0.6136 -0.8966
  175SOPE  H12B19841   5.056   4.142  10.351 -0.6586 -0.1983 -0.2477
  175SOPE   C1119842   4.909   4.134  10.500 -0.0891  0.0621  0.6705
  175SOPE  H11A19843   4.836   4.097  10.424  0.7210 -1.7193  0.7145
  175SOPE  H11B19844   4.916   4.245  10.497  1.4654 -0.0163 -1.8139
  175SOPE     P19845   4.787   3.981  10.680  0.1318 -0.3816  0.2577
  175SOPE   O1319846   4.714   4.012  10.803 -0.0364 -0.0078  0.1077
  175SOPE   O1419847   4.849   3.853  10.672 -0.4363 -0.2199 -0.0272
  175SOPE   O1219848   4.883   4.096  10.630 -0.0257  0.9664 -0.2545
  175SOPE   O1119849   4.676   3.988  10.568  0.2410 -0.3487  0.5359
  175SOPE    C119850   4.590   3.886  10.523 -0.2799  0.8673  0.0447
  175SOPE    HA19851   4.500   3.890  10.589  1.9981 -0.5217  3.4899
  175SOPE    HB19852   4.632   3.784  10.530 -0.2098  0.7466 -1.6381
  175SOPE    C219853   4.567   3.901  10.373 -0.5422  0.3223 -0.0550
  175SOPE    HS19854   4.500   3.817  10.345  1.4997 -1.9109  1.2777
  175SOPE   O2119855   4.694   3.891  10.309 -0.1204  0.4003  0.1201
  175SOPE   C2119856   4.731   3.772  10.270 -0.6204 -0.0465  0.0573
  175SOPE   O2219857   4.662   3.674  10.263 -0.3974  0.4287  0.3556
  175SOPE   C2219858   4.881   3.772  10.265 -0.1645 -0.2272  0.2062
  175SOPE   H2R19859   4.914   3.674  10.225  0.7790  1.1532 -2.6156
  175SOPE   H2S19860   4.917   3.775  10.370 -1.6759  2.2860  0.7411
  175SOPE    C319861   4.500   4.033  10.337  0.1385  0.5179 -0.6073
  175SOPE    HX19862   4.577   4.109  10.360  1.5985 -1.5313  1.8747
  175SOPE    HY19863   4.417   4.040  10.411 -0.1985 -2.8717 -0.4841
  175SOPE   O3119864   4.436   4.037  10.212  0.0325  0.3316  0.0133
  175SOPE   C3119865   4.500   4.107  10.117  0.5285 -0.2711 -0.5462
  175SOPE   O3219866   4.597   4.180  10.129  0.1137  0.6352 -0.2402
  175SOPE   C3219867   4.425   4.085   9.989 -0.0818 -0.5572  0.0997
  175SOPE   H2X19868   4.363   4.176   9.979  1.4626  0.4175 -1.1731
  175SOPE   H2Y19869   4.378   3.985   9.997 -2.4768  0.6575  2.6851
  175SOPE   C2319870   4.940   3.884  10.175 -0.1003  1.2739 -0.2415
  175SOPE   H3R19871   5.051   3.887  10.180 -0.1756  2.8424  2.3037
  175SOPE   H3S19872   4.907   3.977  10.226  0.1301  0.9793  0.4603
  175SOPE   C2419873   4.893   3.875  10.031 -0.4738 -0.0450  0.0081
  175SOPE   H4R19874   4.910   3.769  10.004 -3.0125 -0.6614  0.6474
  175SOPE   H4S19875   4.784   3.894  10.034 -0.4290  0.3951 -0.6787
  175SOPE   C2519876   4.962   3.974   9.938 -0.2408  0.1991 -0.5530
  175SOPE   H5R19877   4.938   4.079   9.965 -1.3192 -0.3609  0.7868
  175SOPE   H5S19878   5.071   3.952   9.944 -0.5779 -1.3517  4.3306
  175SOPE   C2619879   4.916   3.943   9.801  0.2261 -0.3111  0.0579
  175SOPE   H6R19880   4.949   3.846   9.759  0.2580  0.3923 -1.6246
  175SOPE   H6S19881   4.805   3.940   9.800  0.1738  0.9456 -0.7221
  175SOPE   C2719882   4.971   4.045   9.697  0.3161  0.0677 -0.0963
  175SOPE   H7R19883   5.079   4.066   9.716  0.3033  1.1008 -1.0824
  175SOPE   H7S19884   4.962   3.998   9.597  0.0773  0.0285 -0.0550
  175SOPE   C2819885   4.886   4.179   9.675  0.2424  0.0631  0.1786
  175SOPE   H8R19886   4.800   4.158   9.609 -0.9640  1.9172  1.0562
  175SOPE   H8S19887   4.842   4.222   9.768  0.5531 -0.8999  0.7870
  175SOPE   C2919888   4.975   4.285   9.623  0.2491  0.0585 -0.0682
  175SOPE   H9119889   5.001   4.360   9.699  0.2161 -0.3276  0.3282
  175SOPE  C21019890   5.022   4.303   9.497 -0.3856 -0.2317 -0.5630
  175SOPE  H10119891   5.086   4.391   9.483  0.7629 -1.0542 -0.6427
  175SOPE  C21119892   4.998   4.223   9.369 -0.3637  0.5258  1.1368
  175SOPE  H11R19893   4.915   4.268   9.311  0.5356 -0.7458 -1.3216
  175SOPE  H11S19894   4.976   4.115   9.386  0.2766 -0.2892 -2.3471
  175SOPE  C21219895   5.126   4.231   9.276 -0.8644 -0.2315 -0.1675
  175SOPE  H12R19896   5.207   4.168   9.319 -0.8093  0.8574  1.3865
  175SOPE  H12S19897   5.145   4.339   9.259 -0.5904 -0.4950 -1.7807
  175SOPE  C21319898   5.097   4.178   9.128 -0.2666  0.1695 -0.0565
  175SOPE  H13R19899   4.996   4.221   9.106 -0.8147 -1.1139 -0.1174
  175SOPE  H13S19900   5.061   4.073   9.125 -1.7107  0.6390 -0.1675
  175SOPE  C21419901   5.199   4.226   9.026 -0.6639 -0.1019  0.5245
  175SOPE  H14R19902   5.298   4.179   9.040 -1.5119 -2.4609 -0.7052
  175SOPE  H14S19903   5.222   4.331   9.051 -0.4668 -0.2689  1.0606
  175SOPE  C21519904   5.146   4.210   8.883  0.2904 -0.9300 -0.4064
  175SOPE  H15R19905   5.065   4.283   8.865  2.5489  1.5922 -0.9180
  175SOPE  H15S19906   5.117   4.102   8.885  0.3994 -0.9606 -0.4707
  175SOPE  C21619907   5.252   4.238   8.782 -0.4108 -0.8778  0.0358
  175SOPE  H16R19908   5.322   4.153   8.772  0.2303 -0.4832  0.9962
  175SOPE  H16S19909   5.304   4.335   8.799 -1.6121  0.3752 -2.7889
  175SOPE  C21719910   5.183   4.254   8.645 -0.8954  0.2831 -0.0478
  175SOPE  H17R19911   5.104   4.331   8.644  1.3912  2.7626 -0.9361
  175SOPE  H17S19912   5.139   4.153   8.627 -2.2554  1.3426 -3.3012
  175SOPE  C21819913   5.274   4.273   8.529 -0.2694  0.1780 -0.4107
  175SOPE  H18R19914   5.364   4.208   8.523 -1.0331 -0.8655 -0.9480
  175SOPE  H18S19915   5.307   4.379   8.531  1.2395 -0.2762 -0.2170
  175SOPE  H18T19916   5.210   4.254   8.440 -0.3076 -1.4276 -0.0821
  175SOPE   C3319917   4.518   4.080   9.866 -0.0361 -0.0051 -0.2457
  175SOPE   H3X19918   4.610   4.024   9.896 -0.5036 -0.4971  0.2798
  175SOPE   H3Y19919   4.539   4.183   9.830 -1.2926  0.5081  0.4566
  175SOPE   C3419920   4.441   4.011   9.757 -0.1350  0.1025 -1.0067
  175SOPE   H4X19921   4.362   4.079   9.717  0.0123 -0.8160 -2.9974
  175SOPE   H4Y19922   4.414   3.906   9.781 -1.7522  0.5370 -0.8430
  175SOPE   C3519923   4.517   3.988   9.628  0.4466  0.8539  1.0168
  175SOPE   H5X19924   4.481   3.896   9.577  1.9730  1.6667 -1.7430
  175SOPE   H5Y19925   4.625   3.977   9.653  1.0427 -1.0065 -1.9128
  175SOPE   C3619926   4.517   4.108   9.524  0.4924  0.6136 -0.1093
  175SOPE   H6X19927   4.579   4.190   9.568  1.0870  1.0809 -1.7135
  175SOPE   H6Y19928   4.418   4.152   9.501  0.4682  0.8598  0.4612
  175SOPE   C3719929   4.596   4.070   9.394 -0.4320  0.2534  0.2191
  175SOPE   H7X19930   4.654   3.978   9.416 -0.0677  0.4657  0.1553
  175SOPE   H7Y19931   4.663   4.152   9.359 -0.0876 -0.5928 -1.2145
  175SOPE   C3819932   4.491   4.035   9.284  0.4797  0.0329 -0.3797
  175SOPE   H8X19933   4.430   4.128   9.275  2.6312  1.5013 -0.7714
  175SOPE   H8Y19934   4.431   3.949   9.321 -0.4636 -0.2503 -2.4720
  175SOPE   C3919935   4.554   3.990   9.155 -0.0853 -0.7021 -0.0214
  175SOPE   H9X19936   4.476   3.950   9.087 -0.0170 -1.4654  0.3320
  175SOPE   H9Y19937   4.622   3.911   9.193  0.4928  0.1939  0.8419
  175SOPE  C31019938   4.649   4.098   9.095 -0.4693  0.9236 -0.3415
  175SOPE  H10X19939   4.740   4.112   9.156  0.3429  2.5204 -1.8295
  175SOPE  H10Y19940   4.604   4.199   9.104  1.3680  1.5790  2.7740
  175SOPE  C31119941   4.688   4.060   8.950  0.0271 -0.7249  0.2717
  175SOPE  H11X19942   4.601   4.050   8.882  1.1816  0.8696 -1.5544
  175SOPE  H11Y19943   4.746   3.965   8.951 -1.2839 -1.5512  1.6822
  175SOPE  C31219944   4.768   4.173   8.884  0.3025  0.0534 -0.4957
  175SOPE  H12X19945   4.877   4.169   8.908  0.8358  1.6752 -2.3028
  175SOPE  H12Y19946   4.736   4.271   8.925  1.5940  0.0140  0.7073
  175SOPE  C31319947   4.749   4.185   8.732 -0.1676 -0.1324 -0.1224
  175SOPE  H13X19948   4.789   4.285   8.705 -1.0772  0.9495  2.2976
  175SOPE  H13Y19949   4.641   4.203   8.714  0.4159  2.0143 -1.9495
  175SOPE  C31419950   4.788   4.066   8.651  0.3314 -0.1190  0.1114
  175SOPE  H14X19951   4.706   3.994   8.672 -3.4047  3.9686  1.1887
  175SOPE  H14Y19952   4.884   4.016   8.673  1.5510  0.6147 -3.0809
  175SOPE  C31519953   4.767   4.101   8.502  0.1403  0.3121 -0.4264
  175SOPE  H15X19954   4.815   4.199   8.483  0.1616  0.1597 -1.1939
  175SOPE  H15Y19955   4.657   4.099   8.488 -0.2362  1.8519  1.7529
  175SOPE  C31619956   4.833   3.994   8.410 -0.1359  1.0402  0.0822
  175SOPE  H16X19957   4.790   3.900   8.452  0.0530  0.5562 -0.8067
  175SOPE  H16Y19958   4.944   3.992   8.416  0.0695 -3.9269 -1.0329
  175SOPE  C31719959   4.794   3.999   8.266 -0.2950 -0.3774  0.0148
  175SOPE  H17X19960   4.855   3.922   8.215  0.7897 -0.1241  0.8799
  175SOPE  H17Y19961   4.822   4.096   8.218 -2.1781  0.5605  0.7012
  175SOPE  C31819962   4.646   3.967   8.230  0.5171  0.4661 -0.0597
  175SOPE  H18X19963   4.616   3.879   8.290 -1.1350 -0.1381 -1.6845
  175SOPE  H18Y19964   4.652   3.950   8.120 -0.0473 -0.8074  0.0878
  175SOPE  H18Z19965   4.582   4.057   8.245 -0.7229 -0.0632 -1.7918
  176SOPE     N19966   4.130   3.538  11.031 -0.3015 -0.2069  0.9221
  176SOPE   HN119967   4.179   3.630  11.040  2.4848 -1.2741 -1.6967
  176SOPE   HN219968   4.150   3.478  11.113 -1.9404 -1.0678  0.7279
  176SOPE   HN319969   4.176   3.489  10.952 -0.1105 -0.5637  1.2531
  176SOPE   C1219970   3.980   3.536  11.018 -0.4195 -0.5052 -0.2110
  176SOPE  H12A19971   3.958   3.626  10.957  1.8879  0.9161  0.8894
  176SOPE  H12B19972   3.946   3.561  11.121  1.0604 -0.6891  0.3531
  176SOPE   C1119973   3.934   3.399  10.965 -0.1811  0.1555  0.2075
  176SOPE  H11A19974   3.980   3.387  10.864 -1.5624  1.9871 -0.6893
  176SOPE  H11B19975   3.823   3.398  10.954 -0.1618  0.6046 -0.0597
  176SOPE     P19976   3.929   3.147  11.053  0.1870 -0.3046 -0.1952
  176SOPE   O1319977   3.795   3.148  11.111 -0.2697 -0.1410 -0.9042
  176SOPE   O1419978   4.025   3.052  11.117 -0.5662 -0.9235 -0.6675
  176SOPE   O1219979   3.984   3.292  11.045  0.9561  0.2787 -0.0911
  176SOPE   O1119980   3.917   3.112  10.901  0.1543 -0.2673 -0.0539
  176SOPE    C119981   4.032   3.096  10.821 -0.3042 -0.5140  0.7010
  176SOPE    HA19982   4.082   2.999  10.839 -0.0568 -0.4550  0.3514
  176SOPE    HB19983   4.106   3.177  10.839 -0.2612  0.2268 -2.2213
  176SOPE    C219984   3.998   3.092  10.670 -0.0995  0.0600 -0.8458
  176SOPE    HS19985   3.955   2.996  10.637 -3.6973  2.4466 -3.9687
  176SOPE   O2119986   4.099   3.136  10.581  0.1113  0.0500  0.3305
  176SOPE   C2119987   4.205   3.054  10.570  0.7145 -0.2318 -0.5993
  176SOPE   O2219988   4.209   2.943  10.619  0.7745 -0.2167 -0.4061
  176SOPE   C2219989   4.319   3.114  10.485  0.4967 -0.1462 -0.0001
  176SOPE   H2R19990   4.411   3.053  10.499  2.4670  2.8580  1.1031
  176SOPE   H2S19991   4.349   3.213  10.525  2.2004 -0.4628 -0.4156
  176SOPE    C319992   3.872   3.180  10.640 -0.5498  0.3557 -0.0017
  176SOPE    HX19993   3.885   3.277  10.692 -1.1789  0.2861  0.2898
  176SOPE    HY19994   3.780   3.140  10.688 -0.7474 -0.2268 -0.8334
  176SOPE   O3119995   3.855   3.204  10.503 -0.0419 -0.4265  0.4075
  176SOPE   C3119996   3.761   3.129  10.445  0.2113  0.5810 -0.1880
  176SOPE   O3219997   3.678   3.051  10.493 -0.1261  0.6308 -0.2264
  176SOPE   C3219998   3.763   3.153  10.294 -0.5588  0.3224 -0.0629
  176SOPE   H2X19999   3.765   3.262  10.274 -0.6548  0.4388  0.5355
  176SOPE   H2Y20000   3.677   3.110  10.239 -0.0867  1.7381 -2.0213
  176SOPE   C2320001   4.280   3.102  10.335 -0.1363 -0.3140 -0.1871
  176SOPE   H3R20002   4.203   3.180  10.317 -0.9200 -1.0042  0.0896
  176SOPE   H3S20003   4.247   3.001  10.303  1.4416 -0.5824 -1.0399
  176SOPE   C2420004   4.395   3.142  10.250 -0.2301  0.4459 -0.2748
  176SOPE   H4R20005   4.423   3.248  10.269  0.3409  0.1881  0.3448
  176SOPE   H4S20006   4.489   3.084  10.261 -1.2749 -1.6476 -1.7707
  176SOPE   C2520007   4.363   3.128  10.103  0.2433  0.8276  0.3118
  176SOPE   H5R20008   4.318   3.028  10.089  0.9203  0.7001 -1.1784
  176SOPE   H5S20009   4.276   3.189  10.069 -1.9649 -0.6432  2.8905
  176SOPE   C2620010   4.482   3.138  10.005  0.3174 -0.1549 -0.4983
  176SOPE   H6R20011   4.516   3.244  10.004 -0.9955  0.2739 -1.3967
  176SOPE   H6S20012   4.567   3.075  10.041 -0.0353 -0.3307  0.0258
  176SOPE   C2720013   4.452   3.082   9.867 -0.1704  0.0167  0.0362
  176SOPE   H7R20014   4.546   3.070   9.810 -1.2567 -1.6534 -1.5428
  176SOPE   H7S20015   4.409   2.981   9.881 -0.8353  0.4612  1.3690
  176SOPE   C2820016   4.353   3.171   9.789 -0.7077  0.0570 -0.4513
  176SOPE   H8R20017   4.266   3.180   9.858  0.5986  2.0023  1.0745
  176SOPE   H8S20018   4.394   3.274   9.780  2.7748 -1.1651 -0.0958
  176SOPE   C2920019   4.326   3.112   9.654  0.4513 -0.1698 -0.0578
  176SOPE   H9120020   4.276   3.015   9.662 -1.7577  1.0208  1.9202
  176SOPE  C21020021   4.360   3.165   9.539  0.2571  0.4950 -0.6325
  176SOPE  H10120022   4.338   3.107   9.447  0.2997  0.1921 -0.4535
  176SOPE  C21120023   4.440   3.292   9.500  1.1108  0.2086  0.0364
  176SOPE  H11R20024   4.530   3.264   9.442 -0.6169 -2.2734 -1.7095
  176SOPE  H11S20025   4.481   3.354   9.582  1.7367  1.1522 -0.9738
  176SOPE  C21220026   4.361   3.384   9.404 -0.0195 -0.2380 -0.5074
  176SOPE  H12R20027   4.285   3.443   9.459 -1.0206  0.2990 -2.3494
  176SOPE  H12S20028   4.298   3.321   9.337 -0.1218 -2.4910  1.5567
  176SOPE  C21320029   4.453   3.475   9.318 -0.0178  0.6926 -0.0448
  176SOPE  H13R20030   4.546   3.493   9.377 -1.0394  0.9464  1.5486
  176SOPE  H13S20031   4.401   3.571   9.301 -3.2261 -1.0922 -1.1490
  176SOPE  C21420032   4.485   3.408   9.186  0.5349  0.2107 -0.0038
  176SOPE  H14R20033   4.400   3.359   9.134  0.3723  1.4336 -0.9247
  176SOPE  H14S20034   4.544   3.317   9.211 -1.1362 -1.9200 -3.0748
  176SOPE  C21520035   4.569   3.492   9.098 -0.4638 -0.3413  0.6388
  176SOPE  H15R20036   4.620   3.434   9.018 -3.4864  0.6084 -2.1792
  176SOPE  H15S20037   4.649   3.535   9.162 -1.3345  2.1971  0.1205
  176SOPE  C21620038   4.489   3.598   9.022  0.1824  0.1779  0.1633
  176SOPE  H16R20039   4.431   3.654   9.100  1.3278  0.0517  1.1373
  176SOPE  H16S20040   4.416   3.543   8.959  1.3321 -2.0819  0.6945
  176SOPE  C21720041   4.572   3.691   8.930  0.5232 -0.1886 -0.3336
  176SOPE  H17R20042   4.657   3.746   8.975 -0.0020 -0.6229  1.2732
  176SOPE  H17S20043   4.501   3.774   8.910 -0.2416 -1.2485 -2.2751
  176SOPE  C21820044   4.618   3.622   8.801  0.7834 -0.9617  0.1693
  176SOPE  H18R20045   4.677   3.691   8.736  1.2181 -0.0131  1.5368
  176SOPE  H18S20046   4.528   3.592   8.743 -0.6884  1.2664  1.1683
  176SOPE  H18T20047   4.688   3.541   8.829  1.1247 -0.1986  1.6065
  176SOPE   C3320048   3.886   3.082  10.237  0.1338  0.6645 -0.0769
  176SOPE   H3X20049   3.859   2.975  10.219 -1.7447  1.0456  0.1877
  176SOPE   H3Y20050   3.968   3.079  10.312  0.2885  0.3382 -0.2571
  176SOPE   C3420051   3.957   3.125  10.107 -0.3888 -0.3875  0.3815
  176SOPE   H4X20052   4.043   3.059  10.083  1.2683  1.6782  0.2927
  176SOPE   H4Y20053   4.010   3.222  10.120 -1.1189  0.2686 -1.2351
  176SOPE   C3520054   3.860   3.138   9.979  0.2295  0.2806 -0.3335
  176SOPE   H5X20055   3.759   3.181  10.000 -0.0335  0.5630 -2.0049
  176SOPE   H5Y20056   3.829   3.032   9.966  1.5063 -0.0032 -1.1184
  176SOPE   C3620057   3.928   3.184   9.851  0.4597 -0.4440  0.4017
  176SOPE   H6X20058   4.034   3.150   9.842  0.9382  0.2483  2.7038
  176SOPE   H6Y20059   3.929   3.295   9.857 -1.8068 -0.4249  1.1151
  176SOPE   C3720060   3.854   3.171   9.714 -0.1128 -0.2168  0.4025
  176SOPE   H7X20061   3.762   3.232   9.710  0.3203  0.4347  0.3040
  176SOPE   H7Y20062   3.821   3.066   9.698  0.6400 -0.7910  2.3990
  176SOPE   C3820063   3.929   3.235   9.598 -0.1973 -0.0669 -0.0530
  176SOPE   H8X20064   4.028   3.188   9.583  1.2984  2.0890  2.2385
  176SOPE   H8Y20065   3.951   3.342   9.616  0.9725  0.5580 -4.2309
  176SOPE   C3920066   3.855   3.235   9.466  0.2477  0.1332  0.8306
  176SOPE   H9X20067   3.756   3.277   9.492 -0.3379 -0.5789 -0.2092
  176SOPE   H9Y20068   3.843   3.126   9.447  1.2946 -0.0123  0.9079
  176SOPE  C31020069   3.907   3.313   9.343  0.0633  0.8107  0.0293
  176SOPE  H10X20070   4.011   3.281   9.318 -0.3576  0.3994 -1.2356
  176SOPE  H10Y20071   3.917   3.423   9.355  1.4066  0.8469 -1.0606
  176SOPE  C31120072   3.813   3.285   9.218  0.4188  0.1325  0.3439
  176SOPE  H11X20073   3.708   3.285   9.254 -0.0966  0.0934 -1.1155
  176SOPE  H11Y20074   3.834   3.186   9.173 -1.6692  0.8134 -2.3837
  176SOPE  C31220075   3.823   3.401   9.117 -0.6773 -0.0461  0.1502
  176SOPE  H12X20076   3.917   3.386   9.060 -1.8354 -0.1300 -1.8463
  176SOPE  H12Y20077   3.810   3.501   9.163  0.9755  0.7988 -1.1220
  176SOPE  C31320078   3.708   3.395   9.018 -0.3535 -0.3866 -0.6252
  176SOPE  H13X20079   3.621   3.439   9.071  1.3541  1.5695  0.7159
  176SOPE  H13Y20080   3.692   3.288   8.994 -1.5086 -0.5952  0.9774
  176SOPE  C31420081   3.737   3.479   8.889 -0.7012 -0.3014  0.3242
  176SOPE  H14X20082   3.782   3.405   8.819 -0.7205  1.8030 -2.0810
  176SOPE  H14Y20083   3.802   3.565   8.913  0.5199 -0.2831 -2.6240
  176SOPE  C31520084   3.607   3.528   8.826  0.0660 -0.1907 -0.4533
  176SOPE  H15X20085   3.637   3.587   8.737  1.4914  1.6831  1.1926
  176SOPE  H15Y20086   3.552   3.596   8.895 -0.3959 -0.9115 -0.1004
  176SOPE  C31620087   3.496   3.431   8.789 -0.0069 -0.9205  0.1289
  176SOPE  H16X20088   3.408   3.489   8.753  1.6155  1.0889 -0.7656
  176SOPE  H16Y20089   3.459   3.369   8.874  0.4765 -1.1740  0.1568
  176SOPE  C31720090   3.539   3.328   8.681  0.3049 -0.1631 -0.0648
  176SOPE  H17X20091   3.608   3.252   8.724 -0.8766 -1.4034 -0.3140
  176SOPE  H17Y20092   3.589   3.375   8.593  0.5982 -3.1841 -1.6222
  176SOPE  C31820093   3.411   3.255   8.623  0.3111 -0.0192 -1.3323
  176SOPE  H18X20094   3.345   3.337   8.584  0.5218  1.2197  0.7672
  176SOPE  H18Y20095   3.357   3.216   8.712  0.5305  0.8151 -0.8218
  176SOPE  H18Z20096   3.432   3.186   8.539  0.2573  0.7674 -2.0115
  177SOPE     N20097   5.961   0.558  10.877 -0.1021 -0.0590 -0.0875
  177SOPE   HN120098   5.908   0.482  10.924  0.5367 -1.1680 -1.1116
  177SOPE   HN220099   5.902   0.644  10.879 -1.0753 -0.7067 -0.2586
  177SOPE   HN320100   5.954   0.531  10.776 -2.5101 -0.0515  0.0191
  177SOPE   C1220101   6.098   0.577  10.927 -0.1808 -0.2350 -0.2586
  177SOPE  H12A20102   6.159   0.491  10.893 -1.2828 -0.1325 -2.7152
  177SOPE  H12B20103   6.091   0.569  11.038  1.2172 -1.7425 -0.2344
  177SOPE   C1120104   6.152   0.725  10.900  0.0582  0.4268  0.0181
  177SOPE  H11A20105   6.156   0.750  10.792 -0.8364  0.3361 -0.0436
  177SOPE  H11B20106   6.253   0.738  10.945  0.0635  1.5197 -0.2884
  177SOPE     P20107   6.094   0.956  11.006 -0.1165 -0.5053 -0.1185
  177SOPE   O1320108   6.227   0.993  10.951  0.1376  0.0205  0.0032
  177SOPE   O1420109   6.067   0.970  11.154  0.1403 -0.1207  0.3635
  177SOPE   O1220110   6.064   0.805  10.974  0.3535 -0.8428  0.3241
  177SOPE   O1120111   5.978   1.034  10.921 -0.0293 -0.4163  0.1658
  177SOPE    C120112   5.937   0.971  10.794 -0.3761  0.1368  0.2733
  177SOPE    HA20113   5.827   0.961  10.806 -0.3056 -0.6867  0.2637
  177SOPE    HB20114   5.977   0.872  10.763 -1.2079  0.5116 -2.2404
  177SOPE    C220115   5.971   1.039  10.655 -0.4870 -0.1138 -0.3601
  177SOPE    HS20116   5.984   0.959  10.579  0.0190  0.3800 -0.8078
  177SOPE   O2120117   6.089   1.110  10.672  0.1031 -0.4967 -0.5078
  177SOPE   C2120118   6.206   1.055  10.664 -0.4597  0.3470  0.4191
  177SOPE   O2220119   6.230   0.935  10.653 -0.2927 -0.7398  0.0419
  177SOPE   C2220120   6.315   1.163  10.647  0.2783 -0.6848 -0.6919
  177SOPE   H2R20121   6.366   1.192  10.741 -1.8476 -0.3911  0.4392
  177SOPE   H2S20122   6.270   1.260  10.618  1.9502  0.0441 -0.9885
  177SOPE    C320123   5.854   1.138  10.614  0.1198 -0.2342  0.0091
  177SOPE    HX20124   5.850   1.222  10.687 -2.9734  1.1321 -1.5416
  177SOPE    HY20125   5.766   1.072  10.629 -0.1654  0.1673  0.1365
  177SOPE   O3120126   5.884   1.188  10.477 -0.7407  0.0658 -0.2587
  177SOPE   C3120127   5.880   1.313  10.458  0.8694  0.2367  0.8672
  177SOPE   O3220128   5.825   1.398  10.528 -0.8391  0.1020 -0.6042
  177SOPE   C3220129   5.932   1.346  10.314 -0.4805  0.2608  0.0163
  177SOPE   H2X20130   5.888   1.275  10.240 -1.7231  1.3420 -0.3127
  177SOPE   H2Y20131   6.039   1.317  10.315 -0.2444  1.0392 -0.6902
  177SOPE   C2320132   6.427   1.117  10.563 -0.5624  0.6737 -0.0372
  177SOPE   H3R20133   6.458   1.017  10.599 -3.7393  0.2540  1.8811
  177SOPE   H3S20134   6.519   1.178  10.579 -0.1808 -0.3145  1.7426
  177SOPE   C2420135   6.389   1.103  10.417  1.0888  0.0040  0.1374
  177SOPE   H4R20136   6.474   1.060  10.359  0.8896 -0.7642  0.4090
  177SOPE   H4S20137   6.299   1.039  10.411 -0.4319  1.9147  1.3636
  177SOPE   C2520138   6.355   1.237  10.367  0.2416 -1.0800 -0.3147
  177SOPE   H5R20139   6.259   1.275  10.406 -0.7844 -1.5144 -2.3164
  177SOPE   H5S20140   6.435   1.303  10.408  1.4574 -2.8992  0.3587
  177SOPE   C2620141   6.357   1.238  10.216  0.5649  0.0313  0.1451
  177SOPE   H6R20142   6.341   1.339  10.171 -1.5454 -0.6345 -0.6958
  177SOPE   H6S20143   6.456   1.205  10.179  0.0584 -1.5119  0.1140
  177SOPE   C2720144   6.246   1.140  10.164 -0.1924 -0.8035 -0.3446
  177SOPE   H7R20145   6.267   1.035  10.194  1.6512 -1.3789 -3.3332
  177SOPE   H7S20146   6.154   1.162  10.223 -0.2674 -2.5189  0.2526
  177SOPE   C2820147   6.228   1.137  10.017 -1.1130  0.6382  0.5675
  177SOPE   H8R20148   6.322   1.111   9.964 -0.7998  0.3446  1.2620
  177SOPE   H8S20149   6.158   1.052  10.001 -1.0831  0.9747 -1.6238
  177SOPE   C2920150   6.176   1.261   9.952 -0.4795  0.1140 -0.0722
  177SOPE   H9120151   6.069   1.274   9.973  0.1823  0.8134  3.5011
  177SOPE  C21020152   6.233   1.351   9.865 -0.6623  0.7018 -0.2917
  177SOPE  H10120153   6.161   1.417   9.815 -1.8569  1.0095  1.7393
  177SOPE  C21120154   6.371   1.342   9.800  0.6564  0.1212 -0.1358
  177SOPE  H11R20155   6.428   1.263   9.854 -1.8906 -1.9146 -0.2215
  177SOPE  H11S20156   6.421   1.440   9.811 -0.4285  0.5465  1.3138
  177SOPE  C21220157   6.351   1.303   9.655  0.4192 -0.5093  0.6694
  177SOPE  H12R20158   6.305   1.202   9.647  0.1191 -0.2788 -0.8786
  177SOPE  H12S20159   6.448   1.293   9.601  0.8839  3.2383  0.6042
  177SOPE  C21320160   6.271   1.395   9.562  0.8559 -0.1617 -0.0393
  177SOPE  H13R20161   6.297   1.502   9.574  0.6563  0.0018 -0.9614
  177SOPE  H13S20162   6.164   1.386   9.589  1.0018 -0.6581  0.3994
  177SOPE  C21420163   6.275   1.351   9.409 -0.2881 -0.7242 -0.0139
  177SOPE  H14R20164   6.209   1.262   9.399 -4.2669  2.0025 -0.2930
  177SOPE  H14S20165   6.382   1.327   9.389  0.0027  0.1240  0.4760
  177SOPE  C21520166   6.223   1.460   9.312 -0.2096 -0.7029  0.1650
  177SOPE  H15R20167   6.293   1.546   9.308  0.3479 -1.1178  0.8087
  177SOPE  H15S20168   6.126   1.510   9.336 -0.7840 -0.9478 -1.5586
  177SOPE  C21620169   6.221   1.414   9.165 -0.7273  0.8824  0.6893
  177SOPE  H16R20170   6.156   1.325   9.161  0.0567  0.2706  1.2504
  177SOPE  H16S20171   6.315   1.378   9.117 -1.9222  0.4684 -1.4699
  177SOPE  C21720172   6.171   1.536   9.085  0.2125 -0.2182  0.2999
  177SOPE  H17R20173   6.240   1.623   9.097 -0.0533 -0.0492  0.6188
  177SOPE  H17S20174   6.071   1.571   9.118 -0.1227  0.1996 -1.1106
  177SOPE  C21820175   6.167   1.506   8.937 -0.1622 -0.2836 -0.0037
  177SOPE  H18R20176   6.274   1.496   8.909 -0.4700 -1.0063 -0.9512
  177SOPE  H18S20177   6.116   1.591   8.887 -0.6612 -0.3570  0.3761
  177SOPE  H18T20178   6.109   1.414   8.917 -0.1661 -0.2278 -0.2532
  177SOPE   C3320179   5.924   1.494  10.287 -1.1540 -0.6060  0.6517
  177SOPE   H3X20180   5.976   1.557  10.363 -1.7670  0.3027  0.3301
  177SOPE   H3Y20181   5.819   1.529  10.280 -0.8078  0.0401 -2.6180
  177SOPE   C3420182   5.971   1.529  10.141 -0.1939 -0.8459 -0.2432
  177SOPE   H4X20183   6.062   1.467  10.125  0.0589 -0.2598 -1.0878
  177SOPE   H4Y20184   6.003   1.633  10.121  2.0733 -0.8920  2.4650
  177SOPE   C3520185   5.866   1.471  10.044 -0.0362 -0.6088 -0.1023
  177SOPE   H5X20186   5.778   1.527  10.084  0.8748  0.3171  0.6624
  177SOPE   H5Y20187   5.849   1.362  10.041  2.3544 -1.0057 -1.3375
  177SOPE   C3620188   5.902   1.508   9.901  0.7911 -0.3051  0.5388
  177SOPE   H6X20189   5.986   1.444   9.868  0.0628 -0.3343 -1.3448
  177SOPE   H6Y20190   5.940   1.613   9.896  0.1609  0.0419  2.2540
  177SOPE   C3720191   5.790   1.496   9.803  0.0850 -0.3267 -0.3346
  177SOPE   H7X20192   5.697   1.553   9.826 -0.6924 -0.8539 -2.0361
  177SOPE   H7Y20193   5.760   1.390   9.793  1.4270 -0.6177 -1.5048
  177SOPE   C3820194   5.835   1.540   9.664  0.0860  0.0093 -0.3471
  177SOPE   H8X20195   5.911   1.472   9.619 -0.7109 -0.7621 -0.5530
  177SOPE   H8Y20196   5.868   1.644   9.685 -0.1368 -0.0353  0.2344
  177SOPE   C3920197   5.719   1.540   9.562 -0.7041  0.8426  0.1713
  177SOPE   H9X20198   5.630   1.596   9.597 -1.1602 -0.2567  0.8423
  177SOPE   H9Y20199   5.690   1.438   9.526 -0.6206  0.3792  1.3603
  177SOPE  C31020200   5.769   1.609   9.434 -0.0034  0.3120  0.2001
  177SOPE  H10X20201   5.831   1.542   9.370 -0.9328  0.1641 -0.5731
  177SOPE  H10Y20202   5.839   1.689   9.468  2.2024 -1.2452 -0.3961
  177SOPE  C31120203   5.649   1.662   9.357  0.3281  0.0042 -0.2575
  177SOPE  H11X20204   5.594   1.724   9.431  0.5686  1.0999 -0.9699
  177SOPE  H11Y20205   5.583   1.579   9.324  0.0949 -1.5674  3.6097
  177SOPE  C31220206   5.699   1.752   9.251  0.1942  0.5096  0.2081
  177SOPE  H12X20207   5.790   1.805   9.287 -0.2315  0.0728  2.0333
  177SOPE  H12Y20208   5.623   1.832   9.241  1.0358  1.4512  1.0871
  177SOPE  C31320209   5.736   1.672   9.125 -0.5321  0.1668  0.1006
  177SOPE  H13X20210   5.649   1.620   9.079 -0.9575  1.3888 -0.4993
  177SOPE  H13Y20211   5.801   1.588   9.157  0.3907 -0.1781 -2.4586
  177SOPE  C31420212   5.810   1.748   9.011 -0.2458  0.2591  0.0532
  177SOPE  H14X20213   5.918   1.762   9.033 -0.1874  0.2664 -0.2370
  177SOPE  H14Y20214   5.767   1.850   8.999  0.1272  0.3525 -0.5495
  177SOPE  C31520215   5.788   1.680   8.873 -0.2411 -0.2020  0.1101
  177SOPE  H15X20216   5.683   1.648   8.863  0.0288 -1.6530  1.6831
  177SOPE  H15Y20217   5.855   1.592   8.862  1.1282  0.6908  1.0574
  177SOPE  C31620218   5.838   1.776   8.755  0.3767 -0.2452  0.6192
  177SOPE  H16X20219   5.884   1.864   8.804  0.4862  0.6681 -1.0477
  177SOPE  H16Y20220   5.744   1.808   8.705 -0.2614 -0.3381  1.7073
  177SOPE  C31720221   5.941   1.721   8.654  0.4954  0.2313 -0.7317
  177SOPE  H17X20222   5.883   1.651   8.592 -1.0195  0.0161  0.8412
  177SOPE  H17Y20223   6.032   1.683   8.706 -0.6985  0.1249  1.4181
  177SOPE  C31820224   6.000   1.839   8.574  0.9229  0.2963 -0.0644
  177SOPE  H18X20225   5.923   1.900   8.523 -0.1860  0.1372  1.3508
  177SOPE  H18Y20226   6.073   1.786   8.508 -1.7141 -0.8908 -2.2090
  177SOPE  H18Z20227   6.057   1.909   8.639 -0.0776  0.5385  0.5642
  178SOPE     N20228   1.503   1.471  10.668  0.0568 -0.2148 -0.1337
  178SOPE   HN120229   1.568   1.393  10.690  0.1925 -0.8945 -2.6629
  178SOPE   HN220230   1.459   1.450  10.577 -1.0111 -1.3510  0.6113
  178SOPE   HN320231   1.561   1.557  10.657  2.2252 -1.5369  0.2730
  178SOPE   C1220232   1.398   1.482  10.778 -0.4082  0.1267  0.4888
  178SOPE  H12A20233   1.445   1.519  10.872  1.8730  0.8213 -0.8267
  178SOPE  H12B20234   1.348   1.385  10.798 -1.2879  0.4153 -0.2533
  178SOPE   C1120235   1.284   1.575  10.753  0.2204  0.5495  0.8102
  178SOPE  H11A20236   1.202   1.552  10.824 -0.1416  0.6490  0.4251
  178SOPE  H11B20237   1.246   1.557  10.651  0.7975 -3.7500  1.1832
  178SOPE     P20238   1.217   1.818  10.787  0.3087  0.0120  0.1432
  178SOPE   O1320239   1.273   1.951  10.830  0.2258  0.2752 -0.3090
  178SOPE   O1420240   1.108   1.766  10.878  0.0422  0.6898 -0.3157
  178SOPE   O1220241   1.332   1.712  10.780  0.0528  0.4028  0.2499
  178SOPE   O1120242   1.165   1.841  10.645  0.5206  0.0405  0.6637
  178SOPE    C120243   1.242   1.823  10.530 -0.0838  0.1165  0.7417
  178SOPE    HA20244   1.236   1.716  10.502 -0.7614 -0.5456  3.1659
  178SOPE    HB20245   1.348   1.856  10.540  0.5790 -0.8839 -2.1951
  178SOPE    C220246   1.183   1.911  10.416 -0.4441  0.0672  0.1915
  178SOPE    HS20247   1.165   2.011  10.460 -2.5306 -0.6848  1.1689
  178SOPE   O2120248   1.066   1.849  10.360  0.5656 -0.2176 -0.4984
  178SOPE   C2120249   0.981   1.933  10.303  0.2517  0.1557 -0.4321
  178SOPE   O2220250   0.987   2.055  10.310 -1.2268 -0.2500 -0.1348
  178SOPE   C2220251   0.870   1.862  10.225  0.2228  1.0067  0.1844
  178SOPE   H2R20252   0.800   1.811  10.294 -2.2531  0.3910 -2.5850
  178SOPE   H2S20253   0.919   1.784  10.162 -0.0566 -0.0397  1.2148
  178SOPE    C320254   1.283   1.919  10.295 -0.1907 -0.0542  0.4201
  178SOPE    HX20255   1.383   1.956  10.328  0.0440 -0.5536  0.2749
  178SOPE    HY20256   1.238   1.997  10.230  0.0536 -0.9239 -0.8349
  178SOPE   O3120257   1.308   1.786  10.229  0.6417  0.4517 -0.6693
  178SOPE   C3120258   1.250   1.755  10.123 -0.0698  0.3053  0.6273
  178SOPE   O3220259   1.175   1.823  10.054  0.3835  0.6219 -0.3804
  178SOPE   C3220260   1.296   1.616  10.090  0.1718 -0.1887  0.4408
  178SOPE   H2X20261   1.280   1.545  10.174 -1.8647 -1.6419 -1.0788
  178SOPE   H2Y20262   1.406   1.623  10.075  0.5797 -1.7726  2.2944
  178SOPE   C2320263   0.773   1.946  10.142 -0.4204  0.1302  0.6630
  178SOPE   H3R20264   0.742   2.026  10.212  1.0133  0.3856  1.0553
  178SOPE   H3S20265   0.688   1.877  10.123  0.2251 -0.2514 -1.0270
  178SOPE   C2420266   0.841   2.009  10.013 -0.4561  0.3416  0.4093
  178SOPE   H4R20267   0.753   2.059   9.967 -0.3657  1.8841  1.8195
  178SOPE   H4S20268   0.929   2.075  10.031  1.6332 -2.4825  1.2136
  178SOPE   C2520269   0.888   1.902   9.908  0.1577  0.3027  0.0683
  178SOPE   H5R20270   0.970   1.835   9.943 -0.6172 -0.5094  0.3571
  178SOPE   H5S20271   0.805   1.837   9.876  0.5703  0.0459 -0.4984
  178SOPE   C2620272   0.948   1.972   9.782 -0.0869 -0.5411 -0.3200
  178SOPE   H6R20273   1.000   2.068   9.803  3.2207 -1.9007 -1.6262
  178SOPE   H6S20274   1.025   1.909   9.733 -0.1559 -0.6200 -0.3278
  178SOPE   C2720275   0.848   1.998   9.667  0.0528  0.2267  0.3120
  178SOPE   H7R20276   0.810   1.902   9.626 -0.5877  1.0836 -1.1761
  178SOPE   H7S20277   0.773   2.060   9.720  0.8638  2.1554 -0.6941
  178SOPE   C2820278   0.907   2.097   9.558 -0.3589  0.2486 -0.5803
  178SOPE   H8R20279   0.811   2.130   9.513 -1.1400 -0.3164  0.6357
  178SOPE   H8S20280   0.960   2.174   9.618  2.1372 -1.5437 -0.2782
  178SOPE   C2920281   0.998   2.043   9.450  0.1677 -0.1551 -0.3354
  178SOPE   H9120282   1.107   2.053   9.459  0.3176 -0.6022 -1.4763
  178SOPE  C21020283   0.957   1.983   9.340 -0.0078 -0.0255 -0.4344
  178SOPE  H10120284   1.026   1.932   9.272  0.2075 -0.6313  0.2296
  178SOPE  C21120285   0.811   1.960   9.307 -0.0580  0.4295 -0.1044
  178SOPE  H11R20286   0.739   2.040   9.335 -1.9453 -1.8882  2.1836
  178SOPE  H11S20287   0.775   1.866   9.354 -0.2526  0.6424  0.1796
  178SOPE  C21220288   0.807   1.931   9.154  0.4665  0.6804 -0.5493
  178SOPE  H12R20289   0.711   1.877   9.136  0.1708  0.9609  0.1368
  178SOPE  H12S20290   0.888   1.860   9.127 -0.8530 -1.0039 -0.2632
  178SOPE  C21320291   0.808   2.065   9.075 -0.4254  0.0202 -1.1956
  178SOPE  H13R20292   0.901   2.115   9.110 -1.0619  0.5995 -0.2738
  178SOPE  H13S20293   0.722   2.127   9.109  0.6521  3.0060 -3.4456
  178SOPE  C21420294   0.810   2.043   8.927  0.8874 -0.3142 -0.2802
  178SOPE  H14R20295   0.882   1.960   8.913 -0.6543 -2.0014  1.1623
  178SOPE  H14S20296   0.860   2.130   8.879 -0.2400 -0.1334 -1.1849
  178SOPE  C21520297   0.681   2.018   8.860  0.6222  0.7115 -0.4799
  178SOPE  H15R20298   0.674   2.069   8.761 -2.5250  0.5102 -0.4631
  178SOPE  H15S20299   0.596   2.059   8.918  0.8329 -0.5074  0.7400
  178SOPE  C21620300   0.660   1.867   8.833  0.4640 -0.8787  0.6844
  178SOPE  H16R20301   0.676   1.817   8.931 -1.1548 -0.5905  1.1280
  178SOPE  H16S20302   0.723   1.811   8.760 -0.5888 -2.0806  0.6545
  178SOPE  C21720303   0.510   1.830   8.805  0.0631 -0.1079 -0.4450
  178SOPE  H17R20304   0.510   1.724   8.774 -0.0669 -0.3603  0.3798
  178SOPE  H17S20305   0.470   1.883   8.716  0.5127 -0.1185 -0.6591
  178SOPE  C21820306   0.432   1.858   8.930 -0.1519  0.1888  0.0783
  178SOPE  H18R20307   0.475   1.807   9.018  2.6394 -0.0350 -1.3119
  178SOPE  H18S20308   0.324   1.832   8.918 -0.1245 -0.1040  0.4428
  178SOPE  H18T20309   0.427   1.967   8.947 -4.8448  0.1037  0.6411
  178SOPE   C3320310   1.215   1.556   9.975 -0.5233 -0.5415  0.6112
  178SOPE   H3X20311   1.106   1.578   9.979 -0.5250 -0.2697 -0.6181
  178SOPE   H3Y20312   1.203   1.445   9.979  1.2911 -0.9860 -2.7836
  178SOPE   C3420313   1.263   1.605   9.837 -0.3590 -0.8608 -0.3655
  178SOPE   H4X20314   1.371   1.581   9.826  0.2530  1.1308  0.7918
  178SOPE   H4Y20315   1.238   1.713   9.835 -3.5468 -1.4039  2.0234
  178SOPE   C3520316   1.174   1.556   9.724  0.1966  0.6343 -0.0254
  178SOPE   H5X20317   1.071   1.595   9.742  0.8180  2.4524 -0.2317
  178SOPE   H5Y20318   1.165   1.446   9.738  0.3508  0.8802  2.3429
  178SOPE   C3620319   1.218   1.585   9.584  0.0426 -0.0477 -0.3578
  178SOPE   H6X20320   1.320   1.551   9.556 -0.1645  0.7815 -2.3096
  178SOPE   H6Y20321   1.212   1.694   9.564 -1.0834  0.0142  0.2407
  178SOPE   C3720322   1.126   1.509   9.483 -0.1343  0.5742 -0.1315
  178SOPE   H7X20323   1.020   1.538   9.501 -0.3280 -1.0751  1.6907
  178SOPE   H7Y20324   1.131   1.401   9.506 -2.1371  0.6339  0.8347
  178SOPE   C3820325   1.137   1.544   9.337 -0.0365 -0.2464 -0.4557
  178SOPE   H8X20326   1.224   1.498   9.286 -1.3344 -2.6625 -0.6135
  178SOPE   H8Y20327   1.154   1.654   9.335  2.8566 -0.5939  0.5609
  178SOPE   C3920328   1.015   1.503   9.252  0.9557  0.7347 -0.3067
  178SOPE   H9X20329   0.928   1.551   9.301  1.0557 -1.2815  2.0418
  178SOPE   H9Y20330   0.993   1.395   9.259  1.8137  0.4031 -2.1877
  178SOPE  C31020331   1.030   1.543   9.111 -0.1277 -0.2747  0.4261
  178SOPE  H10X20332   1.121   1.490   9.077 -1.3717 -3.1207  1.2585
  178SOPE  H10Y20333   1.045   1.653   9.103  1.3834 -0.5326 -0.8377
  178SOPE  C31120334   0.926   1.506   9.007  0.6195 -0.0725 -0.5751
  178SOPE  H11X20335   0.833   1.568   9.015  0.3428 -0.6375  1.0861
  178SOPE  H11Y20336   0.893   1.404   9.036  1.5297 -0.4821 -0.9503
  178SOPE  C31220337   0.976   1.533   8.871  0.0697  0.4102 -0.1692
  178SOPE  H12X20338   1.087   1.523   8.870 -0.0549 -2.2542  1.4458
  178SOPE  H12Y20339   0.961   1.640   8.847  1.6461  1.0119  1.3427
  178SOPE  C31320340   0.902   1.442   8.767  0.2323 -0.0523  0.3340
  178SOPE  H13X20341   0.793   1.462   8.779  0.4179  0.9623  0.4606
  178SOPE  H13Y20342   0.910   1.345   8.819  0.6169  1.5290  3.4412
  178SOPE  C31420343   0.961   1.464   8.621  0.2289  0.4440 -0.4609
  178SOPE  H14X20344   1.070   1.484   8.618  0.5869 -1.2628 -0.1571
  178SOPE  H14Y20345   0.907   1.556   8.591 -0.7373  0.7447  1.9815
  178SOPE  C31520346   0.921   1.352   8.525  0.1287 -0.3939 -0.2908
  178SOPE  H15X20347   0.811   1.357   8.510  0.3620 -0.1043 -2.2256
  178SOPE  H15Y20348   0.945   1.248   8.555  1.9013 -0.0298 -0.3111
  178SOPE  C31620349   0.954   1.368   8.372  0.2952  0.0343  0.6583
  178SOPE  H16X20350   1.065   1.356   8.369  0.4904  1.6860 -0.4898
  178SOPE  H16Y20351   0.927   1.475   8.355 -0.8153 -0.4725 -0.9623
  178SOPE  C31720352   0.874   1.276   8.284 -0.1906  0.6187  0.0077
  178SOPE  H17X20353   0.890   1.301   8.177 -0.0550  0.8222  0.0761
  178SOPE  H17Y20354   0.769   1.303   8.308 -0.7416 -1.3608 -0.0015
  178SOPE  C31820355   0.870   1.125   8.318  0.0344  0.9715  0.2740
  178SOPE  H18X20356   0.978   1.099   8.329  0.0237  1.5617  2.0646
  178SOPE  H18Y20357   0.824   1.063   8.238 -0.9315  0.7726  0.9702
  178SOPE  H18Z20358   0.825   1.103   8.417 -0.9457 -2.0740 -0.7415
  179SOPE     N20359   6.104   1.637   6.567 -0.1954 -0.0776 -0.1315
  179SOPE   HN120360   6.134   1.549   6.613 -2.2531 -0.8143 -0.1200
  179SOPE   HN220361   6.005   1.615   6.548  0.2061 -0.3158 -2.1409
  179SOPE   HN320362   6.153   1.640   6.475  0.1518 -3.9786 -0.2034
  179SOPE   C1220363   6.125   1.752   6.648  0.3637 -0.7248 -0.0159
  179SOPE  H12A20364   6.132   1.842   6.583  1.1036  0.1473  1.2230
  179SOPE  H12B20365   6.227   1.735   6.690 -0.5189 -2.7750  1.4361
  179SOPE   C1120366   6.007   1.785   6.745 -0.1163 -0.2101 -0.5682
  179SOPE  H11A20367   6.044   1.871   6.804  3.3583 -2.3412  0.6315
  179SOPE  H11B20368   5.996   1.704   6.820 -1.8787  1.9495  1.6957
  179SOPE     P20369   5.750   1.799   6.738  0.2644  0.1366 -0.3792
  179SOPE   O1320370   5.704   1.657   6.720 -0.7838 -0.6990 -0.2656
  179SOPE   O1420371   5.666   1.905   6.683 -0.4452  0.2226 -0.2204
  179SOPE   O1220372   5.888   1.805   6.673 -0.3483 -0.2993 -0.0842
  179SOPE   O1120373   5.787   1.827   6.891  0.5494 -0.2181  0.3460
  179SOPE    C120374   5.728   1.740   6.988 -1.2327  0.5157  0.5613
  179SOPE    HA20375   5.754   1.637   6.956 -2.1338 -0.1736  1.9232
  179SOPE    HB20376   5.618   1.752   6.979 -1.2943 -0.6158 -0.5031
  179SOPE    C220377   5.802   1.766   7.129 -0.0848 -0.3552 -0.1882
  179SOPE    HS20378   5.912   1.760   7.119  0.0473 -0.7504  1.3088
  179SOPE   O2120379   5.741   1.663   7.218 -0.5853 -0.6159 -0.1029
  179SOPE   C2120380   5.822   1.571   7.253  0.2116  0.7385  0.0382
  179SOPE   O2220381   5.941   1.556   7.224 -0.1405 -0.2904  0.0737
  179SOPE   C2220382   5.740   1.471   7.336  0.5092  0.0654 -0.4233
  179SOPE   H2R20383   5.749   1.373   7.284  2.8184  1.2914 -2.5546
  179SOPE   H2S20384   5.631   1.487   7.351  0.7295 -0.2939  1.8446
  179SOPE    C320385   5.748   1.903   7.172 -0.5006 -1.2043 -0.1108
  179SOPE    HX20386   5.640   1.884   7.194 -0.5052  0.3458  1.4047
  179SOPE    HY20387   5.742   1.968   7.083 -1.6136  0.5153  1.1477
  179SOPE   O3120388   5.825   1.960   7.291 -0.1469 -0.2997 -0.1121
  179SOPE   C3120389   5.940   2.017   7.248  0.5529 -0.3651 -0.0076
  179SOPE   O3220390   5.986   2.024   7.138  0.2438 -0.2430 -0.3631
  179SOPE   C3220391   5.999   2.088   7.371  0.0900 -0.1545  0.2447
  179SOPE   H2X20392   5.912   2.151   7.397  1.1297  1.2581  0.3783
  179SOPE   H2Y20393   6.084   2.155   7.344 -0.3489 -0.3095 -1.7117
  179SOPE   C2320394   5.785   1.477   7.485  0.1509 -0.1198 -0.2867
  179SOPE   H3R20395   5.894   1.457   7.481 -0.1057 -1.4071 -1.2629
  179SOPE   H3S20396   5.733   1.401   7.546  0.0599 -0.7491 -1.1395
  179SOPE   C2420397   5.766   1.616   7.543  0.4208  0.2665  0.5558
  179SOPE   H4R20398   5.832   1.691   7.493  0.7088  0.5775  1.3725
  179SOPE   H4S20399   5.659   1.647   7.537  0.2194 -0.6836 -1.5960
  179SOPE   C2520400   5.800   1.612   7.690  0.4426  0.0637  0.1376
  179SOPE   H5R20401   5.881   1.536   7.696  0.6946  0.1363 -1.5984
  179SOPE   H5S20402   5.853   1.704   7.722  3.9058 -1.1230 -1.6181
  179SOPE   C2620403   5.680   1.596   7.777 -0.0035  0.4253 -0.7442
  179SOPE   H6R20404   5.602   1.670   7.750  1.2330  2.0194 -0.1090
  179SOPE   H6S20405   5.629   1.498   7.760 -0.4541  0.2314  1.4582
  179SOPE   C2720406   5.711   1.591   7.929 -0.1997 -0.6316 -0.2611
  179SOPE   H7R20407   5.768   1.497   7.943  0.7388 -0.2009 -1.0782
  179SOPE   H7S20408   5.775   1.681   7.944 -0.7665 -0.4342  1.0707
  179SOPE   C2820409   5.591   1.595   8.017 -0.0513 -0.9010 -0.3921
  179SOPE   H8R20410   5.542   1.694   8.008  2.8854  0.5956 -1.1648
  179SOPE   H8S20411   5.520   1.518   7.979 -0.5704  0.2693 -1.9180
  179SOPE   C2920412   5.627   1.575   8.161  0.8290 -0.0855 -1.2362
  179SOPE   H9120413   5.614   1.474   8.204  2.2884  0.8819  1.7850
  179SOPE  C21020414   5.684   1.663   8.248 -0.5774 -0.0356  0.2846
  179SOPE  H10120415   5.715   1.640   8.351  0.9955  0.3445 -0.0745
  179SOPE  C21120416   5.729   1.796   8.193 -0.1305 -0.1337 -0.2672
  179SOPE  H11R20417   5.734   1.806   8.083  0.1771  0.6944 -0.1818
  179SOPE  H11S20418   5.832   1.823   8.225  0.3152 -0.5221 -1.3262
  179SOPE  C21220419   5.626   1.901   8.255 -0.0614  0.3410 -0.4074
  179SOPE  H12R20420   5.523   1.864   8.236  0.1516 -0.8001  0.5600
  179SOPE  H12S20421   5.633   2.007   8.220 -2.7999  1.5710  2.3271
  179SOPE  C21320422   5.621   1.907   8.408 -0.0308  0.6912 -0.1619
  179SOPE  H13R20423   5.726   1.925   8.441  0.9266 -1.1268 -1.9940
  179SOPE  H13S20424   5.606   1.801   8.437  0.5445  1.3389  2.8483
  179SOPE  C21420425   5.520   2.002   8.470 -0.5760  0.6287 -0.2060
  179SOPE  H14R20426   5.470   1.956   8.558 -1.4103  3.0694  0.6613
  179SOPE  H14S20427   5.443   2.026   8.394 -1.9570 -2.2103  0.1741
  179SOPE  C21520428   5.581   2.128   8.535  0.7635  0.4581  0.4324
  179SOPE  H15R20429   5.640   2.174   8.452  2.1518 -3.0216 -0.6935
  179SOPE  H15S20430   5.641   2.107   8.626  0.0800 -1.8216  0.4195
  179SOPE  C21620431   5.477   2.217   8.585  0.4959  0.2143 -0.5456
  179SOPE  H16R20432   5.441   2.191   8.687  2.9894 -3.0313 -0.3298
  179SOPE  H16S20433   5.390   2.210   8.517 -1.0242  2.5570  1.0076
  179SOPE  C21720434   5.513   2.365   8.577  0.8318 -0.1119  0.1308
  179SOPE  H17R20435   5.552   2.383   8.474  3.4032 -3.7271  0.2726
  179SOPE  H17S20436   5.598   2.396   8.642  0.6510 -2.1801  1.4180
  179SOPE  C21820437   5.389   2.460   8.586  0.0931 -0.1442 -0.1472
  179SOPE  H18R20438   5.320   2.422   8.507 -1.0940  1.7490 -0.0953
  179SOPE  H18S20439   5.408   2.564   8.553 -0.1797 -0.1221 -0.2408
  179SOPE  H18T20440   5.350   2.452   8.690 -1.1823 -0.3690 -0.6206
  179SOPE   C3320441   6.036   1.987   7.476 -0.0369 -0.0474 -0.0468
  179SOPE   H3X20442   6.139   1.949   7.457 -1.0403 -3.7584  1.1396
  179SOPE   H3Y20443   5.975   1.895   7.470 -0.0755  0.0602 -2.1179
  179SOPE   C3420444   6.030   2.045   7.613  0.0208 -0.7387  0.2846
  179SOPE   H4X20445   5.925   2.074   7.637  0.4893 -1.6234  3.8618
  179SOPE   H4Y20446   6.087   2.140   7.608 -1.3144  0.0498 -1.4252
  179SOPE   C3520447   6.093   1.954   7.714  0.5899  0.0313 -0.3406
  179SOPE   H5X20448   6.195   1.921   7.684  1.5992  2.0158  0.6829
  179SOPE   H5Y20449   6.016   1.875   7.722 -0.9043  1.5725  1.6896
  179SOPE   C3620450   6.110   2.022   7.854 -0.4179 -0.2345 -0.1947
  179SOPE   H6X20451   6.164   2.116   7.834 -1.1973  0.6278  1.5371
  179SOPE   H6Y20452   6.179   1.961   7.917 -1.0035 -1.5580 -0.7870
  179SOPE   C3720453   5.982   2.043   7.926  0.0461 -0.4076  0.6746
  179SOPE   H7X20454   5.914   1.956   7.927  2.6274 -2.5782 -0.6540
  179SOPE   H7Y20455   5.929   2.128   7.879  0.6050 -0.3794  0.0897
  179SOPE   C3820456   6.008   2.102   8.070  1.2449 -0.3054 -0.0312
  179SOPE   H8X20457   6.083   2.183   8.066  1.6171 -0.6921 -1.6297
  179SOPE   H8Y20458   6.048   2.026   8.141 -0.3239  0.1888  1.4507
  179SOPE   C3920459   5.880   2.164   8.137 -0.0140 -0.3305  0.5393
  179SOPE   H9X20460   5.791   2.100   8.116  0.5890 -1.4048  1.1438
  179SOPE   H9Y20461   5.866   2.261   8.084 -1.7366 -2.1236 -2.6142
  179SOPE  C31020462   5.889   2.174   8.286  0.4104 -0.1725 -0.2496
  179SOPE  H10X20463   5.900   2.079   8.342  0.5362  0.9587  1.7307
  179SOPE  H10Y20464   5.800   2.225   8.329 -0.1400  0.5780 -2.1740
  179SOPE  C31120465   6.013   2.253   8.333  1.0932 -0.3787  0.3339
  179SOPE  H11X20466   6.007   2.363   8.320 -0.3717 -0.4667  0.1681
  179SOPE  H11Y20467   6.107   2.216   8.287  0.5938 -1.3498  0.0587
  179SOPE  C31220468   6.042   2.237   8.486  0.7065  0.3881  0.4868
  179SOPE  H12X20469   6.128   2.298   8.521  1.0789 -0.7514  1.6424
  179SOPE  H12Y20470   6.083   2.134   8.499 -2.6736 -0.9231  2.0393
  179SOPE  C31320471   5.918   2.249   8.574  0.1148  0.1344  0.3509
  179SOPE  H13X20472   5.848   2.169   8.543  1.5453 -1.0133 -0.0188
  179SOPE  H13Y20473   5.866   2.347   8.561  1.2137  0.8282  1.0066
  179SOPE  C31420474   5.928   2.230   8.729  0.2648 -0.0330 -0.2892
  179SOPE  H14X20475   6.002   2.150   8.749 -0.6063 -0.1683  2.9215
  179SOPE  H14Y20476   5.831   2.186   8.760  0.9406 -1.3254  0.0794
  179SOPE  C31520477   5.961   2.353   8.810 -0.4613 -0.3167 -0.8422
  179SOPE  H15X20478   5.889   2.436   8.794 -1.2241 -0.6442  0.7348
  179SOPE  H15Y20479   6.057   2.402   8.782 -0.9903 -0.1418 -2.4500
  179SOPE  C31620480   5.966   2.326   8.962  0.7026  0.0134  0.6648
  179SOPE  H16X20481   5.878   2.280   9.013  2.2789 -0.0593  3.5661
  179SOPE  H16Y20482   5.984   2.422   9.015 -0.5873  1.6465 -1.7160
  179SOPE  C31720483   6.073   2.228   9.011 -0.3171  1.3656 -0.5424
  179SOPE  H17X20484   6.171   2.279   8.998 -0.4822  1.4862 -1.3488
  179SOPE  H17Y20485   6.066   2.133   8.954  0.6411 -0.4667  2.1824
  179SOPE  C31820486   6.049   2.196   9.161 -0.0134  0.2559 -0.3823
  179SOPE  H18X20487   6.131   2.137   9.208 -0.5079 -0.3362 -0.2469
  179SOPE  H18Y20488   5.950   2.145   9.162  0.5548 -0.8951  0.3947
  179SOPE  H18Z20489   6.027   2.283   9.226 -3.5665 -0.2179 -0.7384
  180SOPE     N20490   4.594   0.755   6.081  0.0620  0.1100 -0.6549
  180SOPE   HN120491   4.603   0.772   5.978 -1.6744  1.4262 -0.6291
  180SOPE   HN220492   4.500   0.715   6.099 -0.1310  0.7307 -0.2668
  180SOPE   HN320493   4.623   0.837   6.138  0.2110 -0.9324  0.8334
  180SOPE   C1220494   4.692   0.648   6.114 -0.3253 -0.1412  0.3100
  180SOPE  H12A20495   4.789   0.676   6.067 -0.8439 -0.3863 -0.9502
  180SOPE  H12B20496   4.658   0.553   6.067  0.6300 -0.7795  0.8857
  180SOPE   C1120497   4.724   0.628   6.260 -0.4172  0.0326  0.3187
  180SOPE  H11A20498   4.773   0.720   6.298  2.7851 -0.7767 -1.4502
  180SOPE  H11B20499   4.805   0.554   6.275  0.1584  0.7086  0.5944
  180SOPE     P20500   4.585   0.655   6.471 -0.1101  0.5791 -0.0191
  180SOPE   O1320501   4.487   0.572   6.556 -0.4522 -0.1796  0.0019
  180SOPE   O1420502   4.547   0.792   6.446 -0.3708 -0.1068 -0.0600
  180SOPE   O1220503   4.610   0.588   6.333 -0.2845 -1.0664  0.1780
  180SOPE   O1120504   4.724   0.643   6.542  0.2363 -0.4055  0.3278
  180SOPE    C120505   4.769   0.518   6.589  0.1137  0.0202 -0.0902
  180SOPE    HA20506   4.879   0.528   6.588  0.1464 -0.3948 -0.8351
  180SOPE    HB20507   4.745   0.434   6.520  2.6593 -0.1530 -0.8745
  180SOPE    C220508   4.728   0.480   6.736  0.2109 -0.3878  0.1688
  180SOPE    HS20509   4.617   0.465   6.737 -0.3741  2.9659 -1.3021
  180SOPE   O2120510   4.764   0.593   6.825  0.0216  0.3785 -0.0621
  180SOPE   C2120511   4.678   0.623   6.920  0.9489  0.3889 -0.0183
  180SOPE   O2220512   4.577   0.558   6.948  0.3835  0.1352 -0.0959
  180SOPE   C2220513   4.721   0.753   6.978  0.3482 -1.3771  0.0313
  180SOPE   H2R20514   4.652   0.835   6.949  1.1163 -0.6970  0.1104
  180SOPE   H2S20515   4.817   0.791   6.938 -0.7884  0.1226 -1.4225
  180SOPE    C320516   4.811   0.366   6.773  0.1788  0.0888 -0.0876
  180SOPE    HX20517   4.919   0.388   6.759  0.8306 -1.3558  2.0631
  180SOPE    HY20518   4.792   0.278   6.708 -1.3605 -1.3314  2.1293
  180SOPE   O3120519   4.803   0.328   6.917 -1.2017 -0.5115 -0.2160
  180SOPE   C3120520   4.702   0.258   6.950 -0.1297  1.2513  0.6191
  180SOPE   O3220521   4.620   0.212   6.874 -0.6875  0.3148  0.2119
  180SOPE   C3220522   4.708   0.232   7.101 -0.0805  0.5778 -0.9058
  180SOPE   H2X20523   4.697   0.328   7.155 -0.8602 -0.4192  0.7980
  180SOPE   H2Y20524   4.811   0.194   7.116  0.0623  1.5345  0.6675
  180SOPE   C2320525   4.718   0.741   7.127 -0.3582  0.0106 -1.2493
  180SOPE   H3R20526   4.797   0.810   7.163 -2.0850  1.2253  0.4421
  180SOPE   H3S20527   4.744   0.641   7.168 -1.7546 -1.1533 -3.0592
  180SOPE   C2420528   4.582   0.782   7.186 -0.0176 -0.2339  0.6015
  180SOPE   H4R20529   4.563   0.891   7.181 -1.1544 -0.3077  2.3286
  180SOPE   H4S20530   4.494   0.746   7.127 -0.7230  0.0054  1.4876
  180SOPE   C2520531   4.557   0.730   7.321  0.6208 -0.4631  0.3690
  180SOPE   H5R20532   4.448   0.731   7.344  0.5535 -2.8862  0.3529
  180SOPE   H5S20533   4.590   0.625   7.328 -5.6868 -3.0804 -1.6151
  180SOPE   C2620534   4.618   0.809   7.435 -0.0093 -0.1459 -0.5420
  180SOPE   H6R20535   4.711   0.862   7.405 -1.4124  2.3629 -0.6536
  180SOPE   H6S20536   4.545   0.891   7.451  1.8536  1.4101  0.3916
  180SOPE   C2720537   4.635   0.726   7.564  0.0196 -0.4900  0.2359
  180SOPE   H7R20538   4.540   0.712   7.620  1.1250 -2.9852  1.5807
  180SOPE   H7S20539   4.677   0.628   7.535  0.7841  0.6337 -2.9730
  180SOPE   C2820540   4.730   0.796   7.665  0.5421 -0.4564 -0.0851
  180SOPE   H8R20541   4.703   0.756   7.765  1.3384 -0.1927  0.2518
  180SOPE   H8S20542   4.837   0.772   7.643  1.1406  1.2950  0.6701
  180SOPE   C2920543   4.716   0.944   7.670 -0.8041  0.4302 -0.4261
  180SOPE   H9120544   4.795   1.001   7.618 -0.1640 -0.7543 -0.7870
  180SOPE  C21020545   4.629   1.017   7.746  0.3429 -0.9348 -0.3378
  180SOPE  H10120546   4.640   1.126   7.755  4.3231 -1.2141  0.1938
  180SOPE  C21120547   4.521   0.957   7.838 -0.8082 -0.3631  0.5037
  180SOPE  H11R20548   4.516   0.846   7.845  0.4435 -0.3540  2.1176
  180SOPE  H11S20549   4.421   0.990   7.803 -0.8723 -1.0817 -0.0051
  180SOPE  C21220550   4.531   0.997   7.992  0.4532  0.5613  0.3368
  180SOPE  H12R20551   4.638   0.981   8.020  0.5249 -1.4067 -0.8571
  180SOPE  H12S20552   4.469   0.917   8.039  0.8876 -0.4792 -0.8049
  180SOPE  C21320553   4.477   1.134   8.023  0.1009 -0.3086 -0.2706
  180SOPE  H13R20554   4.382   1.148   7.967  0.4330  0.6338 -0.6313
  180SOPE  H13S20555   4.545   1.207   7.973 -3.2145  2.8389 -0.6065
  180SOPE  C21420556   4.477   1.162   8.174 -0.0434  1.0007  0.0724
  180SOPE  H14R20557   4.396   1.237   8.179  0.1460  1.4565 -2.2548
  180SOPE  H14S20558   4.577   1.198   8.206  0.4213  0.6090 -0.8801
  180SOPE  C21520559   4.443   1.038   8.271 -0.8525 -0.4463  0.3256
  180SOPE  H15R20560   4.537   0.978   8.265 -1.3077 -1.1009 -0.8044
  180SOPE  H15S20561   4.364   0.982   8.216  0.6197 -2.2266 -0.0835
  180SOPE  C21620562   4.395   1.086   8.407  0.0040  0.0283  0.9282
  180SOPE  H16R20563   4.356   0.996   8.459  0.5446 -0.9658 -0.3595
  180SOPE  H16S20564   4.320   1.169   8.402  0.2329  0.1587 -1.1647
  180SOPE  C21720565   4.499   1.144   8.506  0.3047  0.6891  0.5730
  180SOPE  H17R20566   4.556   1.211   8.438 -0.4999  0.7911 -0.0223
  180SOPE  H17S20567   4.574   1.068   8.536  3.8702  2.9054 -1.9434
  180SOPE  C21820568   4.438   1.214   8.625 -0.1887 -0.6786  0.0386
  180SOPE  H18R20569   4.509   1.291   8.663  0.6036 -0.9035 -0.9459
  180SOPE  H18S20570   4.419   1.145   8.710 -1.5953 -0.3747 -0.0081
  180SOPE  H18T20571   4.345   1.270   8.602  1.3558  1.6908 -0.8631
  180SOPE   C3320572   4.617   0.126   7.157  0.5839 -0.6680  0.5172
  180SOPE   H3X20573   4.615   0.048   7.079  0.2899  0.2907 -0.4520
  180SOPE   H3Y20574   4.514   0.166   7.153  0.9197  0.1443 -0.7203
  180SOPE   C3420575   4.666   0.096   7.301 -0.6839  0.1332 -0.4628
  180SOPE   H4X20576   4.775   0.081   7.289 -0.9756 -1.5480 -1.2434
  180SOPE   H4Y20577   4.612   0.001   7.323  0.0986 -0.7653 -2.2554
  180SOPE   C3520578   4.629   0.195   7.414 -0.0659  0.5064 -0.3248
  180SOPE   H5X20579   4.518   0.201   7.412  0.0101  3.4899 -1.1832
  180SOPE   H5Y20580   4.663   0.300   7.397 -0.1122  0.6477  0.4429
  180SOPE   C3620581   4.668   0.160   7.554 -0.0173 -0.4900  0.3372
  180SOPE   H6X20582   4.773   0.124   7.540 -0.1303 -0.5833 -0.2981
  180SOPE   H6Y20583   4.610   0.070   7.581 -1.9870  0.3683 -0.8111
  180SOPE   C3720584   4.659   0.272   7.652  0.2110 -0.7094 -0.1552
  180SOPE   H7X20585   4.548   0.275   7.659  0.1844  0.7389 -0.8062
  180SOPE   H7Y20586   4.699   0.366   7.609 -0.2605  0.9268  2.7771
  180SOPE   C3820587   4.719   0.241   7.788 -0.6012  0.0481  1.0358
  180SOPE   H8X20588   4.828   0.255   7.775 -1.0314  2.2270 -0.8228
  180SOPE   H8Y20589   4.689   0.140   7.822  0.6236 -0.5467  0.3882
  180SOPE   C3920590   4.672   0.350   7.895  0.7519  0.7906 -0.0144
  180SOPE   H9X20591   4.564   0.332   7.914  0.5617  1.4655 -0.3961
  180SOPE   H9Y20592   4.682   0.455   7.859  2.2183  0.9005  0.6304
  180SOPE  C31020593   4.751   0.337   8.028  0.4120  0.8056 -0.1826
  180SOPE  H10X20594   4.700   0.402   8.102  0.7538 -0.0599  0.8451
  180SOPE  H10Y20595   4.859   0.363   8.033  0.1246  1.8833  1.1356
  180SOPE  C31120596   4.748   0.200   8.091  1.0503 -0.8137  0.1655
  180SOPE  H11X20597   4.778   0.122   8.018 -0.4757 -0.9637 -0.3365
  180SOPE  H11Y20598   4.643   0.172   8.112  0.5217  1.4721  0.7707
  180SOPE  C31220599   4.826   0.180   8.220  0.0921 -0.2845 -0.0487
  180SOPE  H12X20600   4.804   0.264   8.290  1.0179  1.2744 -1.5668
  180SOPE  H12Y20601   4.936   0.184   8.207  0.0214 -0.6608 -0.7760
  180SOPE  C31320602   4.802   0.041   8.290 -0.0640  0.3448 -0.7370
  180SOPE  H13X20603   4.857  -0.043   8.243  2.4681 -0.6642  3.4796
  180SOPE  H13Y20604   4.694   0.018   8.273 -0.1824  1.0988 -1.0496
  180SOPE  C31420605   4.835   0.031   8.441 -0.0900 -0.1588 -0.2431
  180SOPE  H14X20606   4.780   0.118   8.483  0.6833  0.8264 -1.1991
  180SOPE  H14Y20607   4.939   0.060   8.464 -0.3589  2.9104 -2.2402
  180SOPE  C31520608   4.800  -0.101   8.511 -0.3387 -0.1578  0.2673
  180SOPE  H15X20609   4.691  -0.115   8.496 -0.3986  0.8063 -0.2992
  180SOPE  H15Y20610   4.821  -0.076   8.617 -0.7685  2.3142 -0.1663
  180SOPE  C31620611   4.887  -0.220   8.482 -0.5126  0.7885  0.0419
  180SOPE  H16X20612   4.873  -0.241   8.374  3.1148  0.6486 -0.5311
  180SOPE  H16Y20613   4.842  -0.304   8.539 -1.1830  0.2344 -1.2762
  180SOPE  C31720614   5.042  -0.207   8.508  0.0695  0.3945 -0.5036
  180SOPE  H17X20615   5.067  -0.107   8.466 -0.3532  0.2573 -1.1007
  180SOPE  H17Y20616   5.097  -0.286   8.453 -0.1161 -0.6635  0.7960
  180SOPE  C31820617   5.076  -0.221   8.655  0.2420 -0.2953 -0.2769
  180SOPE  H18X20618   5.049  -0.127   8.708  3.2206  0.2691  0.3991
  180SOPE  H18Y20619   5.186  -0.223   8.670  0.3171 -0.6834 -0.8506
  180SOPE  H18Z20620   5.047  -0.316   8.705  0.1699 -0.6724 -1.0214
  181SOPE     N20621   4.034   4.800   6.405  0.1544  0.1143 -0.6418
  181SOPE   HN120622   4.007   4.892   6.366 -0.1681  1.0043  1.5248
  181SOPE   HN220623   4.033   4.722   6.336  1.6566 -0.6076  0.1238
  181SOPE   HN320624   3.974   4.790   6.490  0.7164  0.7335 -0.1606
  181SOPE   C1220625   4.177   4.818   6.445  0.1632  0.0435  0.6746
  181SOPE  H12A20626   4.210   4.714   6.462 -0.8468 -0.3090  0.5507
  181SOPE  H12B20627   4.179   4.875   6.540 -1.1188 -0.3890  0.9816
  181SOPE   C1120628   4.269   4.864   6.332  0.4834 -0.3172  0.3063
  181SOPE  H11A20629   4.374   4.863   6.369  0.5525  1.0000  0.1648
  181SOPE  H11B20630   4.239   4.966   6.303 -0.8067 -0.6894  0.2953
  181SOPE     P20631   4.367   4.707   6.135 -0.0432 -0.0856 -0.0090
  181SOPE   O1320632   4.437   4.802   6.054  0.1418 -0.5318 -0.1167
  181SOPE   O1420633   4.310   4.591   6.054  0.2427 -0.1252  0.1112
  181SOPE   O1220634   4.255   4.782   6.215 -0.8336 -0.0194  0.3664
  181SOPE   O1120635   4.457   4.646   6.247  0.3727 -0.2283  0.6535
  181SOPE    C120636   4.591   4.678   6.256 -0.8788  0.0651  0.0735
  181SOPE    HA20637   4.618   4.786   6.258 -0.6959  0.0319 -0.5251
  181SOPE    HB20638   4.648   4.630   6.174 -0.9780 -0.9962  0.6118
  181SOPE    C220639   4.647   4.624   6.392  0.4603 -0.6389 -0.0250
  181SOPE    HS20640   4.630   4.514   6.390  0.9967 -0.7184 -1.3647
  181SOPE   O2120641   4.577   4.683   6.503 -0.3676 -0.3944  0.7492
  181SOPE   C2120642   4.549   4.605   6.607  0.8886 -0.3013  0.4384
  181SOPE   O2220643   4.596   4.496   6.629 -0.6196  0.6601 -0.2179
  181SOPE   C2220644   4.454   4.687   6.697 -0.4882  0.3330  0.0164
  181SOPE   H2R20645   4.356   4.694   6.643  0.2444  3.5180 -1.1100
  181SOPE   H2S20646   4.498   4.789   6.696  3.1732 -1.0950 -0.7908
  181SOPE    C320647   4.799   4.653   6.391 -1.3506  0.1835 -0.8788
  181SOPE    HX20648   4.822   4.761   6.389  2.0146 -0.3322  1.7576
  181SOPE    HY20649   4.844   4.609   6.300 -2.3342  0.0334 -1.3103
  181SOPE   O3120650   4.859   4.614   6.511  0.2874  0.5921  0.2329
  181SOPE   C3120651   4.889   4.478   6.516  0.3844  0.3110  0.2604
  181SOPE   O3220652   4.868   4.397   6.425 -0.4229 -0.2017 -0.1107
  181SOPE   C3220653   4.938   4.443   6.655 -0.1445 -0.2803  0.2233
  181SOPE   H2X20654   4.852   4.447   6.725  0.5344  0.0811  1.0564
  181SOPE   H2Y20655   5.014   4.518   6.687 -0.6570  2.4853 -4.1591
  181SOPE   C2320656   4.448   4.635   6.840 -0.1077  0.3591 -0.5114
  181SOPE   H3R20657   4.529   4.688   6.893  1.6354  0.6262 -3.2627
  181SOPE   H3S20658   4.479   4.528   6.844  0.5469  0.6062  1.7372
  181SOPE   C2420659   4.313   4.655   6.900  0.0093 -0.0384  0.1595
  181SOPE   H4R20660   4.272   4.753   6.868 -0.9233 -0.1337  1.0348
  181SOPE   H4S20661   4.241   4.576   6.873 -0.5040  0.7727 -0.9190
  181SOPE   C2520662   4.330   4.670   7.050 -0.3844 -0.1331 -0.9220
  181SOPE   H5R20663   4.402   4.593   7.086  0.8941  0.3812 -2.2639
  181SOPE   H5S20664   4.369   4.766   7.090 -1.8041 -1.2846  3.9778
  181SOPE   C2620665   4.194   4.645   7.127  0.5811 -0.4117 -0.0738
  181SOPE   H6R20666   4.117   4.694   7.065  1.3715  0.0264 -0.7389
  181SOPE   H6S20667   4.168   4.537   7.119  0.5548 -0.2798 -2.4380
  181SOPE   C2720668   4.196   4.702   7.279  0.3034 -0.2251  0.2337
  181SOPE   H7R20669   4.237   4.805   7.267 -0.3613  0.0369  0.1322
  181SOPE   H7S20670   4.090   4.711   7.310  0.8283  0.9862  1.8027
  181SOPE   C2820671   4.291   4.635   7.374  0.8164  0.5046  0.2027
  181SOPE   H8R20672   4.385   4.618   7.318 -0.5858  1.1786 -2.5119
  181SOPE   H8S20673   4.321   4.690   7.466  0.3819 -0.9367  1.2577
  181SOPE   C2920674   4.229   4.506   7.414 -0.3215 -0.0990 -0.2846
  181SOPE   H9120675   4.234   4.432   7.333 -0.5100 -1.1373  0.6244
  181SOPE  C21020676   4.202   4.463   7.547  0.1884 -0.3643  0.2714
  181SOPE  H10120677   4.149   4.366   7.547 -1.1706  0.3163  2.0688
  181SOPE  C21120678   4.235   4.531   7.677  0.5142 -0.7359  0.3118
  181SOPE  H11R20679   4.234   4.640   7.658  1.6007 -0.7207  0.2702
  181SOPE  H11S20680   4.329   4.524   7.736 -0.1084 -1.6408  1.2247
  181SOPE  C21220681   4.128   4.511   7.775  0.2247 -0.1025 -0.5228
  181SOPE  H12R20682   4.094   4.406   7.790 -0.9867  0.1014 -1.7229
  181SOPE  H12S20683   4.037   4.567   7.747 -0.4911 -1.5688 -1.2296
  181SOPE  C21320684   4.161   4.563   7.918  0.4923  0.0276  0.6450
  181SOPE  H13R20685   4.219   4.656   7.904 -0.1513  0.7532  2.4432
  181SOPE  H13S20686   4.229   4.492   7.970  1.9970 -0.8729 -2.3598
  181SOPE  C21420687   4.034   4.591   8.002  0.4047  0.3943  0.4624
  181SOPE  H14R20688   3.980   4.494   8.013  0.5177 -0.3198 -3.7892
  181SOPE  H14S20689   3.960   4.642   7.936  1.1672  0.3649 -0.4209
  181SOPE  C21520690   4.050   4.655   8.141 -0.1179  0.5465 -0.2205
  181SOPE  H15R20691   4.036   4.765   8.128 -1.4522  0.9221  3.1390
  181SOPE  H15S20692   4.147   4.635   8.192 -0.3464  1.0496  0.4406
  181SOPE  C21620693   3.939   4.618   8.244 -0.4484 -0.0998  0.5159
  181SOPE  H16R20694   3.953   4.508   8.252 -1.9564 -0.5239 -1.7328
  181SOPE  H16S20695   3.842   4.642   8.196  0.4171  0.1380 -1.2101
  181SOPE  C21720696   3.970   4.683   8.381 -0.2313 -0.6425  0.5707
  181SOPE  H17R20697   4.075   4.676   8.417  0.4802  1.4111 -0.9130
  181SOPE  H17S20698   3.907   4.621   8.448 -0.3604 -1.2293 -0.0789
  181SOPE  C21820699   3.929   4.831   8.371 -0.2312 -0.6327  0.2126
  181SOPE  H18R20700   3.829   4.840   8.324  0.9089  1.6382 -2.0206
  181SOPE  H18S20701   4.009   4.887   8.319 -1.1543  1.0867  0.5526
  181SOPE  H18T20702   3.919   4.868   8.476  0.0160 -2.3727  0.8975
  181SOPE   C3320703   4.999   4.300   6.652 -0.0383  0.0823  0.5975
  181SOPE   H3X20704   5.060   4.295   6.744  1.0842  0.3320 -0.1132
  181SOPE   H3Y20705   5.065   4.287   6.563 -0.6051  0.0191  0.1758
  181SOPE   C3420706   4.896   4.182   6.661  0.5535 -0.3764  0.7158
  181SOPE   H4X20707   4.952   4.086   6.656  0.2961 -0.5010 -3.4388
  181SOPE   H4Y20708   4.837   4.178   6.567  0.7420 -0.8612  0.6176
  181SOPE   C3520709   4.800   4.185   6.785 -0.2176 -0.2550  0.3725
  181SOPE   H5X20710   4.732   4.098   6.795  1.6068 -1.8042 -0.0032
  181SOPE   H5Y20711   4.734   4.274   6.788 -3.5309 -2.5674  2.3636
  181SOPE   C3620712   4.866   4.191   6.920 -0.6646 -0.5520  0.0647
  181SOPE   H6X20713   4.944   4.271   6.917 -0.7178 -0.4977  0.1604
  181SOPE   H6Y20714   4.931   4.102   6.936  1.1270  0.3496 -1.7698
  181SOPE   C3720715   4.764   4.207   7.036  0.0272 -0.8504 -0.1074
  181SOPE   H7X20716   4.806   4.150   7.122 -0.6455 -1.1381  0.0389
  181SOPE   H7Y20717   4.679   4.140   7.008  0.8022 -2.1527  0.5782
  181SOPE   C3820718   4.736   4.354   7.055  0.0922  0.7035  0.1108
  181SOPE   H8X20719   4.681   4.394   6.967 -0.4732  1.7325  0.9166
  181SOPE   H8Y20720   4.829   4.410   7.078  0.8513 -0.4148 -0.1678
  181SOPE   C3920721   4.638   4.371   7.167  0.2066  0.2345 -0.1953
  181SOPE   H9X20722   4.553   4.300   7.165  0.8888 -0.5769 -1.0355
  181SOPE   H9Y20723   4.607   4.478   7.169  0.6681  0.4625 -2.4561
  181SOPE  C31020724   4.699   4.358   7.307  0.8047 -0.3478  0.4859
  181SOPE  H10X20725   4.786   4.426   7.317 -0.0190  1.0479 -1.3247
  181SOPE  H10Y20726   4.736   4.255   7.327  0.2061 -0.2960  2.0644
  181SOPE  C31120727   4.603   4.404   7.426 -0.4007  0.5545  0.3256
  181SOPE  H11X20728   4.507   4.349   7.425 -0.5523  0.8042 -1.1159
  181SOPE  H11Y20729   4.584   4.510   7.400 -0.4763  0.0611 -1.8708
  181SOPE  C31220730   4.661   4.376   7.563  0.0617 -0.0530 -0.1652
  181SOPE  H12X20731   4.746   4.446   7.579  2.0401 -2.0659 -1.2475
  181SOPE  H12Y20732   4.694   4.271   7.577 -3.0785 -1.1202 -0.0971
  181SOPE  C31320733   4.559   4.401   7.684 -0.0050 -0.1470  0.2496
  181SOPE  H13X20734   4.472   4.339   7.653  1.9653 -2.0318 -1.8482
  181SOPE  H13Y20735   4.542   4.511   7.672  0.0636 -0.0609  0.9211
  181SOPE  C31420736   4.604   4.369   7.826 -0.4354  0.3295  0.3979
  181SOPE  H14X20737   4.691   4.434   7.850 -0.7736  0.1162  2.3079
  181SOPE  H14Y20738   4.630   4.261   7.824  0.8473  0.6146  0.3393
  181SOPE  C31520739   4.493   4.401   7.927 -0.3407 -0.4243  0.3557
  181SOPE  H15X20740   4.398   4.359   7.888 -0.3929 -0.5997  0.6641
  181SOPE  H15Y20741   4.460   4.507   7.931  1.6501  0.2056  1.2963
  181SOPE  C31620742   4.508   4.343   8.063  0.3728  0.1804 -0.1870
  181SOPE  H16X20743   4.544   4.239   8.051  0.8611  0.1396  1.4021
  181SOPE  H16Y20744   4.411   4.347   8.118  0.1492  3.4112 -0.6186
  181SOPE  C31720745   4.618   4.413   8.154  0.0548  0.1397 -0.2309
  181SOPE  H17X20746   4.587   4.373   8.253 -4.4441  0.9563 -1.0811
  181SOPE  H17Y20747   4.596   4.522   8.148 -0.0729  0.0581 -1.4186
  181SOPE  C31820748   4.764   4.391   8.122  0.0467  0.0927 -0.1224
  181SOPE  H18X20749   4.805   4.415   8.022  2.0414  0.1756  0.6859
  181SOPE  H18Y20750   4.788   4.283   8.127 -0.7062 -0.0532  0.6495
  181SOPE  H18Z20751   4.829   4.440   8.198  0.0387  0.4950 -0.3726
  182SOPE     N20752   5.595   1.477   6.553 -0.0959 -0.2784  0.4079
  182SOPE   HN120753   5.652   1.394   6.531  0.5344 -0.0986  1.2935
  182SOPE   HN220754   5.561   1.533   6.472 -1.3592 -0.0429  1.0634
  182SOPE   HN320755   5.651   1.542   6.612  0.9639  0.0522 -0.9278
  182SOPE   C1220756   5.482   1.425   6.630 -0.4612 -0.2251  0.0065
  182SOPE  H12A20757   5.411   1.509   6.648 -0.4700 -0.3538  0.5829
  182SOPE  H12B20758   5.513   1.403   6.734 -1.4430 -0.3010  0.2971
  182SOPE   C1120759   5.411   1.320   6.555  0.1154  0.4208 -0.0630
  182SOPE  H11A20760   5.397   1.342   6.447 -2.0298 -0.5924 -0.0242
  182SOPE  H11B20761   5.309   1.315   6.597 -0.0918  0.6222 -0.5350
  182SOPE     P20762   5.575   1.126   6.478  0.3300  0.3417 -0.3785
  182SOPE   O1320763   5.683   1.218   6.445 -0.5163 -0.7323  0.3139
  182SOPE   O1420764   5.505   1.065   6.363 -0.3148  0.3111 -0.1442
  182SOPE   O1220765   5.465   1.190   6.577 -0.6981  0.1063 -0.1202
  182SOPE   O1120766   5.629   1.008   6.561 -0.6060 -0.3851 -0.6488
  182SOPE    C120767   5.650   1.020   6.702  0.1390 -0.8710 -0.1329
  182SOPE    HA20768   5.548   1.033   6.745  0.5730 -1.8356  1.2771
  182SOPE    HB20769   5.727   1.094   6.730  2.3997 -2.1667 -2.4617
  182SOPE    C220770   5.711   0.889   6.758  0.0135 -0.2437  0.7748
  182SOPE    HS20771   5.637   0.808   6.742  0.6934 -0.5433 -1.1869
  182SOPE   O2120772   5.738   0.905   6.898  0.2017 -0.2785 -0.2527
  182SOPE   C2120773   5.632   0.889   6.989 -0.6030 -0.6328 -0.1068
  182SOPE   O2220774   5.519   0.871   6.954  1.1319  0.2788  0.2081
  182SOPE   C2220775   5.688   0.895   7.131  0.1952  0.7492 -0.8899
  182SOPE   H2R20776   5.779   0.959   7.130  0.1241  0.9118 -3.4771
  182SOPE   H2S20777   5.718   0.789   7.145  2.2818  1.3161 -0.7513
  182SOPE    C320778   5.839   0.857   6.673 -0.5538  0.3424  0.2147
  182SOPE    HX20779   5.905   0.947   6.672 -1.2965  0.9101 -1.2927
  182SOPE    HY20780   5.806   0.834   6.569 -1.9357 -2.6621  1.2074
  182SOPE   O3120781   5.902   0.744   6.738 -0.0922 -0.7799 -0.5067
  182SOPE   C3120782   6.020   0.774   6.810  0.2381 -0.9854  0.7750
  182SOPE   O3220783   6.076   0.883   6.800  0.2033 -0.4929 -0.7096
  182SOPE   C3220784   6.069   0.658   6.885  0.7926 -0.0059  0.0506
  182SOPE   H2X20785   6.029   0.572   6.827  0.3428  0.0758  0.2392
  182SOPE   H2Y20786   6.023   0.648   6.985 -0.8272  1.1128 -0.5489
  182SOPE   C2320787   5.577   0.938   7.233  0.6545  0.3482 -0.6789
  182SOPE   H3R20788   5.597   0.881   7.326 -0.9598 -0.9379 -1.0599
  182SOPE   H3S20789   5.472   0.920   7.202  0.4627  0.6688 -0.2238
  182SOPE   C2420790   5.614   1.079   7.266 -0.0416 -0.2949  0.6043
  182SOPE   H4R20791   5.724   1.080   7.283  0.3414 -1.9203 -1.3911
  182SOPE   H4S20792   5.597   1.139   7.175 -1.1248 -0.5776  0.5975
  182SOPE   C2520793   5.533   1.140   7.381  0.1431  0.4606  0.9493
  182SOPE   H5R20794   5.497   1.243   7.364  0.7537  0.6851  0.9642
  182SOPE   H5S20795   5.447   1.079   7.414  0.2765 -0.9510 -1.0846
  182SOPE   C2620796   5.628   1.140   7.503 -0.3445 -0.0984 -1.0555
  182SOPE   H6R20797   5.659   1.037   7.532  0.5862  0.4254 -0.1534
  182SOPE   H6S20798   5.715   1.199   7.467 -0.0537  0.8778  1.1145
  182SOPE   C2720799   5.554   1.203   7.622 -0.6199  0.0626 -0.5767
  182SOPE   H7R20800   5.548   1.311   7.596 -0.6635  0.6319  1.5798
  182SOPE   H7S20801   5.453   1.158   7.625 -0.9622  0.8458  1.7461
  182SOPE   C2820802   5.616   1.184   7.766  0.1207 -0.0744  0.3416
  182SOPE   H8R20803   5.725   1.207   7.767  0.1548 -0.1809 -0.4129
  182SOPE   H8S20804   5.564   1.262   7.827  1.0013  0.3579  0.5652
  182SOPE   C2920805   5.592   1.047   7.821  0.4600 -0.1350 -0.8741
  182SOPE   H9120806   5.664   0.968   7.796 -0.0203 -1.3737  1.3958
  182SOPE  C21020807   5.521   1.012   7.935 -0.4556 -0.4469  0.3561
  182SOPE  H10120808   5.518   0.904   7.958 -0.2217 -0.7934 -1.1546
  182SOPE  C21120809   5.435   1.102   8.024 -0.0804  0.5465  0.4051
  182SOPE  H11R20810   5.329   1.104   7.991  0.5480  1.0844 -1.7470
  182SOPE  H11S20811   5.453   1.212   8.022  0.3601  0.5755  3.0868
  182SOPE  C21220812   5.436   1.058   8.165 -0.2142  0.2070 -0.4067
  182SOPE  H12R20813   5.390   0.957   8.170 -1.5054  0.7079 -1.5206
  182SOPE  H12S20814   5.359   1.119   8.218 -1.4316 -1.6080 -0.0146
  182SOPE  C21320815   5.571   1.072   8.233 -0.1996  0.2962  0.2922
  182SOPE  H13R20816   5.616   1.173   8.233  1.5814 -0.4104 -1.7100
  182SOPE  H13S20817   5.651   1.011   8.186  0.1793  1.3702 -0.5139
  182SOPE  C21420818   5.558   1.025   8.378  0.3616 -0.4326 -0.8335
  182SOPE  H14R20819   5.656   1.047   8.426 -0.9754  1.2487  1.3352
  182SOPE  H14S20820   5.547   0.915   8.373 -0.3090 -0.4372  0.3464
  182SOPE  C21520821   5.438   1.085   8.471 -0.1059 -0.2998 -0.9044
  182SOPE  H15R20822   5.346   1.047   8.423 -0.7720  1.0386 -0.7405
  182SOPE  H15S20823   5.443   1.196   8.466 -0.0355 -0.2750 -0.4104
  182SOPE  C21620824   5.458   1.044   8.618 -0.9996  0.6325 -0.1625
  182SOPE  H16R20825   5.544   1.104   8.658 -1.8480  0.6353  1.7647
  182SOPE  H16S20826   5.489   0.939   8.634  1.2057  1.3581  0.8417
  182SOPE  C21720827   5.343   1.092   8.698  0.1953 -0.1152 -0.3920
  182SOPE  H17R20828   5.249   1.047   8.660  0.2786 -1.8829  1.3440
  182SOPE  H17S20829   5.331   1.203   8.692  1.8108  0.2109  1.4670
  182SOPE  C21820830   5.366   1.048   8.845 -0.2111 -0.0048 -0.4572
  182SOPE  H18R20831   5.470   1.068   8.880 -0.4946 -1.6188  1.5683
  182SOPE  H18S20832   5.342   0.940   8.853 -2.1497  0.5001  1.9874
  182SOPE  H18T20833   5.299   1.096   8.919 -0.1795 -1.2531  0.4267
  182SOPE   C3320834   6.217   0.633   6.877 -0.0272  0.3793  0.1932
  182SOPE   H3X20835   6.260   0.727   6.916  0.2909 -0.0977  1.0075
  182SOPE   H3Y20836   6.255   0.602   6.777  1.2756 -2.6895  1.5133
  182SOPE   C3420837   6.253   0.518   6.971 -0.0028  0.5496 -0.3526
  182SOPE   H4X20838   6.195   0.430   6.936  0.6287  0.1703 -0.4544
  182SOPE   H4Y20839   6.219   0.542   7.074 -0.7693 -1.6957 -0.0201
  182SOPE   C3520840   6.406   0.486   6.980  0.2077 -0.1149  0.0662
  182SOPE   H5X20841   6.452   0.570   7.036  1.6130 -1.1067  0.4496
  182SOPE   H5Y20842   6.443   0.481   6.876 -0.6246 -0.3336 -0.2270
  182SOPE   C3620843   6.438   0.352   7.050 -0.0059 -0.1442 -0.5161
  182SOPE   H6X20844   6.546   0.354   7.076 -0.4788  1.0617  1.5881
  182SOPE   H6Y20845   6.429   0.263   6.984  0.7092 -2.2937  2.1232
  182SOPE   C3720846   6.365   0.314   7.183  0.1029  0.1102  0.7583
  182SOPE   H7X20847   6.260   0.292   7.154  0.2262  1.6881 -1.0841
  182SOPE   H7Y20848   6.339   0.399   7.248 -0.0379 -0.0292  0.8873
  182SOPE   C3820849   6.432   0.200   7.253  0.3449  0.5602 -0.3268
  182SOPE   H8X20850   6.527   0.246   7.287  0.6269 -1.1693  1.3717
  182SOPE   H8Y20851   6.452   0.121   7.178  2.3155  0.6353  0.0879
  182SOPE   C3920852   6.342   0.150   7.370 -0.0969 -0.4670  0.6996
  182SOPE   H9X20853   6.272   0.070   7.338 -1.1900  0.5784  0.4096
  182SOPE   H9Y20854   6.284   0.241   7.398 -0.7653 -0.7136  0.1456
  182SOPE  C31020855   6.417   0.085   7.482  0.4343  0.4008 -0.9759
  182SOPE  H10X20856   6.501   0.149   7.518 -1.0716  0.9190  1.9629
  182SOPE  H10Y20857   6.459  -0.017   7.469 -0.4459 -0.3370  1.4135
  182SOPE  C31120858   6.334   0.074   7.604  0.6153  0.4344 -0.2034
  182SOPE  H11X20859   6.258  -0.007   7.592  1.7727 -1.0909  1.9842
  182SOPE  H11Y20860   6.286   0.174   7.613 -1.1460 -0.3946  0.1677
  182SOPE  C31220861   6.416   0.034   7.727  1.1053  0.3882  0.8735
  182SOPE  H12X20862   6.508   0.096   7.731  0.3332  1.5763  0.8396
  182SOPE  H12Y20863   6.442  -0.073   7.720  0.2380  0.1727  0.8373
  182SOPE  C31320864   6.322   0.041   7.851  0.3195  0.2566 -0.1718
  182SOPE  H13X20865   6.228  -0.009   7.820 -0.4862  0.2368  2.1233
  182SOPE  H13Y20866   6.287   0.145   7.868  2.8878  1.0313  0.8074
  182SOPE  C31420867   6.379  -0.017   7.978  0.2675  0.1098  0.0157
  182SOPE  H14X20868   6.468   0.040   8.012 -0.2709  0.2042  1.2830
  182SOPE  H14Y20869   6.424  -0.114   7.946  1.1676  0.5215  0.0150
  182SOPE  C31520870   6.276  -0.050   8.092 -0.5107 -0.4418  0.4127
  182SOPE  H15X20871   6.335  -0.080   8.182  1.9137 -0.7891 -1.1869
  182SOPE  H15Y20872   6.216  -0.138   8.061  1.3435 -1.2105 -1.1915
  182SOPE  C31620873   6.187   0.069   8.150 -0.3059  0.6714  0.4973
  182SOPE  H16X20874   6.126   0.111   8.066 -1.4186 -0.2552  0.8254
  182SOPE  H16Y20875   6.255   0.149   8.187  1.6281 -0.2715 -0.8978
  182SOPE  C31720876   6.113   0.023   8.270  0.8901  0.7679  0.0786
  182SOPE  H17X20877   6.192  -0.036   8.323 -0.5471 -1.4546 -0.1114
  182SOPE  H17Y20878   6.042  -0.051   8.228  2.6518  0.4400 -2.5354
  182SOPE  C31820879   6.042   0.128   8.355 -0.9936 -0.0856 -0.6488
  182SOPE  H18X20880   6.016   0.090   8.457  2.1373  2.2970  1.2217
  182SOPE  H18Y20881   5.952   0.154   8.296 -1.6947 -0.8501  0.0381
  182SOPE  H18Z20882   6.108   0.216   8.363  0.3951 -1.1133 -0.3637
  183SOPE     N20883   6.306   5.570   6.267  0.5552  0.2865 -0.8442
  183SOPE   HN120884   6.206   5.586   6.242  0.3302 -1.3718 -1.1155
  183SOPE   HN220885   6.359   5.527   6.189  1.0961  2.0502 -1.4855
  183SOPE   HN320886   6.309   5.508   6.351  1.0698 -0.3419 -1.3242
  183SOPE   C1220887   6.373   5.698   6.281  0.1902 -0.1369  0.2688
  183SOPE  H12A20888   6.329   5.741   6.374 -0.1803 -0.1836  0.1162
  183SOPE  H12B20889   6.355   5.765   6.194 -2.1974 -0.5728  0.3503
  183SOPE   C1120890   6.526   5.687   6.289  0.0419 -0.2900  0.2118
  183SOPE  H11A20891   6.565   5.778   6.340 -2.4225 -0.9412  3.6094
  183SOPE  H11B20892   6.569   5.684   6.186  0.3881  1.0509  0.3021
  183SOPE     P20893   6.711   5.543   6.392 -0.2045  0.3820 -0.2417
  183SOPE   O1320894   6.791   5.668   6.402  0.8980 -0.1725 -0.0304
  183SOPE   O1420895   6.770   5.448   6.298 -0.4184 -0.1637  0.4778
  183SOPE   O1220896   6.559   5.567   6.363 -0.3288 -0.3010 -0.4503
  183SOPE   O1120897   6.722   5.459   6.526  0.8165 -0.2437  0.0057
  183SOPE    C120898   6.683   5.521   6.654 -0.6268 -0.3414  0.7013
  183SOPE    HA20899   6.582   5.568   6.652 -0.7938 -0.7156 -0.2046
  183SOPE    HB20900   6.758   5.595   6.690 -1.6621  0.4513  1.2831
  183SOPE    C220901   6.677   5.433   6.784 -0.6307  0.2333 -0.5614
  183SOPE    HS20902   6.625   5.494   6.861  1.2507  0.1644  0.8476
  183SOPE   O2120903   6.810   5.391   6.824 -0.4131 -0.2574 -0.1880
  183SOPE   C2120904   6.825   5.363   6.954 -0.3140  0.4246  0.1972
  183SOPE   O2220905   6.747   5.400   7.041  0.1920  0.3033 -0.3679
  183SOPE   C2220906   6.957   5.295   6.977  0.0735  0.6248 -0.1415
  183SOPE   H2R20907   7.037   5.354   6.927  1.3732  0.4481  1.6256
  183SOPE   H2S20908   6.936   5.198   6.928 -2.1455  0.2472  1.3922
  183SOPE    C320909   6.597   5.307   6.737 -0.0519  0.1908 -0.0368
  183SOPE    HX20910   6.635   5.256   6.646 -0.1984 -0.8462  0.4664
  183SOPE    HY20911   6.497   5.343   6.704 -0.3100  0.5717  1.1192
  183SOPE   O3120912   6.594   5.206   6.839 -0.2185 -0.0834 -0.6831
  183SOPE   C3120913   6.478   5.156   6.886  0.3174  0.3910  0.0061
  183SOPE   O3220914   6.369   5.195   6.851 -0.3070  0.0604  0.3332
  183SOPE   C3220915   6.506   5.040   6.980  0.1798  0.1271 -0.6412
  183SOPE   H2X20916   6.575   5.077   7.058 -0.5035 -1.0541  0.5563
  183SOPE   H2Y20917   6.566   4.964   6.924  0.5932 -1.6887  2.0861
  183SOPE   C2320918   6.984   5.279   7.133 -0.7156  0.5420  0.9275
  183SOPE   H3R20919   6.956   5.371   7.189  2.1644  1.0829  1.6308
  183SOPE   H3S20920   7.092   5.251   7.132 -0.7348  0.4382 -0.5778
  183SOPE   C2420921   6.897   5.163   7.181  0.6368  0.8505  0.8781
  183SOPE   H4R20922   6.789   5.190   7.174  0.1203 -0.9267  1.4475
  183SOPE   H4S20923   6.903   5.067   7.127  1.0455  0.4930  1.5540
  183SOPE   C2520924   6.918   5.128   7.332 -0.8146 -0.1332 -0.2497
  183SOPE   H5R20925   7.024   5.097   7.334 -0.3870  1.2088 -1.0162
  183SOPE   H5S20926   6.899   5.225   7.382 -3.4031 -1.2510  1.2065
  183SOPE   C2620927   6.831   5.012   7.387 -0.7404 -0.5900 -0.3669
  183SOPE   H6R20928   6.721   5.027   7.375 -0.8524 -0.5977  0.5922
  183SOPE   H6S20929   6.850   4.916   7.335 -0.6623 -0.6663 -0.1949
  183SOPE   C2720930   6.859   5.007   7.540  0.1269  0.3825 -0.4989
  183SOPE   H7R20931   6.968   4.993   7.556 -0.1320 -0.2539  0.8102
  183SOPE   H7S20932   6.837   5.108   7.582 -1.3932 -0.0958 -0.0795
  183SOPE   C2820933   6.770   4.914   7.627  0.6731 -0.8828 -0.3676
  183SOPE   H8R20934   6.774   4.937   7.736 -1.3091  1.2178 -0.6544
  183SOPE   H8S20935   6.666   4.944   7.602  1.3529  0.8305 -1.2967
  183SOPE   C2920936   6.809   4.773   7.605  0.7250 -0.2897  0.2578
  183SOPE   H9120937   6.846   4.758   7.502 -2.7864  1.4789 -1.4545
  183SOPE  C21020938   6.822   4.669   7.690 -0.0177 -0.5929  0.9807
  183SOPE  H10120939   6.842   4.568   7.652  1.9681 -0.3924  1.3632
  183SOPE  C21120940   6.787   4.679   7.827 -0.2948 -0.4611 -0.3318
  183SOPE  H11R20941   6.696   4.739   7.847  0.5151  0.3163  1.1581
  183SOPE  H11S20942   6.876   4.717   7.882 -0.1544 -0.3170 -0.6540
  183SOPE  C21220943   6.760   4.536   7.881  0.4841  0.0774 -0.5325
  183SOPE  H12R20944   6.845   4.468   7.856  0.3797  0.1191 -1.0194
  183SOPE  H12S20945   6.675   4.483   7.832 -0.0075  0.9666 -0.6544
  183SOPE  C21320946   6.735   4.543   8.035  0.6678  0.7380  1.3027
  183SOPE  H13R20947   6.654   4.616   8.053  0.8032  0.9150  1.2032
  183SOPE  H13S20948   6.828   4.593   8.072 -0.1511  2.3349  1.2863
  183SOPE  C21420949   6.715   4.405   8.101 -0.3365  0.1258  0.1106
  183SOPE  H14R20950   6.782   4.331   8.052  1.2006  1.9715 -0.7323
  183SOPE  H14S20951   6.611   4.381   8.071  0.3625 -0.9112 -1.6326
  183SOPE  C21520952   6.725   4.406   8.258 -0.5382 -0.0424 -0.4849
  183SOPE  H15R20953   6.655   4.485   8.292  0.4320  1.5837 -2.1057
  183SOPE  H15S20954   6.825   4.433   8.297 -1.0956 -1.5114  2.2726
  183SOPE  C21620955   6.680   4.265   8.317 -0.5460  0.2769  0.0513
  183SOPE  H16R20956   6.765   4.202   8.282 -1.6686 -0.0111 -2.3604
  183SOPE  H16S20957   6.581   4.233   8.279 -0.4512  0.3753 -0.2854
  183SOPE  C21720958   6.676   4.277   8.469 -0.5730 -0.2204 -0.4851
  183SOPE  H17R20959   6.619   4.196   8.519  1.3262  0.3726  2.9768
  183SOPE  H17S20960   6.612   4.362   8.502  1.2952  0.3932  1.7978
  183SOPE  C21820961   6.810   4.296   8.539  0.0204 -0.1565 -0.0460
  183SOPE  H18R20962   6.854   4.396   8.517 -4.2395  2.5806  2.4731
  183SOPE  H18S20963   6.868   4.205   8.512 -0.4884 -1.0428  1.7122
  183SOPE  H18T20964   6.810   4.291   8.649  2.2241 -0.9203 -0.0289
  183SOPE   C3320965   6.379   4.962   7.033  0.0402 -0.6623  0.0005
  183SOPE   H3X20966   6.331   4.908   6.949 -0.2713 -0.3883  0.0008
  183SOPE   H3Y20967   6.312   5.045   7.065  1.7261  1.7732 -2.3420
  183SOPE   C3420968   6.404   4.875   7.158 -0.0568 -0.6354  0.5057
  183SOPE   H4X20969   6.485   4.912   7.225 -2.4158  0.5858  2.8880
  183SOPE   H4Y20970   6.414   4.768   7.132  0.4946 -0.2913 -0.7601
  183SOPE   C3520971   6.285   4.882   7.253 -0.7517 -0.0673  0.1314
  183SOPE   H5X20972   6.214   4.802   7.224 -0.2682 -0.5650  0.2961
  183SOPE   H5Y20973   6.235   4.981   7.245 -1.7238 -0.6716 -1.6668
  183SOPE   C3620974   6.328   4.861   7.391 -0.2532  0.4185  0.5507
  183SOPE   H6X20975   6.399   4.943   7.415  0.1455  0.7078 -1.4114
  183SOPE   H6Y20976   6.381   4.764   7.403  0.3100  0.4363 -1.4409
  183SOPE   C3720977   6.214   4.858   7.489 -0.3920  0.8524  0.0988
  183SOPE   H7X20978   6.137   4.784   7.458  0.4040  0.8327 -1.9942
  183SOPE   H7Y20979   6.165   4.956   7.506 -0.8977  0.3243  1.8409
  183SOPE   C3820980   6.270   4.828   7.628  0.2919 -0.9144 -0.3718
  183SOPE   H8X20981   6.311   4.725   7.625  0.4909 -0.9663  2.1370
  183SOPE   H8Y20982   6.195   4.817   7.709  1.4384  1.2241  1.0746
  183SOPE   C3920983   6.372   4.926   7.683 -0.8669  0.0105 -0.1861
  183SOPE   H9X20984   6.310   5.016   7.705  1.6879  1.4955  1.3540
  183SOPE   H9Y20985   6.451   4.960   7.613 -2.1927  0.3403 -1.5892
  183SOPE  C31020986   6.441   4.879   7.812 -0.4295  0.2713 -0.6516
  183SOPE  H10X20987   6.549   4.904   7.811  0.0367 -1.2773  1.6728
  183SOPE  H10Y20988   6.452   4.768   7.812  3.3213  0.5220 -2.0176
  183SOPE  C31120989   6.356   4.938   7.921 -0.3613 -0.3718 -0.2437
  183SOPE  H11X20990   6.248   4.915   7.911 -0.4289 -0.4529  0.5947
  183SOPE  H11Y20991   6.354   5.048   7.930 -1.8365 -0.4781  1.1101
  183SOPE  C31220992   6.406   4.896   8.063 -0.6670  0.0249 -0.3461
  183SOPE  H12X20993   6.401   4.989   8.122  2.0864 -1.0439  1.7461
  183SOPE  H12Y20994   6.512   4.878   8.036  0.0191  3.8687 -0.7102
  183SOPE  C31320995   6.333   4.777   8.126  0.2910  0.2487  0.0627
  183SOPE  H13X20996   6.298   4.711   8.044  3.3078  0.4958 -1.5824
  183SOPE  H13Y20997   6.250   4.821   8.185 -0.2048  1.2973 -1.3504
  183SOPE  C31420998   6.410   4.697   8.223  0.3483 -0.5397  0.7483
  183SOPE  H14X20999   6.444   4.774   8.296 -2.5238  1.9246 -0.3159
  183SOPE  H14Y21000   6.500   4.648   8.180  0.8188 -1.0507  2.2202
  183SOPE  C31521001   6.316   4.588   8.290 -0.2780 -0.1589 -0.8396
  183SOPE  H15X21002   6.229   4.646   8.327 -1.6164 -2.1171 -0.7652
  183SOPE  H15Y21003   6.372   4.551   8.379 -0.2241  2.6661  0.3881
  183SOPE  C31621004   6.248   4.490   8.195  0.2129 -0.6949 -1.0197
  183SOPE  H16X21005   6.320   4.449   8.120 -0.5678 -2.1319 -1.0306
  183SOPE  H16Y21006   6.184   4.547   8.125  3.4126  1.7624 -2.2003
  183SOPE  C31721007   6.169   4.376   8.271  0.3886  0.5559 -0.5869
  183SOPE  H17X21008   6.070   4.420   8.297 -1.3616 -1.5830 -3.0503
  183SOPE  H17Y21009   6.222   4.337   8.360 -0.3036  1.2618  0.1494
  183SOPE  C31821010   6.123   4.261   8.186 -0.1905  0.3405 -0.2947
  183SOPE  H18X21011   6.216   4.207   8.158 -1.0629 -1.4437  0.1613
  183SOPE  H18Y21012   6.078   4.301   8.093 -0.4746  1.1715  0.1837
  183SOPE  H18Z21013   6.053   4.188   8.231  0.2291 -0.0311 -0.2382
  184SOPE     N21014   4.694   6.634   6.087 -0.1967 -0.0602 -0.6142
  184SOPE   HN121015   4.711   6.533   6.073  2.3419  0.2900 -0.5182
  184SOPE   HN221016   4.598   6.658   6.055 -0.7574  0.7365  1.4550
  184SOPE   HN321017   4.765   6.675   6.024 -1.2887  1.4194 -0.9413
  184SOPE   C1221018   4.725   6.683   6.229  0.6895  0.3019 -0.8318
  184SOPE  H12A21019   4.643   6.642   6.291  0.5836  3.3366  1.2387
  184SOPE  H12B21020   4.715   6.793   6.234 -0.8608  0.1264  2.0384
  184SOPE   C1121021   4.865   6.634   6.272  0.3703 -0.3869 -0.5705
  184SOPE  H11A21022   4.856   6.526   6.294 -1.3473 -0.1099  0.2624
  184SOPE  H11B21023   4.895   6.683   6.368 -0.6170  1.0735 -0.9832
  184SOPE     P21024   5.110   6.693   6.202 -0.2037  0.1756  0.1138
  184SOPE   O1321025   5.129   6.822   6.274  0.3480 -0.0714  0.1123
  184SOPE   O1421026   5.196   6.684   6.084  0.5709 -0.4293 -0.0045
  184SOPE   O1221027   4.954   6.673   6.171  0.7551 -0.4224 -0.0114
  184SOPE   O1121028   5.148   6.574   6.302 -0.4098  0.2804 -0.0053
  184SOPE    C121029   5.264   6.566   6.381  0.3923 -0.2107 -0.4158
  184SOPE    HA21030   5.354   6.593   6.322  1.0813 -2.0448 -0.2709
  184SOPE    HB21031   5.289   6.460   6.403  0.7310 -0.0337  0.0599
  184SOPE    C221032   5.260   6.650   6.510 -0.5040 -0.1251 -0.5336
  184SOPE    HS21033   5.234   6.754   6.479 -1.3053 -0.2574 -0.3055
  184SOPE   O2121034   5.389   6.640   6.574  0.1843 -0.6693 -0.0498
  184SOPE   C2121035   5.421   6.751   6.644 -0.0395  0.5289  0.3987
  184SOPE   O2221036   5.361   6.852   6.645 -0.3823  0.2034  0.1215
  184SOPE   C2221037   5.552   6.723   6.716  0.0891 -0.1792 -0.6616
  184SOPE   H2R21038   5.615   6.812   6.692  0.1185  0.0974  0.3723
  184SOPE   H2S21039   5.608   6.637   6.673 -0.1006 -0.4992 -0.2774
  184SOPE    C321040   5.147   6.600   6.603 -0.2198  0.2066 -0.4526
  184SOPE    HX21041   5.169   6.494   6.626 -0.5822  0.1668 -0.2903
  184SOPE    HY21042   5.051   6.605   6.547  0.5600  0.2119 -1.8460
  184SOPE   O3121043   5.129   6.672   6.724  0.0582 -0.3627  0.5588
  184SOPE   C3121044   5.065   6.786   6.723  0.1830 -0.0563  0.6528
  184SOPE   O3221045   5.016   6.834   6.623 -0.1820 -0.2556 -0.4785
  184SOPE   C3221046   5.066   6.858   6.861  0.2742  0.1001 -0.0342
  184SOPE   H2X21047   4.971   6.915   6.870  0.5303  0.9072 -2.0619
  184SOPE   H2Y21048   5.149   6.932   6.862  1.6344 -1.3352 -1.7704
  184SOPE   C2321049   5.535   6.707   6.864  0.5839 -0.2015 -0.3788
  184SOPE   H3R21050   5.492   6.607   6.885  0.5307 -0.6449 -2.3756
  184SOPE   H3S21051   5.465   6.783   6.905  2.0838  0.1028  1.8189
  184SOPE   C2421052   5.675   6.711   6.929  0.8974  0.2877  0.0803
  184SOPE   H4R21053   5.715   6.611   6.956  1.9315  0.7256  0.2198
  184SOPE   H4S21054   5.750   6.750   6.856  0.5808  1.2891  0.2696
  184SOPE   C2521055   5.686   6.791   7.056  0.1504 -0.5142 -0.5870
  184SOPE   H5R21056   5.632   6.887   7.044  0.0098 -0.7077 -1.6458
  184SOPE   H5S21057   5.644   6.728   7.136 -0.1435  0.9829  0.4757
  184SOPE   C2621058   5.832   6.825   7.092 -0.0083  0.0594  0.0217
  184SOPE   H6R21059   5.902   6.738   7.093 -0.7579 -0.5610  1.3036
  184SOPE   H6S21060   5.867   6.892   7.011 -0.1606 -0.7831 -0.7616
  184SOPE   C2721061   5.845   6.885   7.229 -0.6780 -0.1636 -0.5910
  184SOPE   H7R21062   5.782   6.975   7.245 -1.8107 -1.3581  2.5594
  184SOPE   H7S21063   5.795   6.824   7.308  0.5886  0.8890  1.0889
  184SOPE   C2821064   5.991   6.899   7.264 -0.0842 -0.9995 -0.2227
  184SOPE   H8R21065   6.045   6.802   7.265  0.4843 -0.7011 -0.9837
  184SOPE   H8S21066   6.040   6.963   7.187  0.7809  0.1639  1.2308
  184SOPE   C2921067   6.003   6.961   7.400 -0.0108  0.1111  0.1134
  184SOPE   H9121068   5.980   6.885   7.476  2.9451 -0.3326  0.6691
  184SOPE  C21021069   6.038   7.086   7.440  0.0617  0.4404  0.8904
  184SOPE  H10121070   6.039   7.099   7.549 -0.0086  0.5809  0.8746
  184SOPE  C21121071   6.082   7.201   7.357 -0.4639  0.1481  0.0025
  184SOPE  H11R21072   6.097   7.174   7.251 -1.5660  1.1477 -0.4315
  184SOPE  H11S21073   6.180   7.231   7.399 -0.5131  0.7112 -0.2892
  184SOPE  C21221074   5.973   7.310   7.374  0.1314 -0.0000  0.3420
  184SOPE  H12R21075   5.875   7.279   7.331 -0.6114  2.1957  0.3272
  184SOPE  H12S21076   6.000   7.396   7.309  1.3317 -0.7779 -0.2314
  184SOPE  C21321077   5.950   7.364   7.512  0.3694  0.1263 -0.5941
  184SOPE  H13R21078   6.032   7.421   7.560  1.8866 -1.6751 -0.9215
  184SOPE  H13S21079   5.929   7.278   7.580 -2.1076  1.0470 -0.0500
  184SOPE  C21421080   5.814   7.441   7.494  0.3191  0.4717  0.0195
  184SOPE  H14R21081   5.738   7.368   7.460 -0.3697  1.3235 -0.3080
  184SOPE  H14S21082   5.819   7.519   7.415  0.1735  0.0437 -0.4155
  184SOPE  C21521083   5.749   7.497   7.619 -0.0455 -0.2472 -0.4034
  184SOPE  H15R21084   5.647   7.538   7.610 -0.7201 -1.0009  2.5181
  184SOPE  H15S21085   5.796   7.588   7.661 -1.8002  0.6296 -0.2457
  184SOPE  C21621086   5.725   7.392   7.728  0.1029 -0.1754 -0.3290
  184SOPE  H16R21087   5.827   7.360   7.759  0.7486  2.5729  0.6593
  184SOPE  H16S21088   5.673   7.311   7.671 -1.0001  1.2029 -1.3527
  184SOPE  C21721089   5.650   7.441   7.851  0.1479  0.2311 -0.0158
  184SOPE  H17R21090   5.553   7.487   7.824 -0.2350 -0.4747  0.1341
  184SOPE  H17S21091   5.705   7.509   7.920 -1.8205  1.8468  0.0541
  184SOPE  C21821092   5.604   7.326   7.936 -0.2813  0.3710  0.6146
  184SOPE  H18R21093   5.544   7.361   8.023 -2.1686 -1.8796  0.2991
  184SOPE  H18S21094   5.697   7.276   7.971 -0.3690 -0.6270 -0.5231
  184SOPE  H18T21095   5.552   7.249   7.875  0.2432  1.0633 -0.7639
  184SOPE   C3321096   5.098   6.777   6.992  0.6990  0.7052  0.1327
  184SOPE   H3X21097   5.196   6.726   6.979  1.6728  1.9137  2.1611
  184SOPE   H3Y21098   5.029   6.690   6.999  1.8267 -0.1302  1.6100
  184SOPE   C3421099   5.087   6.853   7.124  0.4756 -0.1323  0.2753
  184SOPE   H4X21100   4.993   6.912   7.135 -0.2494 -1.5672  2.5078
  184SOPE   H4Y21101   5.170   6.926   7.123  1.0105 -0.7348 -1.1651
  184SOPE   C3521102   5.114   6.758   7.250  0.9551 -0.1647  0.8360
  184SOPE   H5X21103   5.223   6.740   7.241  1.2275  1.8890 -0.6651
  184SOPE   H5Y21104   5.063   6.660   7.235  1.8730 -0.4698 -0.4943
  184SOPE   C3621105   5.101   6.823   7.384  0.9758  0.3868  0.4953
  184SOPE   H6X21106   5.004   6.874   7.401 -0.9005 -2.8028  0.1358
  184SOPE   H6Y21107   5.175   6.906   7.391 -0.0243  1.4593 -1.0231
  184SOPE   C3721108   5.105   6.730   7.506  0.3458 -1.3425 -0.0425
  184SOPE   H7X21109   5.208   6.688   7.517  0.6929 -1.3621 -2.6626
  184SOPE   H7Y21110   5.031   6.652   7.478 -1.1645 -0.3903  1.1652
  184SOPE   C3821111   5.057   6.810   7.627 -0.2671  0.0220 -0.7086
  184SOPE   H8X21112   4.947   6.821   7.643 -0.5793 -0.2209 -2.5318
  184SOPE   H8Y21113   5.121   6.900   7.636 -1.6644  1.0424 -0.6757
  184SOPE   C3921114   5.096   6.725   7.756 -0.1656 -0.8648 -0.4459
  184SOPE   H9X21115   5.206   6.713   7.750  0.3029  1.3961  1.8950
  184SOPE   H9Y21116   5.054   6.622   7.745 -1.3207 -0.3682 -0.8614
  184SOPE  C31021117   5.045   6.785   7.886 -0.4116 -0.0366 -0.0841
  184SOPE  H10X21118   4.934   6.788   7.883 -0.4313 -0.5324  0.1365
  184SOPE  H10Y21119   5.081   6.890   7.899 -1.2316  0.6356 -2.5878
  184SOPE  C31121120   5.084   6.699   8.015 -0.0829  0.1496 -0.4763
  184SOPE  H11X21121   5.059   6.592   7.999 -0.1909 -0.0187  0.6990
  184SOPE  H11Y21122   5.023   6.737   8.100 -0.3898  0.3966 -0.8027
  184SOPE  C31221123   5.226   6.704   8.055  0.5069 -0.5686 -0.2779
  184SOPE  H12X21124   5.265   6.806   8.077  1.1608 -0.6520 -0.9788
  184SOPE  H12Y21125   5.283   6.658   7.971  0.5762 -1.9973  0.5206
  184SOPE  C31321126   5.260   6.619   8.179 -0.1751  0.5525 -0.3027
  184SOPE  H13X21127   5.230   6.516   8.149 -0.4391  0.6250 -0.2887
  184SOPE  H13Y21128   5.201   6.647   8.269  0.9334  1.0643  0.2932
  184SOPE  C31421129   5.410   6.615   8.218 -0.2465  0.1448 -0.5435
  184SOPE  H14X21130   5.452   6.718   8.228  1.0439 -0.5464  2.0256
  184SOPE  H14Y21131   5.463   6.566   8.134 -0.9244  0.4594 -1.1639
  184SOPE  C31521132   5.434   6.534   8.349  0.3070  0.0552  0.3788
  184SOPE  H15X21133   5.392   6.432   8.335 -0.2250 -0.0501  2.4066
  184SOPE  H15Y21134   5.375   6.576   8.433  0.6010  1.5235 -0.1190
  184SOPE  C31621135   5.589   6.524   8.370  0.1083  0.0911  0.2725
  184SOPE  H16X21136   5.648   6.616   8.350  0.6093 -0.2245  0.2797
  184SOPE  H16Y21137   5.639   6.443   8.313  2.3330  0.9348  0.9593
  184SOPE  C31721138   5.616   6.493   8.521  0.0751  0.1142  0.0080
  184SOPE  H17X21139   5.556   6.408   8.560  0.3240 -0.1279 -0.1370
  184SOPE  H17Y21140   5.591   6.587   8.575 -0.4965  0.1810 -0.3725
  184SOPE  C31821141   5.771   6.462   8.554  0.1071 -0.2632 -0.3584
  184SOPE  H18X21142   5.832   6.545   8.512 -0.2081  1.3265  2.1354
  184SOPE  H18Y21143   5.799   6.363   8.512 -1.8298 -2.3365  2.8063
  184SOPE  H18Z21144   5.800   6.465   8.661  0.1804  1.5764 -0.3904
  185SAPI   C1221145   4.033   2.286  11.258 -0.2998 -0.3800  0.2049
  185SAPI    H221146   3.999   2.331  11.163  2.1963  0.6788 -0.2468
  185SAPI    O221147   4.170   2.255  11.239  0.3181  0.2140 -0.6303
  185SAPI   HO221148   4.175   2.176  11.185 -2.9321  0.1098 -0.9671
  185SAPI   C1321149   4.013   2.387  11.366  0.7300  0.2463 -0.4088
  185SAPI    H321150   3.904   2.391  11.391  0.9895 -1.3462  1.1716
  185SAPI    O321151   4.066   2.516  11.333  0.1730 -0.4280 -0.4561
  185SAPI   HO321152   3.997   2.567  11.289  2.0774  3.3520  0.4999
  185SAPI   C1421153   4.071   2.330  11.496 -1.0073 -0.2777  0.4955
  185SAPI    H421154   4.180   2.310  11.487 -0.5362  1.9615  0.8109
  185SAPI    O421155   4.063   2.427  11.599  0.7806  0.8688  0.0855
  185SAPI   HO421156   4.028   2.513  11.573  0.4603  0.3386 -1.2867
  185SAPI   C1521157   3.998   2.199  11.536  0.6633 -0.0534 -0.0183
  185SAPI    H521158   3.891   2.225  11.542  1.2072  2.1705  0.9777
  185SAPI    O521159   4.039   2.149  11.661 -0.0487  0.0119 -0.0349
  185SAPI   HO521160   4.053   2.221  11.723 -1.4776  1.3681 -1.2089
  185SAPI   C1621161   4.007   2.094  11.423  0.4541 -0.4271 -0.2337
  185SAPI    H621162   4.114   2.067  11.408  0.7829  1.2433 -1.2112
  185SAPI    O621163   3.940   1.968  11.446 -0.0352 -0.3732 -0.8650
  185SAPI   HO621164   3.995   1.909  11.498 -1.4237 -1.1177 -0.1608
  185SAPI   C1121165   3.963   2.156  11.285  0.4754 -0.0004 -0.4540
  185SAPI    H121166   3.856   2.189  11.288  0.3132 -0.5125 -0.5876
  185SAPI     P21167   3.861   2.009  11.070  0.1103  0.0047 -0.0858
  185SAPI   O1321168   3.738   2.013  11.143  0.1525  0.2513  0.0861
  185SAPI   O1421169   3.904   1.876  11.025 -0.6277 -0.0892 -0.5563
  185SAPI   O1221170   3.979   2.069  11.175 -0.7674 -0.1112 -0.1455
  185SAPI   O1121171   3.863   2.118  10.953 -0.6897  0.4487  0.1784
  185SAPI    C121172   3.756   2.100  10.858 -0.1110  0.2695  0.3710
  185SAPI    HA21173   3.703   2.003  10.855  0.9156 -0.3091  0.2775
  185SAPI    HB21174   3.684   2.182  10.878  1.6934  1.8904  0.6113
  185SAPI    C221175   3.812   2.111  10.710 -1.0126 -0.2248 -1.0012
  185SAPI    HS21176   3.740   2.079  10.632  0.5968 -0.0007 -2.6522
  185SAPI   O2121177   3.945   2.047  10.708  0.0769 -0.0732  0.7770
  185SAPI   C2121178   3.936   1.916  10.701 -0.4676 -0.5198  0.1217
  185SAPI   O2221179   3.830   1.860  10.670  0.1354  0.3020  0.5365
  185SAPI   C2221180   4.069   1.866  10.738  0.7622 -0.5973  0.7055
  185SAPI   H2R21181   4.145   1.939  10.704 -0.2453  0.3344  0.3941
  185SAPI   H2S21182   4.079   1.851  10.847  0.6793 -0.9114  0.6709
  185SAPI    C321183   3.844   2.260  10.690  0.2921  0.3784  0.2544
  185SAPI    HX21184   3.905   2.303  10.773 -0.6928  1.5423  0.4080
  185SAPI    HY21185   3.748   2.317  10.696 -0.3335 -0.6866  0.6599
  185SAPI   O3121186   3.889   2.287  10.555 -0.8235  0.6418 -0.0283
  185SAPI   C3121187   4.030   2.285  10.553 -0.1230 -0.1308 -0.0681
  185SAPI   O3221188   4.099   2.279  10.652 -0.3016  0.0274 -0.5228
  185SAPI   C3221189   4.085   2.300  10.412  0.5361  0.1698 -0.1597
  185SAPI   H2X21190   4.196   2.306  10.423  0.5417 -2.3361  2.1538
  185SAPI   H2Y21191   4.044   2.393  10.367  1.4177 -1.0044 -3.7338
  185SAPI   C2321192   4.110   1.723  10.667  1.0254 -0.4093  0.1011
  185SAPI   H3R21193   4.036   1.653  10.711 -2.2543  3.2008  0.8957
  185SAPI   H3S21194   4.205   1.695  10.718  1.7325  0.9453 -0.4371
  185SAPI   C2421195   4.121   1.730  10.517 -0.0443 -0.0805  0.2131
  185SAPI   H4R21196   4.036   1.777  10.463  0.6287  1.3888  0.3758
  185SAPI   H4S21197   4.124   1.626  10.479 -0.4258 -0.4228  1.0795
  185SAPI   C2521198   4.233   1.798  10.455 -0.3513  0.5213 -0.1774
  185SAPI   H5R21199   4.290   1.873  10.513  0.4001  1.6065 -2.2264
  185SAPI   C2621200   4.273   1.776  10.333  0.0075  0.6051 -0.6829
  185SAPI   H6R21201   4.354   1.836  10.291  0.1470 -0.1557 -1.5557
  185SAPI   C2721202   4.204   1.684  10.228 -0.3568 -0.5811  0.6312
  185SAPI   H7R21203   4.135   1.743  10.163 -1.1772 -1.6249  0.5247
  185SAPI   H7S21204   4.133   1.613  10.275 -1.1911  0.4848  1.0196
  185SAPI   C2821205   4.306   1.614  10.147 -0.6696 -0.2137 -0.5932
  185SAPI   H8R21206   4.394   1.580  10.203  1.9828  3.5001 -2.0818
  185SAPI   C2921207   4.314   1.600  10.012 -0.1433 -0.7411 -0.0962
  185SAPI   H9R21208   4.400   1.545   9.971  0.7631 -0.2777  1.1173
  185SAPI  C21021209   4.209   1.640   9.909 -0.1967  0.5146  0.5965
  185SAPI  H10R21210   4.261   1.690   9.825  1.4110 -0.7834  0.7777
  185SAPI  H10S21211   4.135   1.711   9.952 -2.7970 -3.0394  2.6005
  185SAPI  C21121212   4.125   1.526   9.862 -0.2599  0.7305  0.1888
  185SAPI  H11R21213   4.102   1.445   9.932  0.3262 -0.1064 -0.5660
  185SAPI  C21221214   4.078   1.515   9.738 -0.3120 -1.2339  0.7177
  185SAPI  H12R21215   4.006   1.436   9.715 -0.1282 -0.9429 -1.0105
  185SAPI  C21321216   4.081   1.604   9.615  0.0841 -0.0202  0.5114
  185SAPI  H13R21217   4.071   1.712   9.639  0.6124  0.6804 -2.0969
  185SAPI  H13S21218   3.995   1.586   9.546  1.5457  2.7487 -2.2604
  185SAPI  C21421219   4.206   1.589   9.545  0.1544 -0.1008 -0.1137
  185SAPI  H14R21220   4.297   1.590   9.605 -0.2847 -0.0586  0.5573
  185SAPI  C21521221   4.220   1.587   9.408 -0.3287 -0.5858 -0.3063
  185SAPI  H15R21222   4.322   1.596   9.368  0.2351  1.7034  1.3702
  185SAPI  C21621223   4.116   1.590   9.297 -0.5377 -0.0400  0.0979
  185SAPI  H16R21224   4.023   1.534   9.319 -0.9541 -0.4244 -2.3931
  185SAPI  H16S21225   4.163   1.537   9.211  1.0685 -1.4847  1.7913
  185SAPI  C21721226   4.073   1.728   9.244 -0.2031 -0.2357  0.2178
  185SAPI  H17R21227   4.163   1.789   9.223  0.1332 -0.3661  1.2139
  185SAPI  H17S21228   4.020   1.784   9.324  3.2193 -1.2404  3.4881
  185SAPI  C21821229   3.989   1.718   9.114 -0.3210  0.0601 -0.1409
  185SAPI  H18R21230   3.969   1.821   9.080  2.3917  1.2708  1.5751
  185SAPI  H18S21231   3.888   1.674   9.125  1.2018 -3.4988  1.4746
  185SAPI  C21921232   4.056   1.671   8.985  0.4071  0.0226  0.9317
  185SAPI  H19R21233   4.073   1.563   9.002  2.3632  0.4053  1.7890
  185SAPI  H19S21234   4.156   1.719   8.976  0.6959 -0.4504  1.5460
  185SAPI  C22021235   3.968   1.691   8.863  0.1554  0.2319 -0.0586
  185SAPI  H20R21236   4.012   1.652   8.769  0.5007  0.9413 -0.2004
  185SAPI  H20S21237   3.964   1.801   8.850 -1.1273 -0.0225 -2.4049
  185SAPI  H20T21238   3.868   1.647   8.884  0.0682  0.4042 -0.1126
  185SAPI   C3321239   4.035   2.184  10.319  0.9850 -0.2803 -0.6759
  185SAPI   H3X21240   3.924   2.178  10.315  1.0141 -1.7477  0.0279
  185SAPI   H3Y21241   4.074   2.090  10.362 -1.2638 -1.2863 -0.7241
  185SAPI   C3421242   4.084   2.184  10.173 -0.5624  0.3206 -0.0164
  185SAPI   H4X21243   4.077   2.089  10.116  1.2679 -0.0247  0.2541
  185SAPI   H4Y21244   4.195   2.196  10.174 -0.4234 -0.8420  0.8493
  185SAPI   C3521245   4.016   2.292  10.093  0.0445  0.4673 -0.8090
  185SAPI   H5X21246   4.017   2.391  10.144  1.3114 -1.3227  3.0422
  185SAPI   H5Y21247   3.910   2.265  10.078 -0.1128  1.4946 -1.6453
  185SAPI   C3621248   4.065   2.300   9.953 -0.3043  0.9075  0.0192
  185SAPI   H6X21249   4.103   2.201   9.920 -1.6321  0.4801 -0.3065
  185SAPI   H6Y21250   4.143   2.377   9.935 -0.3228  0.9625  0.1727
  185SAPI   C3721251   3.949   2.315   9.860  0.2450 -0.5056 -0.2045
  185SAPI   H7X21252   3.889   2.407   9.875 -1.0208 -0.8082 -2.8140
  185SAPI   H7Y21253   3.883   2.227   9.876  1.9194 -2.1593 -1.8117
  185SAPI   C3821254   3.986   2.319   9.717 -0.0298  0.5274 -0.1218
  185SAPI   H8X21255   3.983   2.214   9.680 -1.8876  0.8029 -0.8811
  185SAPI   H8Y21256   4.086   2.365   9.700  0.1798 -0.5648 -2.0737
  185SAPI   C3921257   3.893   2.401   9.629 -0.2332 -0.1139  0.4009
  185SAPI   H9X21258   3.874   2.503   9.669 -1.2283 -0.7275  1.5673
  185SAPI   H9Y21259   3.791   2.357   9.622 -1.4972  2.3106  2.1375
  185SAPI  C31021260   3.951   2.411   9.492  0.4702 -0.2548 -0.0099
  185SAPI  H10X21261   3.978   2.314   9.444 -2.3350 -0.4776 -1.3123
  185SAPI  H10Y21262   4.050   2.459   9.509  1.1208 -1.6377  0.2690
  185SAPI  C31121263   3.875   2.487   9.387  0.7007 -0.1308  0.5733
  185SAPI  H11X21264   3.853   2.588   9.429 -0.0837  1.3592 -3.0487
  185SAPI  H11Y21265   3.774   2.449   9.361  0.8049 -1.6734  2.1808
  185SAPI  C31221266   3.953   2.504   9.251  0.4790  0.2335  0.1631
  185SAPI  H12X21267   3.967   2.408   9.197  0.1744 -0.0551  0.5911
  185SAPI  H12Y21268   4.054   2.541   9.279  1.4101 -1.5099 -0.7446
  185SAPI  C31321269   3.890   2.608   9.154  0.0774  0.3017 -0.2451
  185SAPI  H13X21270   3.915   2.714   9.177 -0.6501  0.7765 -1.5513
  185SAPI  H13Y21271   3.779   2.601   9.153  0.0565  0.6048 -0.0131
  185SAPI  C31421272   3.940   2.592   9.007  0.2361  0.6041 -0.1906
  185SAPI  H14X21273   3.891   2.671   8.947 -1.7428  0.5702  1.2545
  185SAPI  H14Y21274   3.898   2.498   8.965  4.0772 -1.8531  0.9480
  185SAPI  C31521275   4.093   2.592   8.995  0.1561 -0.5491 -0.7052
  185SAPI  H15X21276   4.133   2.503   9.050  0.5100  0.3305  0.4925
  185SAPI  H15Y21277   4.115   2.677   9.063  1.4732 -1.0879 -0.4175
  185SAPI  C31621278   4.152   2.606   8.858 -0.0746 -0.9291  0.1509
  185SAPI  H16X21279   4.260   2.628   8.873  0.1428 -1.4489 -0.5919
  185SAPI  H16Y21280   4.096   2.691   8.814 -0.7963 -1.9029 -0.8600
  185SAPI  C31721281   4.138   2.482   8.768  0.2169  0.4736 -0.9136
  185SAPI  H17X21282   4.032   2.450   8.772  0.9288 -1.8979  1.1928
  185SAPI  H17Y21283   4.208   2.403   8.804 -1.1096 -0.4129 -0.2071
  185SAPI  C31821284   4.168   2.509   8.623 -0.8980 -0.2235 -0.0295
  185SAPI  H18X21285   4.177   2.419   8.558 -0.9471  1.6474 -2.8025
  185SAPI  H18Y21286   4.270   2.549   8.608 -1.5291  1.0072 -1.2266
  185SAPI  H18Z21287   4.087   2.575   8.585  0.1862  0.9187 -0.4000
  186SAPI   C1221288   5.510   0.412  10.749 -0.0473  0.1746  0.6973
  186SAPI    H221289   5.516   0.368  10.647 -1.7223 -0.8622  1.0100
  186SAPI    O221290   5.565   0.323  10.838  0.1246  0.7539  0.0138
  186SAPI   HO221291   5.501   0.252  10.854 -2.1984  2.6896 -0.1708
  186SAPI   C1321292   5.592   0.538  10.748  0.2238  0.2016  0.0544
  186SAPI    H321293   5.542   0.616  10.686  0.1605  0.0793 -0.0468
  186SAPI    O321294   5.720   0.522  10.684  0.4237  0.1018  0.3888
  186SAPI   HO321295   5.764   0.447  10.724  0.7648 -1.1182 -2.0507
  186SAPI   C1421296   5.599   0.597  10.881  0.0473  0.2644 -0.8296
  186SAPI    H421297   5.644   0.528  10.956  0.0019 -0.6925 -1.6591
  186SAPI    O421298   5.687   0.707  10.883  0.6572 -0.1296  0.3371
  186SAPI   HO421299   5.647   0.767  10.820 -0.7107 -0.1863  1.1134
  186SAPI   C1521300   5.456   0.636  10.925 -1.0339 -0.3399  0.0562
  186SAPI    H521301   5.413   0.720  10.868  0.5755  1.1161  0.8824
  186SAPI    O521302   5.469   0.692  11.060 -0.7103  0.4574  0.0731
  186SAPI   HO521303   5.430   0.779  11.071 -0.6343  0.3841  1.0264
  186SAPI   C1621304   5.363   0.519  10.929  1.3229 -0.4847 -0.8184
  186SAPI    H621305   5.390   0.449  11.011  0.2385 -0.2815 -0.2653
  186SAPI    O621306   5.233   0.561  10.962  0.6979  0.0984  0.0332
  186SAPI   HO621307   5.171   0.518  10.902 -0.4887 -0.5583  1.6702
  186SAPI   C1121308   5.364   0.452  10.792  0.2937  0.4867  0.3710
  186SAPI    H121309   5.327   0.519  10.712  0.1695 -0.2665 -0.2218
  186SAPI     P21310   5.143   0.300  10.745 -0.3202 -0.6919 -0.1104
  186SAPI   O1321311   5.063   0.423  10.792 -0.1381  0.3931  0.7216
  186SAPI   O1421312   5.109   0.169  10.802 -0.3199 -0.3714 -0.4615
  186SAPI   O1221313   5.299   0.331  10.792 -0.0291  0.2067  0.1202
  186SAPI   O1121314   5.156   0.300  10.594  0.2052 -0.2251  0.7876
  186SAPI    C121315   5.227   0.192  10.530  0.0535  0.0856  0.4567
  186SAPI    HA21316   5.335   0.218  10.527  0.4027 -1.3429 -2.1933
  186SAPI    HB21317   5.218   0.090  10.575 -0.8310 -0.8023 -1.6035
  186SAPI    C221318   5.166   0.163  10.387  0.0899  1.0314 -0.2776
  186SAPI    HS21319   5.240   0.094  10.342 -2.4676 -2.4227  0.4615
  186SAPI   O2121320   5.170   0.287  10.315  0.3160  0.5423 -0.1951
  186SAPI   C2121321   5.295   0.336  10.279  0.5005  1.0612 -0.3895
  186SAPI   O2221322   5.402   0.288  10.315 -0.1661 -0.0472  0.7505
  186SAPI   C2221323   5.287   0.468  10.213  0.3163 -0.3459 -0.3050
  186SAPI   H2R21324   5.200   0.527  10.250  0.6069  1.3098 -2.0873
  186SAPI   H2S21325   5.372   0.535  10.237  0.2250  0.6244 -2.4847
  186SAPI    C321326   5.033   0.101  10.382 -0.3285  0.6641 -0.4429
  186SAPI    HX21327   4.962   0.172  10.430 -2.6304  0.3421 -3.1449
  186SAPI    HY21328   5.038   0.009  10.444  0.3091 -0.7315 -2.4610
  186SAPI   O3121329   4.996   0.067  10.249  0.2584 -0.5931 -0.3153
  186SAPI   C3121330   4.940   0.172  10.188  0.3605 -0.1284 -0.2081
  186SAPI   O3221331   4.911   0.281  10.234  0.6181 -0.0012  0.6937
  186SAPI   C3221332   4.933   0.140  10.035 -0.3117 -0.4974 -0.5245
  186SAPI   H2X21333   4.853   0.063  10.022 -0.6939 -0.0262 -0.9937
  186SAPI   H2Y21334   5.032   0.096  10.010 -0.1814 -2.1995  2.4647
  186SAPI   C2321335   5.235   0.454  10.065 -0.1809  0.1225  0.5703
  186SAPI   H3R21336   5.181   0.545  10.033 -0.8618 -0.6498 -0.5549
  186SAPI   H3S21337   5.160   0.372  10.062 -0.4769  0.4167 -1.4097
  186SAPI   C2421338   5.348   0.419   9.963  0.4935  0.1407 -0.7430
  186SAPI   H4R21339   5.291   0.385   9.874  0.6793 -1.3525 -0.3288
  186SAPI   H4S21340   5.407   0.332   9.998  0.7011  0.1174 -1.1503
  186SAPI   C2521341   5.441   0.530   9.938  0.2227 -1.1110 -0.4785
  186SAPI   H5R21342   5.485   0.571  10.030 -0.4553  0.1687 -0.6879
  186SAPI   C2621343   5.469   0.589   9.819 -0.8449  0.0512  0.0683
  186SAPI   H6R21344   5.526   0.682   9.812 -1.5850  0.4435 -0.9673
  186SAPI   C2721345   5.415   0.536   9.691  0.4854 -0.2519  0.1884
  186SAPI   H7R21346   5.316   0.485   9.699  0.6855 -0.5187  1.1455
  186SAPI   H7S21347   5.494   0.467   9.656  0.2549 -0.7974  0.7112
  186SAPI   C2821348   5.400   0.655   9.602 -0.1822 -0.3998  0.4100
  186SAPI   H8R21349   5.335   0.733   9.644  1.4041  1.5045 -0.4961
  186SAPI   C2921350   5.479   0.690   9.495  0.2696 -0.8078 -0.5133
  186SAPI   H9R21351   5.460   0.788   9.450  0.4033 -0.2091  0.6906
  186SAPI  C21021352   5.590   0.606   9.435 -0.0004  0.2769 -0.1276
  186SAPI  H10R21353   5.618   0.534   9.516  1.0591  0.2946 -0.4597
  186SAPI  H10S21354   5.682   0.666   9.420 -0.8832  1.4863 -0.7870
  186SAPI  C21121355   5.534   0.537   9.313  0.7410 -0.1142  0.0517
  186SAPI  H11R21356   5.446   0.476   9.334 -0.5155  0.8823 -1.9739
  186SAPI  C21221357   5.569   0.541   9.183 -0.2160  1.0621 -0.8060
  186SAPI  H12R21358   5.510   0.488   9.107  1.2314  1.1258 -2.0266
  186SAPI  C21321359   5.673   0.616   9.108 -0.3759 -0.5096  0.3804
  186SAPI  H13R21360   5.742   0.557   9.044 -0.5808  0.4994 -0.8176
  186SAPI  H13S21361   5.733   0.672   9.182 -2.3490  0.2413  1.4820
  186SAPI  C21421362   5.610   0.711   9.008  0.1171 -0.5351 -0.3496
  186SAPI  H14R21363   5.562   0.795   9.060 -0.5281 -0.2497 -1.3547
  186SAPI  C21521364   5.591   0.717   8.878 -0.6819  0.2886 -0.0754
  186SAPI  H15R21365   5.521   0.791   8.838 -0.1964  1.1560  0.6571
  186SAPI  C21621366   5.642   0.616   8.778  0.1235 -0.3908  0.1274
  186SAPI  H16R21367   5.699   0.528   8.814 -0.2617 -0.6129  0.2092
  186SAPI  H16S21368   5.713   0.662   8.706  0.4859  1.7757  1.7497
  186SAPI  C21721369   5.518   0.563   8.705 -0.4038 -0.5013 -0.1492
  186SAPI  H17R21370   5.439   0.526   8.774 -0.0566 -0.1104  0.4601
  186SAPI  H17S21371   5.554   0.481   8.639  2.1889 -1.5731  2.4329
  186SAPI  C21821372   5.452   0.659   8.606 -0.0086 -0.8011 -0.4956
  186SAPI  H18R21373   5.514   0.697   8.522 -1.4704 -0.2330 -1.3430
  186SAPI  H18S21374   5.414   0.748   8.661 -0.5427 -2.1549  1.4533
  186SAPI  C21921375   5.325   0.593   8.547  0.6229 -0.1700 -0.2843
  186SAPI  H19R21376   5.250   0.564   8.623  1.1189  4.3327  2.2869
  186SAPI  H19S21377   5.359   0.502   8.494 -0.5777 -0.2913 -0.8687
  186SAPI  C22021378   5.245   0.679   8.449 -0.2152 -0.1781 -0.6589
  186SAPI  H20R21379   5.300   0.706   8.356 -1.4203  4.0145 -0.3525
  186SAPI  H20S21380   5.223   0.778   8.494  3.0971 -0.2817  1.6172
  186SAPI  H20T21381   5.153   0.629   8.412 -1.3285  0.8118  0.6480
  186SAPI   C3321382   4.903   0.273   9.948  0.4751  0.5130  0.0929
  186SAPI   H3X21383   4.965   0.360   9.978 -0.9614  0.4061  3.9047
  186SAPI   H3Y21384   4.803   0.309   9.980  0.6998  1.2421 -0.0136
  186SAPI   C3421385   4.920   0.244   9.803 -0.3316  0.3245  0.4281
  186SAPI   H4X21386   4.829   0.205   9.753 -0.4578 -2.1030  2.4044
  186SAPI   H4Y21387   4.998   0.167   9.784 -0.6092  0.2119 -0.2973
  186SAPI   C3521388   4.958   0.375   9.728 -0.4447  0.7428 -0.4884
  186SAPI   H5X21389   5.047   0.414   9.782 -0.6649 -0.4636  0.8053
  186SAPI   H5Y21390   4.887   0.454   9.759  1.1691  1.0772  2.7598
  186SAPI   C3621391   4.956   0.370   9.569 -0.4939  0.3560 -0.9162
  186SAPI   H6X21392   4.854   0.362   9.525 -2.1399  0.7747  2.4636
  186SAPI   H6Y21393   5.021   0.285   9.543  1.5997  1.0277  1.6249
  186SAPI   C3721394   5.026   0.493   9.515 -0.1840 -0.8591  0.2879
  186SAPI   H7X21395   5.135   0.487   9.540 -0.2877 -0.4722  0.8497
  186SAPI   H7Y21396   4.983   0.580   9.569  1.6298 -0.2016  0.7505
  186SAPI   C3821397   4.993   0.518   9.369 -0.3856 -0.4953 -0.6705
  186SAPI   H8X21398   4.886   0.548   9.362 -0.6050 -0.7157  1.0864
  186SAPI   H8Y21399   5.002   0.425   9.309 -0.9259 -0.5514 -0.6730
  186SAPI   C3921400   5.079   0.631   9.299  0.0724  0.2313  0.2928
  186SAPI   H9X21401   5.183   0.594   9.308 -0.6264 -1.6380  1.3146
  186SAPI   H9Y21402   5.076   0.730   9.348 -0.5921  0.6156 -0.4909
  186SAPI  C31021403   5.044   0.652   9.149 -0.3258  0.6819 -0.8089
  186SAPI  H10X21404   5.002   0.754   9.129  0.8020  0.7839 -2.8825
  186SAPI  H10Y21405   4.968   0.575   9.124 -0.4064 -0.6924  3.0286
  186SAPI  C31121406   5.156   0.624   9.056  0.2581  0.4990  0.4669
  186SAPI  H11X21407   5.178   0.515   9.059 -2.6527 -0.1799 -0.0035
  186SAPI  H11Y21408   5.245   0.674   9.101  0.7555  1.0593 -1.0592
  186SAPI  C31221409   5.144   0.686   8.914 -1.1052  0.2857 -0.6916
  186SAPI  H12X21410   5.240   0.668   8.861 -0.8080 -0.9538  0.2159
  186SAPI  H12Y21411   5.135   0.796   8.924  1.7600  0.5686 -0.4717
  186SAPI  C31321412   5.034   0.621   8.841  0.3062 -0.4197  0.3303
  186SAPI  H13X21413   4.940   0.620   8.900  0.2771  1.3904  0.3780
  186SAPI  H13Y21414   5.077   0.521   8.817  2.0879  0.3060  0.3386
  186SAPI  C31421415   4.994   0.694   8.713 -0.3833  0.2145 -0.0848
  186SAPI  H14X21416   5.079   0.691   8.642  0.5675 -0.0343  1.0405
  186SAPI  H14Y21417   4.977   0.802   8.733  1.3091  0.6894 -0.9981
  186SAPI  C31521418   4.860   0.640   8.652 -0.4744 -0.1666 -0.4895
  186SAPI  H15X21419   4.829   0.703   8.566 -1.5426 -0.0992 -0.0699
  186SAPI  H15Y21420   4.775   0.641   8.724  0.1456 -1.0399  0.2841
  186SAPI  C31621421   4.875   0.500   8.594 -0.3827  0.2952 -0.5283
  186SAPI  H16X21422   4.934   0.439   8.666 -0.3392 -0.5116 -1.2376
  186SAPI  H16Y21423   4.935   0.488   8.501  1.4544 -1.5350  0.7996
  186SAPI  C31721424   4.749   0.412   8.576 -0.3528  0.5669  0.0538
  186SAPI  H17X21425   4.786   0.316   8.534 -0.0367  1.5256 -1.9491
  186SAPI  H17Y21426   4.680   0.455   8.501 -1.2648 -2.0949 -0.7614
  186SAPI  C31821427   4.667   0.380   8.701 -0.6653 -0.3076  0.2724
  186SAPI  H18X21428   4.740   0.359   8.782  0.2776 -2.2095 -1.0020
  186SAPI  H18Y21429   4.605   0.290   8.683 -1.1984 -0.0895  0.9790
  186SAPI  H18Z21430   4.611   0.473   8.726 -0.2344 -0.1855  0.8166
  187SAPI   C1221431   6.721   1.327   6.401  0.0237 -0.1430 -0.1470
  187SAPI    H221432   6.659   1.267   6.472  0.1592 -1.7225 -1.3059
  187SAPI    O221433   6.798   1.414   6.484  0.1618  0.0334 -0.2068
  187SAPI   HO221434   6.757   1.500   6.479 -1.4433 -0.7550 -1.8527
  187SAPI   C1321435   6.803   1.220   6.323 -0.4928  0.0850 -0.1377
  187SAPI    H321436   6.734   1.148   6.273  0.5459  0.4790 -2.2578
  187SAPI    O321437   6.869   1.134   6.422  0.2615  0.2509 -0.8083
  187SAPI   HO321438   6.903   1.056   6.378 -1.4816  0.2761 -2.3437
  187SAPI   C1421439   6.903   1.285   6.228 -0.3161  0.5010  0.6217
  187SAPI    H421440   6.968   1.351   6.289  1.4851 -2.0234  1.5831
  187SAPI    O421441   6.991   1.196   6.159 -0.2175  0.6492 -0.1891
  187SAPI   HO421442   6.935   1.126   6.124  0.3804  0.2078 -0.2697
  187SAPI   C1521443   6.828   1.371   6.132  0.2048 -0.1524  0.2816
  187SAPI    H521444   6.769   1.295   6.076  0.6086  0.1272 -0.5382
  187SAPI    O521445   6.905   1.441   6.038 -0.4466  0.0515 -0.2715
  187SAPI   HO521446   6.940   1.516   6.086 -1.0123  0.4010 -0.3967
  187SAPI   C1621447   6.718   1.470   6.193 -0.1982  0.0025  0.4473
  187SAPI    H621448   6.772   1.553   6.243 -0.2288  0.1921  0.1628
  187SAPI    O621449   6.636   1.525   6.095 -0.1334 -0.1100 -0.0209
  187SAPI   HO621450   6.694   1.588   6.051 -0.7214  0.7067  0.3537
  187SAPI   C1121451   6.632   1.398   6.295 -0.0706  0.4334 -0.0828
  187SAPI    H121452   6.572   1.321   6.242  0.1003 -0.2905  0.7495
  187SAPI     P21453   6.398   1.438   6.431  0.4203  0.4630 -0.0087
  187SAPI   O1321454   6.351   1.316   6.364 -0.2890  0.1735  0.4228
  187SAPI   O1421455   6.305   1.559   6.425 -0.2796  0.6775  0.2079
  187SAPI   O1221456   6.542   1.486   6.363  0.3202  0.3331  0.2459
  187SAPI   O1121457   6.431   1.400   6.577 -0.0812  0.7446  0.5868
  187SAPI    C121458   6.495   1.498   6.653 -0.4429 -0.5016 -0.0912
  187SAPI    HA21459   6.603   1.501   6.628  0.1503  0.1103  2.2677
  187SAPI    HB21460   6.446   1.598   6.650 -1.9475 -1.0765  2.2179
  187SAPI    C221461   6.487   1.450   6.803  0.7270  0.7693 -0.7621
  187SAPI    HS21462   6.381   1.426   6.824  0.6517  1.5662 -0.1451
  187SAPI   O2121463   6.533   1.558   6.888 -0.4778 -0.1280 -0.2673
  187SAPI   C2121464   6.442   1.639   6.931  0.7409  0.2348 -0.3405
  187SAPI   O2221465   6.323   1.625   6.908  0.1562  0.0162 -0.6418
  187SAPI   C2221466   6.507   1.730   7.034  1.1595  0.2036  0.1004
  187SAPI   H2R21467   6.596   1.786   7.000  0.9900 -0.4014 -1.4040
  187SAPI   H2S21468   6.426   1.803   7.055  0.0601 -1.6708  3.0110
  187SAPI    C321469   6.579   1.328   6.816  0.1620  0.0231 -0.1866
  187SAPI    HX21470   6.682   1.370   6.810  0.1684 -0.2141 -2.7727
  187SAPI    HY21471   6.558   1.267   6.726 -1.2864  1.2800 -0.7550
  187SAPI   O3121472   6.565   1.247   6.941  0.0148  0.1651  0.0151
  187SAPI   C3121473   6.450   1.187   6.963 -0.2669  0.4700  0.1783
  187SAPI   O3221474   6.345   1.206   6.904 -0.0293  0.2285 -0.4486
  187SAPI   C3221475   6.452   1.095   7.091 -0.5098  0.2103  0.7313
  187SAPI   H2X21476   6.412   1.153   7.176 -1.8881 -0.9139  0.8869
  187SAPI   H2Y21477   6.559   1.084   7.118  0.0246  3.5845  0.4055
  187SAPI   C2321478   6.541   1.657   7.162 -0.2920 -0.2005 -0.2557
  187SAPI   H3R21479   6.583   1.734   7.231  1.2727  1.7958 -3.2081
  187SAPI   H3S21480   6.618   1.583   7.134 -1.1729 -1.2241 -0.0553
  187SAPI   C2421481   6.429   1.574   7.233  0.2248 -0.6662 -0.0306
  187SAPI   H4R21482   6.482   1.531   7.321  1.4939 -0.4496 -0.6664
  187SAPI   H4S21483   6.405   1.496   7.158  0.1929 -0.1258 -0.5919
  187SAPI   C2521484   6.300   1.649   7.268  0.0346  0.1958  0.2752
  187SAPI   H5R21485   6.248   1.687   7.179 -1.7952 -0.3845  1.0472
  187SAPI   C2621486   6.239   1.668   7.389 -0.2088 -0.1339  0.0025
  187SAPI   H6R21487   6.145   1.725   7.389 -0.5977 -0.7663  0.0303
  187SAPI   C2721488   6.288   1.620   7.523 -0.2794 -0.0303  0.8276
  187SAPI   H7R21489   6.288   1.715   7.580  0.0240 -0.1187  0.9772
  187SAPI   H7S21490   6.389   1.574   7.524 -0.2257  0.0615  0.1917
  187SAPI   C2821491   6.180   1.523   7.571  0.0752 -1.2583 -0.9620
  187SAPI   H8R21492   6.115   1.467   7.501 -1.8349 -1.7522  1.1039
  187SAPI   C2921493   6.153   1.520   7.698  0.1372  0.4310  0.0553
  187SAPI   H9R21494   6.077   1.446   7.724  1.9501 -0.6300  2.8261
  187SAPI  C21021495   6.229   1.578   7.817 -0.4271 -0.3754 -0.1592
  187SAPI  H10R21496   6.300   1.657   7.785 -0.2731 -0.7966 -0.8720
  187SAPI  H10S21497   6.292   1.496   7.857  2.4631  1.7273 -0.0669
  187SAPI  C21121498   6.131   1.639   7.913 -0.0911 -0.0832 -0.1059
  187SAPI  H11R21499   6.048   1.696   7.867 -0.9433 -1.3256 -0.1412
  187SAPI  C21221500   6.120   1.624   8.047  0.3066  0.0330 -0.2432
  187SAPI  H12R21501   6.047   1.686   8.102  3.9092  3.2908  1.3719
  187SAPI  C21321502   6.200   1.539   8.139  0.3846  0.9967  0.8829
  187SAPI  H13R21503   6.308   1.555   8.116  0.4955 -0.7995 -0.0707
  187SAPI  H13S21504   6.189   1.430   8.120 -0.5754  1.1233  0.6652
  187SAPI  C21421505   6.181   1.576   8.277 -0.3840  0.5227  0.3420
  187SAPI  H14R21506   6.118   1.665   8.294 -0.6532  0.4242 -0.1452
  187SAPI  C21521507   6.240   1.519   8.380  0.7037  0.2077 -0.6331
  187SAPI  H15R21508   6.216   1.557   8.481  0.7184  0.8290 -0.8572
  187SAPI  C21621509   6.340   1.401   8.395  0.4765 -0.4723 -0.5196
  187SAPI  H16R21510   6.436   1.440   8.355  0.2085  0.3363 -0.4080
  187SAPI  H16S21511   6.309   1.307   8.344 -1.3609 -0.7175  0.9274
  187SAPI  C21721512   6.369   1.345   8.538  0.3887 -0.5191  0.4212
  187SAPI  H17R21513   6.266   1.313   8.566 -0.1605  0.1222 -0.7595
  187SAPI  H17S21514   6.401   1.430   8.601  0.3312 -0.0875 -0.1203
  187SAPI  C21821515   6.474   1.242   8.543  0.5753 -0.3597  1.1122
  187SAPI  H18R21516   6.431   1.177   8.464  1.2243  1.1199 -0.5304
  187SAPI  H18S21517   6.463   1.193   8.642 -0.3503 -0.2979  1.0446
  187SAPI  C21921518   6.613   1.292   8.515 -0.3361  0.0935  0.0926
  187SAPI  H19R21519   6.640   1.380   8.577 -2.9203  2.3525 -1.7058
  187SAPI  H19S21520   6.623   1.331   8.411  1.2796 -0.7237 -0.0819
  187SAPI  C22021521   6.714   1.180   8.537 -0.2813 -0.0001  1.1202
  187SAPI  H20R21522   6.717   1.153   8.644  0.9229 -2.6001  0.5045
  187SAPI  H20S21523   6.816   1.213   8.507 -0.9743  0.8703 -0.4174
  187SAPI  H20T21524   6.675   1.096   8.476  2.0149 -0.2854 -0.0478
  187SAPI   C3321525   6.378   0.954   7.081 -0.5292 -0.2442 -0.0728
  187SAPI   H3X21526   6.433   0.874   7.134 -0.1916  0.7829  1.1778
  187SAPI   H3Y21527   6.381   0.936   6.972  1.3347  1.6912 -0.3930
  187SAPI   C3421528   6.236   0.949   7.123  0.6961  0.2204 -0.0173
  187SAPI   H4X21529   6.206   0.842   7.125  1.5631 -0.0486  2.4768
  187SAPI   H4Y21530   6.171   0.990   7.043 -0.5190 -2.0460 -0.2721
  187SAPI   C3521531   6.199   1.004   7.259 -0.0937  0.3711 -0.7384
  187SAPI   H5X21532   6.201   1.114   7.267 -0.5441  0.2416  2.5895
  187SAPI   H5Y21533   6.271   0.969   7.336 -1.0448 -0.8384 -0.3788
  187SAPI   C3621534   6.057   0.966   7.293  0.5106  0.5218  0.3817
  187SAPI   H6X21535   6.047   0.855   7.289  0.1926  0.5650 -0.0324
  187SAPI   H6Y21536   5.985   1.009   7.220 -0.0404  3.8682  2.6776
  187SAPI   C3721537   6.009   1.009   7.433 -0.0596 -0.1173  0.2549
  187SAPI   H7X21538   5.916   0.951   7.456 -1.6569  2.0573 -0.3966
  187SAPI   H7Y21539   5.971   1.113   7.427 -0.0481 -0.1549 -0.7459
  187SAPI   C3821540   6.111   1.006   7.555  0.1576 -0.4349  0.2523
  187SAPI   H8X21541   6.184   1.089   7.549  0.1731 -0.3560  1.4274
  187SAPI   H8Y21542   6.177   0.919   7.534 -0.7017 -1.1836  0.5591
  187SAPI   C3921543   6.050   1.005   7.696  0.1344  0.1908  0.1588
  187SAPI   H9X21544   6.082   0.911   7.746  0.4144 -0.7115 -1.6496
  187SAPI   H9Y21545   5.941   1.016   7.676  0.1179 -1.7257 -1.0185
  187SAPI  C31021546   6.085   1.126   7.785 -0.2850  0.8345 -0.3191
  187SAPI  H10X21547   6.051   1.220   7.735 -1.5570  1.1970  1.1546
  187SAPI  H10Y21548   6.195   1.130   7.792 -0.1066  0.3635 -2.1733
  187SAPI  C31121549   6.003   1.126   7.916  0.2118 -0.2067  0.3258
  187SAPI  H11X21550   6.040   1.041   7.977  2.2858 -0.7210 -1.5148
  187SAPI  H11Y21551   5.897   1.095   7.905  0.6066 -1.4188 -0.2454
  187SAPI  C31221552   6.001   1.267   7.980  0.1441 -0.7247 -0.2913
  187SAPI  H12X21553   5.958   1.338   7.906  0.2967 -0.8972 -0.5472
  187SAPI  H12Y21554   6.106   1.301   7.996 -0.2656  1.2065 -1.3495
  187SAPI  C31321555   5.923   1.277   8.114 -0.2022 -0.1670  0.8153
  187SAPI  H13X21556   5.830   1.226   8.080  0.9613 -0.3458 -2.4478
  187SAPI  H13Y21557   5.895   1.381   8.144  0.8479  0.6712 -0.9227
  187SAPI  C31421558   5.990   1.195   8.238 -0.4567 -0.3214  0.3542
  187SAPI  H14X21559   6.097   1.222   8.236  0.0061 -2.0898 -0.1915
  187SAPI  H14Y21560   5.968   1.088   8.224  0.3308 -0.9270  3.0549
  187SAPI  C31521561   5.926   1.250   8.367 -0.3060 -0.0798  0.4905
  187SAPI  H15X21562   5.817   1.259   8.348  0.0751  2.4843 -1.0218
  187SAPI  H15Y21563   5.967   1.351   8.388 -0.3305  0.2963 -1.1230
  187SAPI  C31621564   5.954   1.166   8.494 -0.5139  0.1804 -0.4625
  187SAPI  H16X21565   6.063   1.178   8.512 -0.4754  0.8078 -1.0783
  187SAPI  H16Y21566   5.926   1.060   8.473 -1.0768  0.2964 -0.3211
  187SAPI  C31721567   5.882   1.211   8.617 -0.0463 -0.4256  0.8391
  187SAPI  H17X21568   5.888   1.135   8.697  0.8693 -0.6342  0.5815
  187SAPI  H17Y21569   5.779   1.226   8.578  1.0226  0.5889 -1.8093
  187SAPI  C31821570   5.939   1.339   8.671 -0.2698 -0.3472 -0.5003
  187SAPI  H18X21571   5.927   1.408   8.585  0.2297 -0.7624 -0.9006
  187SAPI  H18Y21572   6.049   1.331   8.681 -0.1457 -1.5752 -2.4668
  187SAPI  H18Z21573   5.881   1.365   8.762  2.1382 -0.6024  1.2124
  188SAPI   C1221574   1.454   5.043   6.123  0.1047  0.4713 -0.1931
  188SAPI    H221575   1.527   4.965   6.093 -0.9166  0.1878 -2.0807
  188SAPI    O221576   1.504   5.175   6.090 -0.1221  0.8039 -0.0414
  188SAPI   HO221577   1.565   5.205   6.157 -1.3303 -0.0048  1.4992
  188SAPI   C1321578   1.328   5.015   6.049 -0.0473  0.2046  0.4211
  188SAPI    H321579   1.293   4.913   6.074 -0.4064  0.4442  0.9257
  188SAPI    O321580   1.354   5.004   5.913 -0.2162  0.0907  0.0031
  188SAPI   HO321581   1.419   5.066   5.880  1.7002 -1.8630 -0.1185
  188SAPI   C1421582   1.214   5.117   6.088 -0.6903 -0.5634  0.0983
  188SAPI    H421583   1.260   5.217   6.073 -0.5647 -0.1463  2.8530
  188SAPI    O421584   1.086   5.100   6.021 -0.0515 -0.0227 -0.8262
  188SAPI   HO421585   1.022   5.051   6.073 -0.8645 -0.6141 -2.3016
  188SAPI   C1521586   1.193   5.089   6.237  0.2452  0.5793 -0.1596
  188SAPI    H521587   1.148   4.989   6.253  0.4664  0.4076 -0.6145
  188SAPI    O521588   1.085   5.183   6.281 -0.3686 -0.4989 -0.2226
  188SAPI   HO521589   1.016   5.137   6.329 -2.3216 -2.1156 -4.0535
  188SAPI   C1621590   1.310   5.099   6.324 -0.3959 -0.8779  0.2210
  188SAPI    H621591   1.343   5.205   6.332 -3.1708 -0.0408  2.7118
  188SAPI    O621592   1.290   5.062   6.463  0.8946 -0.5469 -0.1311
  188SAPI   HO621593   1.289   4.967   6.479 -3.2698 -0.6419  0.0636
  188SAPI   C1121594   1.432   5.016   6.268  0.5380 -0.8372 -0.1447
  188SAPI    H121595   1.403   4.909   6.279 -0.5653 -0.6298 -0.8621
  188SAPI     P21596   1.620   4.923   6.439  0.2738  0.4438 -0.1416
  188SAPI   O1321597   1.770   4.931   6.415  0.8317  0.0206  0.1731
  188SAPI   O1421598   1.553   4.791   6.427 -0.5197  0.3076  0.7242
  188SAPI   O1221599   1.556   5.040   6.340 -0.2620 -0.0213  0.2509
  188SAPI   O1121600   1.590   4.984   6.583 -0.1320  0.0490  0.5704
  188SAPI    C121601   1.573   5.124   6.603 -0.6073 -0.0402 -0.6429
  188SAPI    HA21602   1.659   5.185   6.569  0.4752 -0.1581  1.7016
  188SAPI    HB21603   1.486   5.153   6.540 -0.4544 -0.5129 -1.0809
  188SAPI    C221604   1.526   5.158   6.751  0.3229 -0.8410  0.4289
  188SAPI    HS21605   1.507   5.268   6.751 -0.1277 -0.8320 -2.5072
  188SAPI   O2121606   1.630   5.120   6.842 -0.1709  0.3606 -0.1069
  188SAPI   C2121607   1.666   5.194   6.935  1.0389  0.2736 -0.5897
  188SAPI   O2221608   1.620   5.307   6.960 -0.1602  0.5407 -0.0323
  188SAPI   C2221609   1.772   5.116   7.019 -0.9057  0.6733 -0.4364
  188SAPI   H2R21610   1.729   5.014   7.033  0.9716 -0.0335  0.4833
  188SAPI   H2S21611   1.865   5.111   6.959  1.3491 -0.3988  2.9040
  188SAPI    C321612   1.387   5.088   6.780 -0.0552  0.4606 -0.4533
  188SAPI    HX21613   1.390   4.983   6.746 -1.9876 -0.0092  0.6587
  188SAPI    HY21614   1.314   5.147   6.721  1.9069  2.2738 -1.1940
  188SAPI   O3121615   1.359   5.078   6.919 -0.8095  0.3750 -0.4236
  188SAPI   C3121616   1.312   5.198   6.968 -0.3963  0.6192 -0.0378
  188SAPI   O3221617   1.317   5.305   6.905  0.1368  0.0309  0.1801
  188SAPI   C3221618   1.257   5.168   7.112 -0.1307 -0.2206  0.4296
  188SAPI   H2X21619   1.351   5.160   7.171  1.6365 -0.1749 -2.2065
  188SAPI   H2Y21620   1.213   5.067   7.113 -1.1459  0.1604 -1.4017
  188SAPI   C2321621   1.806   5.180   7.159  0.7937 -0.1195  0.5247
  188SAPI   H3R21622   1.844   5.282   7.136 -1.1540  0.3266 -0.9604
  188SAPI   H3S21623   1.873   5.121   7.224  0.7235  0.0207  0.7269
  188SAPI   C2421624   1.682   5.196   7.252 -0.2108 -0.0757  0.1548
  188SAPI   H4R21625   1.618   5.277   7.211 -0.9465 -1.2077 -0.9728
  188SAPI   H4S21626   1.710   5.223   7.356  2.0432  0.1315 -0.4355
  188SAPI   C2521627   1.594   5.078   7.248  0.8154  0.1519  0.1653
  188SAPI   H5R21628   1.535   5.055   7.158 -0.2598 -0.1770  0.9374
  188SAPI   C2621629   1.572   4.985   7.344 -0.0152 -0.6540  0.1747
  188SAPI   H6R21630   1.503   4.902   7.322 -1.5211  1.0497 -1.9651
  188SAPI   C2721631   1.627   4.984   7.481 -0.2427 -0.1973 -0.1176
  188SAPI   H7R21632   1.727   5.031   7.479  0.4563 -1.6259 -0.3661
  188SAPI   H7S21633   1.648   4.878   7.510  1.6574  0.4175  0.8568
  188SAPI   C2821634   1.552   5.036   7.597 -0.5011 -0.0925 -0.5151
  188SAPI   H8R21635   1.481   5.118   7.577 -0.9605 -0.0362  1.1758
  188SAPI   C2921636   1.564   5.000   7.725 -0.1524 -0.3463  0.1003
  188SAPI   H9R21637   1.503   5.047   7.805 -1.8795  2.2643 -2.5342
  188SAPI  C21021638   1.661   4.901   7.784  0.0669  0.1958 -0.9608
  188SAPI  H10R21639   1.723   4.838   7.717  0.6502 -2.6777  1.9774
  188SAPI  H10S21640   1.592   4.831   7.838 -2.1781  0.5209 -3.2374
  188SAPI  C21121641   1.764   4.952   7.879 -0.0519 -0.0480 -0.1645
  188SAPI  H11R21642   1.839   5.013   7.828  1.1666  1.2653  2.9852
  188SAPI  C21221643   1.773   4.918   8.005 -0.0790  0.3428 -0.6457
  188SAPI  H12R21644   1.855   4.957   8.068  0.6148 -0.3592 -1.0943
  188SAPI  C21321645   1.690   4.828   8.089 -0.4446  0.5385 -0.6119
  188SAPI  H13R21646   1.730   4.818   8.192  0.0742  2.8382 -0.5424
  188SAPI  H13S21647   1.681   4.731   8.036  1.6953 -0.7238  1.1961
  188SAPI  C21421648   1.554   4.888   8.111 -0.2854  0.2503 -0.9703
  188SAPI  H14R21649   1.493   4.897   8.019 -0.5023 -0.8545 -0.9503
  188SAPI  C21521650   1.509   4.946   8.226  0.3732  1.1362  0.2263
  188SAPI  H15R21651   1.402   4.968   8.236 -0.5139 -2.0905 -0.9084
  188SAPI  C21621652   1.594   4.968   8.351 -1.0806  0.0734  0.3348
  188SAPI  H16R21653   1.569   5.070   8.386 -0.7837  0.2654 -0.0090
  188SAPI  H16S21654   1.702   4.969   8.324 -1.2550 -1.9549 -0.5956
  188SAPI  C21721655   1.570   4.854   8.454  0.8119  0.0288  0.6417
  188SAPI  H17R21656   1.620   4.764   8.413  1.0785  0.4552  0.0131
  188SAPI  H17S21657   1.462   4.836   8.471  1.1686 -0.1052  3.1467
  188SAPI  C21821658   1.638   4.885   8.592 -0.0822 -0.0927  0.1408
  188SAPI  H18R21659   1.570   4.950   8.651  1.9094  1.6206  0.6708
  188SAPI  H18S21660   1.728   4.947   8.572  0.9095 -1.2476  0.8791
  188SAPI  C21921661   1.672   4.757   8.673  0.3908  0.3892  0.4393
  188SAPI  H19R21662   1.692   4.803   8.772  0.9168  2.2696 -0.5130
  188SAPI  H19S21663   1.761   4.705   8.633  0.9097  0.7398  1.1257
  188SAPI  C22021664   1.543   4.673   8.679  0.5099  0.4402 -0.1968
  188SAPI  H20R21665   1.526   4.621   8.583 -1.4863  0.5667  0.0456
  188SAPI  H20S21666   1.448   4.728   8.697  0.1601 -0.1974 -0.0644
  188SAPI  H20T21667   1.556   4.595   8.758  0.8397 -0.1661 -0.8411
  188SAPI   C3321668   1.163   5.272   7.172 -0.0450  0.2749  0.3407
  188SAPI   H3X21669   1.069   5.291   7.115  0.2896 -1.4131 -0.8236
  188SAPI   H3Y21670   1.227   5.363   7.170  1.2271 -0.5964 -1.6980
  188SAPI   C3421671   1.134   5.238   7.309  0.3882 -0.3094 -0.3095
  188SAPI   H4X21672   1.227   5.223   7.368  1.4533 -0.6283 -1.9886
  188SAPI   H4Y21673   1.074   5.144   7.305  1.2302 -0.8304 -2.7976
  188SAPI   C3521674   1.051   5.347   7.383 -0.2780  0.2802  0.4995
  188SAPI   H5X21675   0.961   5.376   7.326  1.0507 -0.2904 -2.0718
  188SAPI   H5Y21676   1.106   5.444   7.393  0.0597 -0.0527  2.0257
  188SAPI   C3621677   1.029   5.281   7.520  0.0463  0.1952 -0.2070
  188SAPI   H6X21678   1.117   5.273   7.587 -0.8306  2.1750  1.2976
  188SAPI   H6Y21679   0.983   5.183   7.498 -0.3775  0.4531 -0.4813
  188SAPI   C3721680   0.939   5.365   7.609  0.8025 -0.1655 -0.2639
  188SAPI   H7X21681   0.841   5.354   7.558  0.3863 -0.3491  0.5472
  188SAPI   H7Y21682   0.980   5.467   7.599 -2.2671  1.2223 -0.0568
  188SAPI   C3821683   0.926   5.329   7.752  0.2947  0.2140  0.5906
  188SAPI   H8X21684   1.015   5.372   7.803 -1.4913  1.1857  3.1109
  188SAPI   H8Y21685   0.932   5.220   7.773  0.7252  0.1385  0.1057
  188SAPI   C3921686   0.808   5.398   7.823 -0.2977  0.5590 -0.2877
  188SAPI   H9X21687   0.721   5.377   7.758 -3.4203 -1.0239  3.9253
  188SAPI   H9Y21688   0.813   5.509   7.825  1.5543  0.5212  2.2063
  188SAPI  C31021689   0.774   5.331   7.960  0.0188  0.0375 -0.3651
  188SAPI  H10X21690   0.850   5.375   8.028 -0.3452 -0.2746  0.2500
  188SAPI  H10Y21691   0.789   5.223   7.940  2.5370  0.4091 -0.8631
  188SAPI  C31121692   0.637   5.359   8.015  0.4206  0.7123  0.5908
  188SAPI  H11X21693   0.568   5.303   7.948 -0.8956 -1.0690  3.2507
  188SAPI  H11Y21694   0.605   5.466   8.014 -2.4606 -0.0584  1.0601
  188SAPI  C31221695   0.621   5.303   8.159 -0.1878 -0.0223 -0.5184
  188SAPI  H12X21696   0.677   5.357   8.238  1.5523  0.5433 -2.0646
  188SAPI  H12Y21697   0.667   5.202   8.163  1.4390  0.6748 -0.6839
  188SAPI  C31321698   0.474   5.294   8.202 -0.7139  0.4328  0.4337
  188SAPI  H13X21699   0.408   5.242   8.129  0.7850  2.0103 -2.2325
  188SAPI  H13Y21700   0.433   5.397   8.210 -2.2680 -0.2631  2.0655
  188SAPI  C31421701   0.457   5.219   8.334  0.3404  0.0709  0.0326
  188SAPI  H14X21702   0.537   5.253   8.403  0.5121  0.6091 -0.4136
  188SAPI  H14Y21703   0.467   5.109   8.322 -2.2478 -0.3763  1.3919
  188SAPI  C31521704   0.315   5.232   8.396 -0.4609  0.0091  0.5644
  188SAPI  H15X21705   0.246   5.171   8.334  2.1651 -0.3586 -2.2152
  188SAPI  H15Y21706   0.291   5.340   8.395  1.4587  0.5363  2.5109
  188SAPI  C31621707   0.301   5.181   8.543 -0.6910  1.1503 -0.0089
  188SAPI  H16X21708   0.331   5.074   8.538 -0.8349  1.1546 -2.9909
  188SAPI  H16Y21709   0.197   5.186   8.583 -1.7152 -2.1202 -1.8442
  188SAPI  C31721710   0.391   5.240   8.652  0.9814 -0.3807 -0.3303
  188SAPI  H17X21711   0.362   5.347   8.659 -0.8638 -0.6646 -2.7397
  188SAPI  H17Y21712   0.499   5.242   8.624  0.7912  1.6305 -1.0986
  188SAPI  C31821713   0.365   5.183   8.792  0.0685  0.9548 -0.1293
  188SAPI  H18X21714   0.259   5.152   8.808  0.5926 -0.5643  0.5646
  188SAPI  H18Y21715   0.389   5.249   8.878 -0.0658 -2.3561  2.6217
  188SAPI  H18Z21716   0.426   5.092   8.809  0.2642  1.4015  1.8015
  189POPC     N21717   2.475   6.068  11.317 -0.0324 -0.3193 -0.1066
  189POPC   C1221718   2.484   6.121  11.176  0.3486  0.3837 -0.0787
  189POPC  H12A21719   2.436   6.218  11.174  2.5454  1.5990  1.7393
  189POPC  H12B21720   2.430   6.057  11.107  1.0573 -0.1963 -0.1067
  189POPC   C1321721   2.334   6.051  11.348 -0.0176  0.5849 -0.2920
  189POPC  H13A21722   2.295   5.981  11.276 -3.8321 -0.8323  2.7865
  189POPC  H13B21723   2.325   6.015  11.450 -1.2380  1.1909 -0.1585
  189POPC  H13C21724   2.273   6.139  11.335 -1.4681 -0.1543  1.0926
  189POPC   C1421725   2.531   5.927  11.310  0.4203 -0.3954  0.7031
  189POPC  H14A21726   2.637   5.928  11.289  0.3839 -1.5243  0.3861
  189POPC  H14B21727   2.507   5.878  11.403 -1.0553 -1.7055 -0.3174
  189POPC  H14C21728   2.477   5.873  11.234 -2.8495 -0.2365  2.7180
  189POPC   C1521729   2.551   6.153  11.411  0.4567  0.9360  0.1155
  189POPC  H15A21730   2.514   6.254  11.408  1.1576  1.1915 -0.1269
  189POPC  H15B21731   2.653   6.142  11.379  0.0035 -0.4665 -0.9793
  189POPC  H15C21732   2.533   6.114  11.510 -0.7256  0.3733 -0.2932
  189POPC   C1121733   2.617   6.142  11.105  0.3093 -0.3615  0.3719
  189POPC  H11A21734   2.603   6.175  11.000 -0.8142  0.9749  0.8929
  189POPC  H11B21735   2.672   6.046  11.099 -0.1067 -0.5443 -0.6448
  189POPC     P21736   2.647   6.395  11.134 -0.0951  0.1344  0.2980
  189POPC   O1321737   2.672   6.468  11.258  0.0371 -0.1239 -0.4663
  189POPC   O1421738   2.507   6.392  11.093 -0.4291 -0.1561 -0.4053
  189POPC   O1221739   2.698   6.249  11.158 -0.1365  0.1706 -0.2360
  189POPC   O1121740   2.739   6.442  11.017  0.4361  0.6053  0.7919
  189POPC    C121741   2.814   6.352  10.930  0.4851 -0.8601  0.2897
  189POPC    HA21742   2.862   6.267  10.982  1.6799  0.8151  2.0908
  189POPC    HB21743   2.902   6.406  10.887 -0.3603  0.3252  0.0013
  189POPC    C221744   2.730   6.315  10.805 -0.4970  0.5073  0.1317
  189POPC    HS21745   2.622   6.314  10.830  0.0978  0.4131  3.0830
  189POPC   O2121746   2.784   6.197  10.749 -0.7390 -0.5061 -0.0145
  189POPC   C2121747   2.698   6.096  10.733  0.5337  0.1049  0.4753
  189POPC   O2221748   2.588   6.088  10.785  0.7726 -0.0142  0.1632
  189POPC   C2221749   2.750   5.993  10.640  0.5803  0.3477  0.9235
  189POPC   H2R21750   2.773   5.918  10.718 -2.7665 -0.3812  1.3272
  189POPC   H2S21751   2.843   6.026  10.587  0.8849 -0.5781  0.8622
  189POPC    C321752   2.737   6.441  10.712 -0.1055  0.4277 -0.3204
  189POPC    HX21753   2.845   6.441  10.684  0.8783 -3.1219  2.6097
  189POPC    HY21754   2.698   6.531  10.763 -1.0102  0.9093 -1.8035
  189POPC   O3121755   2.660   6.411  10.591  0.1843 -0.4092 -0.1316
  189POPC   C3121756   2.659   6.496  10.496 -0.6965  0.0877  0.1527
  189POPC   O3221757   2.719   6.606  10.498 -0.0423 -0.4897 -0.2299
  189POPC   C3221758   2.559   6.457  10.395  0.1280  0.4052  0.4481
  189POPC   H2X21759   2.454   6.476  10.428 -0.4456 -0.3654 -0.8715
  189POPC   H2Y21760   2.560   6.351  10.362  0.6135  1.1668 -2.1801
  189POPC   C2321761   2.648   5.945  10.533 -0.2102  0.7667 -0.2066
  189POPC   H3R21762   2.556   5.900  10.575 -1.0220  1.8572 -0.7515
  189POPC   H3S21763   2.693   5.874  10.461 -0.2768 -0.0923  0.5872
  189POPC   C2421764   2.595   6.056  10.442  0.0788 -0.3355  0.3942
  189POPC   H4R21765   2.676   6.108  10.387  0.0374  2.4892  2.7501
  189POPC   H4S21766   2.535   6.123  10.508  1.2761 -0.1277  1.3124
  189POPC   C2521767   2.500   5.999  10.333 -0.4655  0.2033  0.5378
  189POPC   H5R21768   2.452   5.904  10.364  1.8988 -0.8787  1.0887
  189POPC   H5S21769   2.565   5.968  10.248 -1.2084 -0.0486  0.0484
  189POPC   C2621770   2.397   6.093  10.280  0.4041  0.5684  0.7032
  189POPC   H6R21771   2.448   6.179  10.231  1.4159 -0.3699  0.0619
  189POPC   H6S21772   2.342   6.127  10.370 -2.5096 -0.1141 -0.7174
  189POPC   C2721773   2.289   6.038  10.179 -0.1107  0.0579 -0.1660
  189POPC   H7R21774   2.203   6.105  10.162  0.4204  0.6915 -0.3912
  189POPC   H7S21775   2.234   5.948  10.215 -0.5805  0.2881 -0.3153
  189POPC   C2821776   2.350   5.999  10.043  0.1378 -0.1877  0.2050
  189POPC   H8R21777   2.269   5.944   9.991  0.2943 -0.4847  0.2775
  189POPC   H8S21778   2.430   5.926  10.066 -0.2056  0.0153  2.2105
  189POPC   C2921779   2.415   6.107   9.954  1.0777 -0.4426  0.4573
  189POPC   H9121780   2.480   6.181  10.002  0.6422  0.9353 -1.0057
  189POPC  C21021781   2.384   6.145   9.830  0.4422  0.0351  0.1787
  189POPC  H10121782   2.434   6.231   9.783 -1.0886  1.3840  0.9359
  189POPC  C21121783   2.267   6.085   9.747 -0.8046  0.1372  0.3291
  189POPC  H11R21784   2.180   6.066   9.814 -1.5524 -0.2449 -0.7154
  189POPC  H11S21785   2.292   5.986   9.702 -0.3394  0.4643 -0.1398
  189POPC  C21221786   2.226   6.190   9.639 -0.0951  0.7397 -0.0446
  189POPC  H12R21787   2.307   6.198   9.563 -0.4036 -0.2590 -0.4861
  189POPC  H12S21788   2.207   6.294   9.672  0.3080  1.4702 -1.9527
  189POPC  C21321789   2.094   6.152   9.576 -0.8054  0.3874 -0.2662
  189POPC  H13R21790   2.009   6.175   9.644  1.1751  2.5293  1.6320
  189POPC  H13S21791   2.101   6.047   9.540  1.4037  0.3594  0.1262
  189POPC  C21421792   2.063   6.236   9.448 -0.3754  0.2488  0.8701
  189POPC  H14R21793   2.052   6.344   9.474 -0.7441  0.4067  0.0837
  189POPC  H14S21794   1.962   6.203   9.418 -0.2967 -0.6194  1.5517
  189POPC  C21521795   2.162   6.213   9.326  0.2032 -0.6340  1.0348
  189POPC  H15R21796   2.188   6.105   9.325  1.1975 -0.4017  0.2526
  189POPC  H15S21797   2.256   6.270   9.343 -1.9282  3.7116 -0.2022
  189POPC  C21621798   2.092   6.242   9.197  0.5571  0.2618 -0.1610
  189POPC  H16R21799   2.060   6.349   9.203 -0.0904  0.1044 -0.7609
  189POPC  H16S21800   2.006   6.175   9.179  1.8940 -1.1974 -1.3257
  189POPC  C21721801   2.185   6.217   9.074 -0.5255 -0.0132  0.0182
  189POPC  H17R21802   2.231   6.115   9.072 -1.1972 -0.3139 -1.1800
  189POPC  H17S21803   2.256   6.302   9.075 -0.3596 -0.1487  1.2423
  189POPC  C21821804   2.123   6.232   8.934 -0.2631 -0.4260  0.1623
  189POPC  H18R21805   2.086   6.131   8.904  4.7726 -2.4532 -0.2039
  189POPC  H18S21806   2.179   6.266   8.844 -0.7099  1.1143  0.4366
  189POPC  H18T21807   2.034   6.298   8.931 -0.0120 -0.1054 -1.0758
  189POPC   C3321808   2.584   6.546  10.269  0.6111  0.6118  0.0995
  189POPC   H3X21809   2.692   6.551  10.245  0.4742  0.5261 -0.5415
  189POPC   H3Y21810   2.551   6.651  10.286  1.3360  0.7347  0.7943
  189POPC   C3421811   2.503   6.492  10.149 -0.4144 -0.5833  0.0967
  189POPC   H4X21812   2.397   6.486  10.181 -0.9888  2.4308 -0.9689
  189POPC   H4Y21813   2.537   6.388  10.128  2.1630  0.3445 -0.6798
  189POPC   C3521814   2.516   6.575  10.019  0.0375 -1.1941 -0.0807
  189POPC   H5X21815   2.620   6.584   9.980 -0.9044  0.7648 -2.3436
  189POPC   H5Y21816   2.471   6.675  10.038  1.2686 -0.8084  0.9228
  189POPC   C3621817   2.443   6.521   9.897  0.3572 -0.0525  0.4503
  189POPC   H6X21818   2.337   6.506   9.928  0.2854 -0.9061 -0.1532
  189POPC   H6Y21819   2.486   6.421   9.872 -2.5864 -1.0154 -1.3099
  189POPC   C3721820   2.457   6.605   9.773  0.1788  0.0151 -0.0856
  189POPC   H7X21821   2.563   6.611   9.739  0.1489 -0.3669 -0.2520
  189POPC   H7Y21822   2.439   6.710   9.805  0.5174  0.0988 -0.1594
  189POPC   C3821823   2.372   6.558   9.657 -0.3932 -0.5841  0.4969
  189POPC   H8X21824   2.263   6.558   9.679 -1.1727 -0.8652 -2.8483
  189POPC   H8Y21825   2.402   6.457   9.623  1.2263  0.6261 -2.0301
  189POPC   C3921826   2.376   6.637   9.524  1.0939  0.9748 -0.0343
  189POPC   H9X21827   2.482   6.659   9.503  1.2540  0.5800  0.3537
  189POPC   H9Y21828   2.318   6.729   9.545 -1.1734 -0.2078 -0.7616
  189POPC  C31021829   2.313   6.562   9.405 -0.6928  0.2037 -0.4085
  189POPC  H10X21830   2.213   6.521   9.429 -0.3349  0.1369  1.0140
  189POPC  H10Y21831   2.387   6.484   9.376 -0.1238  1.8434 -3.8907
  189POPC  C31121832   2.305   6.654   9.283  0.2605  0.2925 -0.3102
  189POPC  H11X21833   2.408   6.676   9.247  0.5309 -2.0166 -1.1228
  189POPC  H11Y21834   2.255   6.747   9.315 -0.1896 -0.3456  0.9144
  189POPC  C31221835   2.227   6.600   9.164 -0.1843  0.3161  0.0815
  189POPC  H12X21836   2.124   6.563   9.184 -0.2640  0.3154 -0.3165
  189POPC  H12Y21837   2.279   6.509   9.129  0.1116  0.6937 -0.4723
  189POPC  C31321838   2.234   6.693   9.039 -0.6693 -0.1074  0.8067
  189POPC  H13X21839   2.340   6.726   9.032 -0.6310 -0.4514 -0.7536
  189POPC  H13Y21840   2.172   6.783   9.054  0.5836  0.5351  2.4875
  189POPC  C31421841   2.198   6.630   8.904  0.0301 -0.0180  0.7987
  189POPC  H14X21842   2.096   6.585   8.907  0.1896 -0.6208 -1.2069
  189POPC  H14Y21843   2.269   6.549   8.877 -0.5706 -0.2399 -0.1922
  189POPC  C31521844   2.178   6.727   8.778  1.0336  0.2274  0.4180
  189POPC  H15X21845   2.266   6.794   8.768  0.3170  1.1444  0.2250
  189POPC  H15Y21846   2.091   6.793   8.795  1.8063  1.2511  0.4350
  189POPC  C31621847   2.163   6.648   8.641 -1.2902 -0.6743  0.0211
  189POPC  H16X21848   2.151   6.727   8.563 -0.8074  0.7900  1.3637
  189POPC  H16Y21849   2.080   6.575   8.646 -3.2134  1.4951  1.4267
  189POPC  H16Z21850   2.251   6.584   8.619 -0.7051 -0.5236  1.8140
  190POPC     N21851   4.149   1.617  11.236 -0.3657  0.3074 -0.2021
  190POPC   C1221852   4.302   1.627  11.201  0.1758  0.2347  0.2593
  190POPC  H12A21853   4.335   1.525  11.197  0.2898  0.2965 -0.4815
  190POPC  H12B21854   4.362   1.669  11.280  0.5852 -1.1982  0.7395
  190POPC   C1321855   4.079   1.532  11.135  0.0503  0.2788 -0.0769
  190POPC  H13A21856   4.065   1.576  11.038 -1.2361 -0.8961 -0.4500
  190POPC  H13B21857   4.129   1.437  11.125 -2.0357 -0.7561 -1.3471
  190POPC  H13C21858   3.979   1.501  11.159 -1.0522  1.3499 -2.8810
  190POPC   C1421859   4.136   1.543  11.371 -0.1697  0.2902 -0.0220
  190POPC  H14A21860   4.031   1.532  11.392 -0.1230  0.0010  0.0602
  190POPC  H14B21861   4.182   1.446  11.366 -1.9065 -0.6955  2.0038
  190POPC  H14C21862   4.179   1.604  11.449 -2.5595  0.2024  1.4343
  190POPC   C1521863   4.077   1.743  11.236  0.1417  0.1163 -0.7564
  190POPC  H15A21864   4.062   1.776  11.134  0.1613  0.4835 -0.6414
  190POPC  H15B21865   4.120   1.820  11.298 -0.8631 -1.0796  1.5503
  190POPC  H15C21866   3.981   1.727  11.282  0.8036  2.1945  1.5096
  190POPC   C1121867   4.324   1.687  11.060  0.8464  0.4639  0.0804
  190POPC  H11A21868   4.236   1.747  11.028 -0.2411 -0.5138  1.1617
  190POPC  H11B21869   4.317   1.607  10.983 -0.8558 -0.0463  0.7332
  190POPC     P21870   4.575   1.701  10.991 -0.1760  0.7004 -0.3358
  190POPC   O1321871   4.605   1.564  11.044  0.0248  0.2588  0.1911
  190POPC   O1421872   4.682   1.803  10.990 -0.1177 -0.0881  0.2307
  190POPC   O1221873   4.444   1.760  11.064 -0.7985 -0.6037  0.1509
  190POPC   O1121874   4.538   1.677  10.839  0.0442  0.1806 -0.7953
  190POPC    C121875   4.502   1.797  10.765  0.5231  0.1657 -0.9064
  190POPC    HA21876   4.457   1.874  10.831 -0.5440 -0.4876 -0.8493
  190POPC    HB21877   4.427   1.765  10.689 -0.3581 -1.6990  0.6757
  190POPC    C221878   4.621   1.854  10.686 -0.2851  0.0873 -0.6424
  190POPC    HS21879   4.687   1.914  10.752 -1.9563  0.3108  0.9028
  190POPC   O2121880   4.562   1.936  10.585 -0.1469 -0.2695 -0.2668
  190POPC   C2121881   4.628   2.049  10.545 -0.2549 -0.1955  0.2108
  190POPC   O2221882   4.725   2.101  10.593 -0.0221  0.4950 -0.1571
  190POPC   C2221883   4.543   2.115  10.440  0.1049  0.0699 -0.4400
  190POPC   H2R21884   4.547   2.224  10.459 -1.8527 -0.2346  2.3917
  190POPC   H2S21885   4.438   2.088  10.463  0.1381 -1.3464 -1.7735
  190POPC    C321886   4.698   1.743  10.616 -0.5423  0.2081 -0.6422
  190POPC    HX21887   4.633   1.669  10.564  0.3652  0.2403 -1.8707
  190POPC    HY21888   4.764   1.698  10.694  1.7932  1.1280 -1.9708
  190POPC   O3121889   4.777   1.796  10.503  0.0153  0.1595 -0.7204
  190POPC   C3121890   4.899   1.755  10.501 -0.1670 -0.0640 -0.4980
  190POPC   O3221891   4.947   1.661  10.564 -0.0709 -0.1898  0.1105
  190POPC   C3221892   4.981   1.835  10.397  0.0621 -0.4032  0.3702
  190POPC   H2X21893   5.088   1.837  10.427 -0.1806  0.1211  1.2398
  190POPC   H2Y21894   4.937   1.936  10.402 -2.3252 -1.3766  0.3382
  190POPC   C2321895   4.565   2.058  10.300  0.9318  0.8111  0.3718
  190POPC   H3R21896   4.561   1.947  10.309  2.6616  0.7908  1.3952
  190POPC   H3S21897   4.667   2.078  10.260  0.5914  2.0167  0.0780
  190POPC   C2421898   4.459   2.105  10.204  0.5218 -0.7508  0.4654
  190POPC   H4R21899   4.460   2.216  10.211 -3.1896 -0.5415 -0.2917
  190POPC   H4S21900   4.357   2.076  10.235 -1.7993  3.0739 -2.5725
  190POPC   C2521901   4.485   2.066  10.058 -0.1739 -0.1601 -0.7281
  190POPC   H5R21902   4.484   1.955  10.057  3.5060 -0.3135 -0.6893
  190POPC   H5S21903   4.587   2.095  10.025 -0.2241 -1.0943 -1.7667
  190POPC   C2621904   4.379   2.119   9.965 -0.0618 -0.8427  0.0072
  190POPC   H6R21905   4.392   2.229   9.953  0.8294 -1.0017 -0.5792
  190POPC   H6S21906   4.283   2.085  10.007 -0.3218 -3.8721 -2.6730
  190POPC   C2721907   4.384   2.063   9.823  0.1936  1.1024  0.0121
  190POPC   H7R21908   4.417   1.958   9.836 -1.0923  0.7459  0.4912
  190POPC   H7S21909   4.465   2.110   9.763 -0.3373  0.7264 -1.0240
  190POPC   C2821910   4.247   2.058   9.753  0.7935 -0.8333  0.3350
  190POPC   H8R21911   4.217   2.162   9.725  1.6564 -1.5934 -4.1617
  190POPC   H8S21912   4.167   2.019   9.819  0.8973 -2.1006 -0.2696
  190POPC   C2921913   4.240   1.953   9.646  0.2984 -0.1294  0.1295
  190POPC   H9121914   4.270   1.852   9.678  0.7846 -0.5245 -1.4726
  190POPC  C21021915   4.188   1.974   9.525  1.3060  0.3350 -0.5195
  190POPC  H10121916   4.190   1.888   9.457 -1.2174 -0.2072 -0.0298
  190POPC  C21121917   4.136   2.099   9.468 -0.2300  0.1908 -0.0088
  190POPC  H11R21918   4.204   2.184   9.492 -0.4461  0.0689  1.0735
  190POPC  H11S21919   4.036   2.112   9.514  0.0648  0.3582  0.6011
  190POPC  C21221920   4.103   2.102   9.320 -0.2473  0.6874  0.1657
  190POPC  H12R21921   4.051   2.196   9.291 -0.6147 -0.0866 -1.8009
  190POPC  H12S21922   4.033   2.021   9.289 -1.2647  2.0297 -1.2031
  190POPC  C21321923   4.233   2.090   9.234  0.0326  0.7409  0.4390
  190POPC  H13R21924   4.294   2.003   9.264 -1.0484 -0.7205 -1.4278
  190POPC  H13S21925   4.294   2.182   9.243  1.5662 -0.2212  0.2282
  190POPC  C21421926   4.191   2.084   9.086  0.0164  0.2566  0.1040
  190POPC  H14R21927   4.150   2.183   9.058 -2.9396 -1.3764 -1.9475
  190POPC  H14S21928   4.104   2.015   9.089 -1.5563  2.1693  0.9016
  190POPC  C21521929   4.308   2.035   9.000 -0.3207  0.0919 -0.4495
  190POPC  H15R21930   4.339   1.931   9.025 -2.2346 -0.7507 -1.3378
  190POPC  H15S21931   4.392   2.102   9.029  0.5384 -2.0142  2.3911
  190POPC  C21621932   4.269   2.017   8.847 -0.7277 -0.2648 -0.3629
  190POPC  H16R21933   4.248   2.115   8.800  0.1992 -1.1309 -2.7494
  190POPC  H16S21934   4.172   1.964   8.844 -1.8888  1.3989  2.9680
  190POPC  C21721935   4.388   1.963   8.763  0.7344 -0.2647  0.0184
  190POPC  H17R21936   4.352   1.938   8.660 -0.0389  2.7589 -0.5411
  190POPC  H17S21937   4.426   1.870   8.811  1.7867 -0.1282 -0.5203
  190POPC  C21821938   4.508   2.051   8.764  0.3601  0.5779 -0.1043
  190POPC  H18R21939   4.539   2.092   8.862  1.8298  1.5012 -0.9254
  190POPC  H18S21940   4.502   2.138   8.696  0.2720  1.1462  0.6257
  190POPC  H18T21941   4.597   1.994   8.728  0.0747 -0.4399  0.7478
  190POPC   C3321942   4.972   1.772  10.263  0.1368  0.5399  0.7415
  190POPC   H3X21943   4.958   1.661  10.265  0.4777  0.4936  0.6652
  190POPC   H3Y21944   5.064   1.790  10.203 -0.0679 -0.0927  0.2199
  190POPC   C3421945   4.864   1.839  10.175 -0.3525 -0.2295 -0.5906
  190POPC   H4X21946   4.885   1.948  10.185 -2.8061  0.2564 -0.1207
  190POPC   H4Y21947   4.761   1.827  10.214 -0.6779 -0.4282 -1.4900
  190POPC   C3521948   4.859   1.780  10.030  0.5686  0.2793 -0.1062
  190POPC   H5X21949   4.844   1.670  10.034 -2.1024  0.5981  2.4948
  190POPC   H5Y21950   4.952   1.807   9.974  1.1034 -1.6614 -0.2026
  190POPC   C3621951   4.744   1.847   9.943 -0.0261  0.6165  0.4288
  190POPC   H6X21952   4.749   1.956   9.959 -0.1303  0.7254 -0.2265
  190POPC   H6Y21953   4.649   1.813   9.990  0.8146 -2.2416  0.2767
  190POPC   C3721954   4.767   1.806   9.802  0.5712  0.4795  0.5382
  190POPC   H7X21955   4.766   1.695   9.796 -0.2871  0.3652  2.2662
  190POPC   H7Y21956   4.865   1.840   9.761  0.2668  1.2500  0.4340
  190POPC   C3821957   4.664   1.858   9.706  1.0051 -0.1092  0.2294
  190POPC   H8X21958   4.645   1.962   9.737  2.0768  0.4237 -0.8281
  190POPC   H8Y21959   4.568   1.802   9.709  0.7381  0.3369 -0.0329
  190POPC   C3921960   4.718   1.859   9.559 -0.1065  0.0003  0.8961
  190POPC   H9X21961   4.722   1.755   9.520  2.6826  1.1563 -2.4712
  190POPC   H9Y21962   4.820   1.904   9.564 -0.7529  1.6370  0.0079
  190POPC  C31021963   4.633   1.942   9.462  0.0855 -0.7662  0.4366
  190POPC  H10X21964   4.615   2.039   9.514 -0.2426 -0.7960  0.3808
  190POPC  H10Y21965   4.539   1.888   9.439 -0.7123  1.3163 -1.5839
  190POPC  C31121966   4.710   2.006   9.349 -0.0427  0.4572  0.3181
  190POPC  H11X21967   4.804   2.053   9.384  1.5742 -0.0312 -2.9354
  190POPC  H11Y21968   4.650   2.090   9.306 -0.6938 -0.0339  0.2518
  190POPC  C31221969   4.730   1.902   9.244 -0.1337  0.8721  0.3034
  190POPC  H12X21970   4.639   1.843   9.218 -1.0361  2.4389 -0.2758
  190POPC  H12Y21971   4.810   1.834   9.280 -1.0291  0.1162  0.9267
  190POPC  C31321972   4.770   1.952   9.105 -0.8442  0.0988 -0.3754
  190POPC  H13X21973   4.870   2.000   9.099 -0.2174 -1.0383  0.6148
  190POPC  H13Y21974   4.698   2.029   9.069 -0.5919 -1.1961 -3.9976
  190POPC  C31421975   4.776   1.845   8.990 -0.6754 -1.6674  0.0729
  190POPC  H14X21976   4.779   1.903   8.895  2.4004  1.8177  2.0541
  190POPC  H14Y21977   4.683   1.783   8.994 -2.9802  1.5189  0.4299
  190POPC  C31521978   4.902   1.759   8.990 -0.0242  0.2898 -0.6935
  190POPC  H15X21979   4.915   1.698   9.082  0.5915  0.0461 -0.9340
  190POPC  H15Y21980   4.983   1.835   8.991 -0.1867  0.4623  0.2692
  190POPC  C31621981   4.919   1.660   8.874  0.3514  0.0917 -0.9259
  190POPC  H16X21982   4.818   1.614   8.869  1.0789 -1.9787  1.4088
  190POPC  H16Y21983   5.005   1.590   8.880  1.3566  1.1703 -2.0903
  190POPC  H16Z21984   4.933   1.708   8.774 -1.5652 -0.2292 -1.3911
  191POPC     N21985   3.766   3.748   6.058  0.3205 -0.8364  0.1844
  191POPC   C1221986   3.701   3.862   6.131  0.6978 -0.4079 -0.8181
  191POPC  H12A21987   3.597   3.860   6.100  0.9474  0.0702 -1.7063
  191POPC  H12B21988   3.734   3.958   6.094 -1.3820  0.0921 -1.5332
  191POPC   C1321989   3.730   3.757   5.907  0.0143  0.2209 -0.2403
  191POPC  H13A21990   3.626   3.734   5.889  0.0692  0.1048 -0.4145
  191POPC  H13B21991   3.757   3.853   5.864  1.3997 -0.9310 -2.1626
  191POPC  H13C21992   3.791   3.696   5.841  1.2477 -0.0704  1.1194
  191POPC   C1421993   3.911   3.764   6.077 -0.0507  0.1700  0.6690
  191POPC  H14A21994   3.944   3.843   6.012  0.9626  1.4385  2.6210
  191POPC  H14B21995   3.940   3.779   6.180  0.8385  0.0316  0.4498
  191POPC  H14C21996   3.962   3.673   6.046  3.0042  1.5637  1.1946
  191POPC   C1521997   3.720   3.618   6.114  0.2683  0.0628  0.3720
  191POPC  H15A21998   3.745   3.612   6.219  2.4195 -0.2091 -0.0982
  191POPC  H15B21999   3.775   3.539   6.064 -2.2981 -1.4695 -0.2045
  191POPC  H15C22000   3.615   3.612   6.090  0.5458 -1.9961 -0.6048
  191POPC   C1122001   3.715   3.876   6.287 -0.3293  0.3144 -0.2227
  191POPC  H11A22002   3.665   3.786   6.330 -1.7958  0.9659 -0.5119
  191POPC  H11B22003   3.654   3.964   6.316  1.8650  2.4210 -1.6042
  191POPC     P22004   3.924   4.033   6.313  0.0360  0.2712 -0.0601
  191POPC   O1322005   3.837   4.125   6.237 -0.0380 -0.9775  0.2174
  191POPC   O1422006   4.059   4.014   6.261 -0.2491 -0.4642  0.1133
  191POPC   O1222007   3.854   3.891   6.330 -0.4893  0.0409 -0.0390
  191POPC   O1122008   3.919   4.074   6.468 -0.0950  0.4749  1.0833
  191POPC    C122009   3.906   3.990   6.582  0.7613 -0.5437  0.5401
  191POPC    HA22010   3.990   3.917   6.579  0.3120 -1.1650  2.0607
  191POPC    HB22011   3.816   3.924   6.587  0.5030 -0.0992  2.1087
  191POPC    C222012   3.912   4.073   6.712  0.1797  0.8525 -1.0576
  191POPC    HS22013   4.003   4.134   6.697  0.2496  1.1645  0.4898
  191POPC   O2122014   3.924   3.981   6.822  0.2253 -0.1949  0.0214
  191POPC   C2122015   3.974   4.033   6.930  0.4621  0.2017 -0.0426
  191POPC   O2222016   4.027   4.140   6.941  0.7427  0.2126 -0.0704
  191POPC   C2222017   3.966   3.925   7.045 -0.8139 -0.3902  0.2331
  191POPC   H2R22018   4.073   3.901   7.063 -0.3813 -0.2074 -1.8249
  191POPC   H2S22019   3.916   3.837   6.998 -0.3255  0.3250 -1.7142
  191POPC    C322020   3.779   4.153   6.732 -0.8801  0.1705 -0.0018
  191POPC    HX22021   3.698   4.077   6.741  1.5941 -2.9480 -2.0764
  191POPC    HY22022   3.753   4.210   6.640 -1.1504 -1.0871 -0.7319
  191POPC   O3122023   3.779   4.247   6.844  0.0073  0.7379 -0.0438
  191POPC   C3122024   3.850   4.360   6.837 -0.3300  0.6587  0.1041
  191POPC   O3222025   3.928   4.391   6.747  0.6499 -0.5934 -0.0974
  191POPC   C3222026   3.819   4.438   6.972 -0.0408  0.4048  0.5740
  191POPC   H2X22027   3.722   4.487   6.951 -1.4309 -2.8134 -1.1365
  191POPC   H2Y22028   3.905   4.507   6.988  3.2686 -2.7828 -1.6669
  191POPC   C2322029   3.896   3.970   7.174  0.2173 -0.4959  0.4086
  191POPC   H3R22030   3.791   4.003   7.159 -0.0650 -1.2422  0.7175
  191POPC   H3S22031   3.955   4.053   7.219 -2.0541  1.9832 -0.8690
  191POPC   C2422032   3.885   3.858   7.279 -0.4639 -0.2119  0.6667
  191POPC   H4R22033   3.984   3.809   7.288  0.8176  2.0914  0.0572
  191POPC   H4S22034   3.817   3.779   7.241 -2.1609  1.0098  1.0450
  191POPC   C2522035   3.839   3.914   7.411 -0.1649 -0.4993  0.0527
  191POPC   H5R22036   3.734   3.949   7.413 -0.8513 -2.4346  2.0951
  191POPC   H5S22037   3.906   4.001   7.429  0.1089 -0.4365 -1.2060
  191POPC   C2622038   3.845   3.806   7.530  0.9884 -0.0382  0.1221
  191POPC   H6R22039   3.954   3.804   7.551  0.7534 -0.6337  1.3282
  191POPC   H6S22040   3.824   3.703   7.497  1.0723  0.0279 -0.1422
  191POPC   C2722041   3.757   3.844   7.659  0.1250  0.0148  0.0289
  191POPC   H7R22042   3.648   3.839   7.636  0.5602 -2.3852 -1.9430
  191POPC   H7S22043   3.786   3.949   7.682 -0.0081 -0.1059  0.7652
  191POPC   C2822044   3.775   3.755   7.787 -0.0894  0.1714 -0.4711
  191POPC   H8R22045   3.790   3.651   7.749 -2.4716 -1.5570  2.7780
  191POPC   H8S22046   3.676   3.753   7.837 -0.6675 -1.9659 -1.5563
  191POPC   C2922047   3.897   3.790   7.865  0.0236  0.2900  0.3094
  191POPC   H9122048   3.973   3.820   7.791  1.4511 -1.8621  0.8019
  191POPC  C21022049   3.929   3.793   7.992 -0.0241 -0.5201 -0.2557
  191POPC  H10122050   4.030   3.823   8.023 -0.1671 -1.1167  0.8616
  191POPC  C21122051   3.844   3.753   8.108 -0.3726 -0.6706  0.0743
  191POPC  H11R22052   3.746   3.722   8.066  0.8063 -0.6516 -2.9431
  191POPC  H11S22053   3.835   3.853   8.157 -0.9915 -1.4420  1.6073
  191POPC  C21222054   3.889   3.644   8.203  0.5327  0.2616  0.0026
  191POPC  H12R22055   4.000   3.639   8.201  0.4774 -1.9563 -2.2270
  191POPC  H12S22056   3.872   3.540   8.169  3.1153 -0.4247  0.5771
  191POPC  C21322057   3.854   3.669   8.353 -0.0806 -0.1881 -0.0558
  191POPC  H13R22058   3.877   3.582   8.419  0.3408 -0.0127  0.0354
  191POPC  H13S22059   3.747   3.697   8.357 -0.1304 -0.5172  1.7981
  191POPC  C21422060   3.955   3.775   8.401  0.2397 -0.6518 -0.2617
  191POPC  H14R22061   3.930   3.870   8.349 -0.6652 -0.5051  0.3998
  191POPC  H14S22062   4.055   3.739   8.372 -0.0553 -0.1568 -2.0360
  191POPC  C21522063   3.952   3.784   8.555  0.4081 -0.3758 -0.1817
  191POPC  H15R22064   4.024   3.860   8.593  1.7037 -1.4616 -0.4077
  191POPC  H15S22065   3.997   3.687   8.585 -0.6483 -1.0653 -0.7707
  191POPC  C21622066   3.815   3.816   8.613  0.5121  0.3799 -0.2302
  191POPC  H16R22067   3.746   3.729   8.610 -0.6865  1.2472  0.8342
  191POPC  H16S22068   3.766   3.893   8.550 -1.1113 -0.0874  0.4241
  191POPC  C21722069   3.830   3.873   8.754  0.1829  0.6333  0.0483
  191POPC  H17R22070   3.898   3.959   8.735  0.9754  0.3152  1.3307
  191POPC  H17S22071   3.885   3.794   8.810  1.4146  0.1348 -1.7691
  191POPC  C21822072   3.697   3.915   8.833 -0.4089  0.1087  0.2762
  191POPC  H18R22073   3.680   4.019   8.797 -0.4220  0.0317  0.0591
  191POPC  H18S22074   3.714   3.915   8.943  2.9817 -1.3503 -0.1301
  191POPC  H18T22075   3.604   3.861   8.804 -0.6136  1.6453 -2.1804
  191POPC   C3322076   3.815   4.352   7.104 -0.1967  0.8089  0.3505
  191POPC   H3X22077   3.898   4.281   7.129 -1.5245 -0.0163  2.6821
  191POPC   H3Y22078   3.736   4.275   7.090  3.5148 -2.9359 -3.3811
  191POPC   C3422079   3.811   4.432   7.231  0.8239 -0.0596 -0.1058
  191POPC   H4X22080   3.716   4.488   7.242  0.2561 -0.8846 -0.6881
  191POPC   H4Y22081   3.898   4.498   7.251  1.2874 -0.9783  0.9924
  191POPC   C3522082   3.803   4.340   7.359 -0.0989  0.0107  0.0870
  191POPC   H5X22083   3.882   4.263   7.351 -0.4037 -0.6306  2.6597
  191POPC   H5Y22084   3.703   4.291   7.354  0.6570 -1.5218 -0.5890
  191POPC   C3622085   3.809   4.418   7.486 -1.0059  0.3133 -0.1784
  191POPC   H6X22086   3.718   4.482   7.486 -0.5668  1.0604 -2.8689
  191POPC   H6Y22087   3.901   4.481   7.487 -1.0440  0.3663  0.2203
  191POPC   C3722088   3.800   4.335   7.617 -0.2638 -0.2965  0.3793
  191POPC   H7X22089   3.896   4.297   7.657 -0.9255  0.2198  2.6223
  191POPC   H7Y22090   3.740   4.245   7.591 -0.6209  0.3253 -1.0271
  191POPC   C3822091   3.727   4.408   7.731  0.0928 -0.4284 -0.1249
  191POPC   H8X22092   3.635   4.446   7.682  1.2660 -0.2589 -2.2941
  191POPC   H8Y22093   3.797   4.492   7.746 -0.5087  0.6274 -2.7251
  191POPC   C3922094   3.712   4.322   7.860 -0.0000  0.5593  0.1215
  191POPC   H9X22095   3.634   4.243   7.851 -1.3992  1.9679 -0.4750
  191POPC   H9Y22096   3.679   4.386   7.944 -0.6270 -0.6308  0.8085
  191POPC  C31022097   3.836   4.242   7.907 -0.2330 -0.1593 -0.4318
  191POPC  H10X22098   3.928   4.304   7.918 -0.3058 -0.3913  1.9764
  191POPC  H10Y22099   3.849   4.177   7.818 -0.6796 -1.0571  0.1495
  191POPC  C31122100   3.810   4.145   8.025  0.4610  0.4672 -0.2789
  191POPC  H11X22101   3.904   4.101   8.063 -0.6609  1.1832  3.8262
  191POPC  H11Y22102   3.750   4.060   7.986 -0.0361  0.8737 -0.4046
  191POPC  C31222103   3.741   4.215   8.142  0.3538  0.2124  0.6032
  191POPC  H12X22104   3.632   4.233   8.129  0.0535 -0.3861  2.0551
  191POPC  H12Y22105   3.782   4.317   8.157  1.6942 -0.0846 -0.8462
  191POPC  C31322106   3.748   4.144   8.274  0.1438 -0.3425 -0.5618
  191POPC  H13X22107   3.851   4.118   8.307 -0.4314 -1.2589  0.6098
  191POPC  H13Y22108   3.702   4.046   8.248  1.6279 -0.6807 -2.0841
  191POPC  C31422109   3.673   4.219   8.385  0.1369 -0.3515 -0.4780
  191POPC  H14X22110   3.631   4.143   8.454  1.3661 -1.7577 -1.2138
  191POPC  H14Y22111   3.580   4.269   8.349 -1.1752 -2.2577  0.1375
  191POPC  C31522112   3.775   4.311   8.460  0.2396  0.4081 -0.3710
  191POPC  H15X22113   3.795   4.393   8.388  1.8353  0.6347  0.3030
  191POPC  H15Y22114   3.870   4.255   8.463  0.7770  1.3120 -0.3104
  191POPC  C31622115   3.721   4.353   8.596 -0.0247  0.1291  0.4670
  191POPC  H16X22116   3.690   4.268   8.661  0.3462  0.4777  1.1036
  191POPC  H16Y22117   3.626   4.409   8.581  0.6684  1.2585  0.2232
  191POPC  H16Z22118   3.793   4.420   8.647  0.4176 -0.3412  0.4676
  192POPC     N22119   2.864   5.782   6.146  0.2018 -0.0316  0.5708
  192POPC   C1222120   2.826   5.858   6.273  0.2338  0.5294 -0.4886
  192POPC  H12A22121   2.742   5.802   6.311 -0.1239  1.5933  0.3362
  192POPC  H12B22122   2.802   5.962   6.254 -0.7122  0.8046  1.7918
  192POPC   C1322123   2.993   5.834   6.094 -0.0516 -0.1144  0.7402
  192POPC  H13A22124   3.024   5.804   5.995  1.2988 -1.1548  1.4486
  192POPC  H13B22125   2.975   5.941   6.088  1.4998  0.1487  0.4036
  192POPC  H13C22126   3.080   5.823   6.157  1.3527  1.0697 -0.8932
  192POPC   C1422127   2.867   5.631   6.164  0.4641  0.0922  0.2367
  192POPC  H14A22128   2.933   5.601   6.245 -1.8217 -1.9252  1.4706
  192POPC  H14B22129   2.770   5.598   6.196 -0.3022  2.0538  0.1062
  192POPC  H14C22130   2.895   5.587   6.070 -0.0762  0.3243 -0.0353
  192POPC   C1522131   2.754   5.812   6.047 -0.3566  0.2168  0.6719
  192POPC  H15A22132   2.655   5.788   6.083 -0.9265  1.6976  0.1852
  192POPC  H15B22133   2.769   5.762   5.952 -0.1083  0.3490  0.6412
  192POPC  H15C22134   2.746   5.919   6.032 -1.6958  0.3750  2.1792
  192POPC   C1122135   2.932   5.856   6.393  0.0240 -0.0404  0.1550
  192POPC  H11A22136   2.947   5.748   6.411  0.8785  0.0080 -0.2335
  192POPC  H11B22137   2.892   5.900   6.487 -1.8080  2.6425 -1.7239
  192POPC     P22138   3.051   6.077   6.344  0.2767  0.0719  0.3971
  192POPC   O1322139   2.944   6.116   6.253 -0.4110 -0.8257 -0.3830
  192POPC   O1422140   3.181   6.132   6.305 -0.5540 -0.2009 -0.5974
  192POPC   O1222141   3.055   5.919   6.357  0.5132  0.3738 -0.6894
  192POPC   O1122142   3.011   6.117   6.491  0.0603  0.0450 -0.1370
  192POPC    C122143   3.106   6.151   6.595 -0.0004 -0.5348  0.3844
  192POPC    HA22144   3.057   6.186   6.688 -1.5336 -0.9630 -0.2250
  192POPC    HB22145   3.157   6.245   6.564  0.7005 -1.1544 -0.3999
  192POPC    C222146   3.204   6.037   6.637  0.3711  0.0002 -0.1889
  192POPC    HS22147   3.275   6.025   6.552 -0.9915  0.1408 -1.3692
  192POPC   O2122148   3.135   5.916   6.669  0.0052  0.0058 -0.1521
  192POPC   C2122149   3.215   5.811   6.698  0.3291  0.3598 -0.3651
  192POPC   O2222150   3.334   5.803   6.678  0.0712  0.5707 -0.6743
  192POPC   C2222151   3.122   5.696   6.753 -0.2004 -0.0990  0.6247
  192POPC   H2R22152   3.060   5.668   6.665  0.7672 -0.6202  0.0846
  192POPC   H2S22153   3.059   5.735   6.835  0.5014 -0.9236  1.5813
  192POPC    C322154   3.287   6.079   6.758 -0.2718 -0.1494  0.7091
  192POPC    HX22155   3.297   6.189   6.742  0.3723 -0.4044 -0.9217
  192POPC    HY22156   3.388   6.035   6.747 -0.1049 -0.5651  3.3471
  192POPC   O3122157   3.239   6.038   6.888  0.3836  0.3235 -0.1160
  192POPC   C3122158   3.294   6.104   6.996  0.7438  0.5948 -0.1294
  192POPC   O3222159   3.383   6.181   6.988  0.1519 -0.3367 -0.5885
  192POPC   C3222160   3.234   6.064   7.131  0.2121 -0.5548 -0.1118
  192POPC   H2X22161   3.178   5.969   7.124 -0.9698 -0.0032  1.2948
  192POPC   H2Y22162   3.169   6.152   7.151  0.1490 -0.8344  1.0033
  192POPC   C2322163   3.184   5.560   6.792 -0.3230  0.1846  0.5558
  192POPC   H3R22164   3.230   5.516   6.701  0.3739 -0.7003  1.3155
  192POPC   H3S22165   3.100   5.489   6.809 -0.9157  0.8417  0.4001
  192POPC   C2422166   3.285   5.559   6.910  0.1325 -0.1440  1.0894
  192POPC   H4R22167   3.370   5.614   6.864 -1.4754  1.8144  0.3151
  192POPC   H4S22168   3.305   5.452   6.932 -0.2526 -0.8921 -1.7709
  192POPC   C2522169   3.229   5.617   7.040  0.3798 -0.6927  0.1981
  192POPC   H5R22170   3.129   5.573   7.060 -0.5571  2.0568  2.3792
  192POPC   H5S22171   3.198   5.723   7.023  0.0440 -0.9118 -0.5766
  192POPC   C2622172   3.317   5.605   7.161 -0.0472  0.2463  0.9680
  192POPC   H6R22173   3.416   5.654   7.147 -1.0083  2.3387  1.0228
  192POPC   H6S22174   3.345   5.498   7.166  1.3887  0.5076 -0.8065
  192POPC   C2722175   3.267   5.659   7.297  0.4137  0.1403  0.0960
  192POPC   H7R22176   3.156   5.662   7.292  0.3741 -0.0321  0.8395
  192POPC   H7S22177   3.311   5.761   7.297  0.1641  0.2576 -0.5547
  192POPC   C2822178   3.327   5.577   7.414 -0.4767 -0.4484 -0.0955
  192POPC   H8R22179   3.315   5.634   7.509  0.7227 -0.7732  0.2624
  192POPC   H8S22180   3.430   5.548   7.384  0.0124  1.1022 -0.0150
  192POPC   C2922181   3.238   5.458   7.419 -0.2079  0.4434 -1.0910
  192POPC   H9122182   3.237   5.409   7.320 -1.0062  1.6026 -1.6785
  192POPC  C21022183   3.153   5.409   7.516  0.5068 -1.1558 -0.1596
  192POPC  H10122184   3.091   5.322   7.490 -0.8025 -0.9085  1.8948
  192POPC  C21122185   3.133   5.473   7.650 -0.3825  0.4900  0.9941
  192POPC  H11R22186   3.024   5.489   7.667 -1.0087 -1.3301 -0.9394
  192POPC  H11S22187   3.175   5.576   7.655 -0.3925  0.5369  0.1168
  192POPC  C21222188   3.221   5.397   7.751 -0.1936  0.3849  0.4126
  192POPC  H12R22189   3.328   5.421   7.732 -0.8076  2.7270 -0.3542
  192POPC  H12S22190   3.208   5.287   7.737 -3.6629  0.5831  1.1634
  192POPC  C21322191   3.190   5.432   7.903 -0.4984  0.2563  0.9021
  192POPC  H13R22192   3.088   5.392   7.922 -0.1424 -0.9669  0.3385
  192POPC  H13S22193   3.176   5.542   7.898 -0.6317  0.1741 -1.4291
  192POPC  C21422194   3.291   5.387   8.009 -0.0553 -0.9439 -0.2827
  192POPC  H14R22195   3.392   5.427   7.987  0.9397 -3.0483  0.2279
  192POPC  H14S22196   3.300   5.276   8.010  1.8632 -0.8346 -0.9761
  192POPC  C21522197   3.267   5.442   8.147  0.0657 -0.2253 -0.2273
  192POPC  H15R22198   3.167   5.417   8.187 -0.7595  0.9406 -1.4658
  192POPC  H15S22199   3.260   5.553   8.142 -0.6404 -0.2207  0.6843
  192POPC  C21622200   3.371   5.405   8.253  0.2963 -0.2811 -0.8670
  192POPC  H16R22201   3.462   5.464   8.229 -0.9110  2.0669  0.0068
  192POPC  H16S22202   3.387   5.295   8.253  3.1024 -0.0609  2.0583
  192POPC  C21722203   3.330   5.425   8.401 -0.5237  0.0375 -0.6129
  192POPC  H17R22204   3.415   5.395   8.465 -0.0396  2.0577 -0.2306
  192POPC  H17S22205   3.242   5.360   8.417 -0.2428 -0.4873 -1.1611
  192POPC  C21822206   3.301   5.573   8.443 -0.1749 -0.5967  0.0299
  192POPC  H18R22207   3.392   5.636   8.435 -0.6578 -0.0483 -1.5514
  192POPC  H18S22208   3.254   5.587   8.543  1.7482  0.8728  0.7912
  192POPC  H18T22209   3.229   5.612   8.367  0.6358 -0.7830 -0.8538
  192POPC   C3322210   3.335   6.044   7.249 -0.5526 -1.3402 -0.5102
  192POPC   H3X22211   3.393   6.137   7.271  1.1212 -1.7317 -2.8645
  192POPC   H3Y22212   3.401   5.959   7.222 -0.5928 -1.3105 -0.7019
  192POPC   C3422213   3.258   6.009   7.376  0.3573 -0.1667 -0.0249
  192POPC   H4X22214   3.194   5.922   7.350 -0.0075  0.4940 -1.4245
  192POPC   H4Y22215   3.195   6.094   7.408  2.0181  0.3538  2.0751
  192POPC   C3522216   3.353   5.969   7.494  0.3096  0.5090 -0.0968
  192POPC   H5X22217   3.428   5.891   7.467 -1.3140 -1.1510 -0.0035
  192POPC   H5Y22218   3.284   5.923   7.567 -0.7152  3.1770  0.7439
  192POPC   C3622219   3.429   6.089   7.560  0.1875  1.1428  0.1267
  192POPC   H6X22220   3.510   6.120   7.491  0.8119 -1.4352 -0.3795
  192POPC   H6Y22221   3.475   6.061   7.657  0.6380  1.9086  0.1413
  192POPC   C3722222   3.342   6.213   7.579  0.5282 -0.7250  0.4312
  192POPC   H7X22223   3.306   6.251   7.481 -0.0251  0.5330  1.0965
  192POPC   H7Y22224   3.411   6.291   7.618  0.1544 -0.1478 -0.0336
  192POPC   C3822225   3.220   6.183   7.668  0.6240 -0.3071  0.2553
  192POPC   H8X22226   3.256   6.151   7.769 -1.0059  0.1511  1.0032
  192POPC   H8Y22227   3.155   6.101   7.630 -0.5412  0.9274 -0.5026
  192POPC   C3922228   3.139   6.304   7.684  0.3443 -0.1243 -0.0869
  192POPC   H9X22229   3.109   6.342   7.584 -0.5324 -0.3984  0.0677
  192POPC   H9Y22230   3.199   6.382   7.735 -0.0400 -0.0051  0.1821
  192POPC  C31022231   3.019   6.282   7.776 -0.2219  0.0552 -0.4724
  192POPC  H10X22232   2.957   6.192   7.753 -1.4805  0.4689  1.0814
  192POPC  H10Y22233   2.956   6.371   7.757  1.0353  1.3067  0.8794
  192POPC  C31122234   3.049   6.289   7.927  0.4425 -0.3073 -0.2853
  192POPC  H11X22235   3.116   6.373   7.956 -3.9641  3.3425  0.4499
  192POPC  H11Y22236   3.104   6.194   7.945 -0.0230 -0.8914 -1.8047
  192POPC  C31222237   2.917   6.305   8.013  0.5170 -0.2611 -0.1399
  192POPC  H12X22238   2.862   6.209   8.020  0.7306 -0.2955  1.3408
  192POPC  H12Y22239   2.860   6.380   7.955 -0.1758 -0.7808 -0.1381
  192POPC  C31322240   2.940   6.354   8.156  0.2562  1.1719 -0.0672
  192POPC  H13X22241   2.997   6.449   8.154  2.3108 -0.0044 -0.9950
  192POPC  H13Y22242   3.001   6.285   8.218 -0.5985  1.4091  1.0664
  192POPC  C31422243   2.808   6.383   8.226 -0.3703  0.3567  0.1018
  192POPC  H14X22244   2.773   6.301   8.293 -0.1883 -0.1430 -0.4140
  192POPC  H14Y22245   2.728   6.409   8.154 -1.6901  0.6247  1.6060
  192POPC  C31522246   2.813   6.510   8.319  0.6099  0.1795 -0.0716
  192POPC  H15X22247   2.859   6.598   8.268  0.9126  1.7244  2.6555
  192POPC  H15Y22248   2.873   6.478   8.407  1.2069 -0.2795 -0.6335
  192POPC  C31622249   2.673   6.553   8.363  0.9057 -0.3965  0.9526
  192POPC  H16X22250   2.681   6.617   8.453  0.7172 -1.1086  1.4859
  192POPC  H16Y22251   2.607   6.466   8.386  0.0600 -0.7820 -2.4013
  192POPC  H16Z22252   2.619   6.597   8.277  0.3086 -1.3385  0.8258
  193SOD    SOD22253   3.473   5.655   2.320 -0.2605 -0.3581 -0.1843
  194SOD    SOD22254   6.381   3.087  14.316 -0.0233  0.3848 -0.4950
  195SOD    SOD22255   6.596   0.345  11.727  0.4090 -0.4233  0.0750
  196SOD    SOD22256   1.619   3.198  16.216  0.3032  0.0177  0.0858
  197SOD    SOD22257   3.331   0.303   5.756  0.6855  0.0671  0.3448
  198SOD    SOD22258   2.581   0.524   6.352  0.3240 -0.3881 -0.3672
  199SOD    SOD22259   3.047   1.324   3.328 -0.6717 -0.1651 -0.0617
  200SOD    SOD22260   1.731   1.358   6.229  0.3073 -0.2767  0.4740
  201SOD    SOD22261   2.298   2.967   0.256 -0.0065  0.0655 -0.2006
  202SOD    SOD22262   2.473   4.740  14.697 -0.1554 -0.1838 -0.1144
  203SOD    SOD22263   4.759   6.264   0.939 -0.2037 -0.3866 -0.4692
  204SOD    SOD22264   5.619   5.635  13.577 -0.4279 -0.6488  0.3790
  205SOD    SOD22265   4.693   2.234  11.222 -0.8753 -0.5122 -0.1304
  206SOD    SOD22266   2.587   1.699  15.886 -0.0700 -0.1874  0.2227
  207SOD    SOD22267   5.389   1.137   0.005  0.6708 -0.2063 -0.2998
  208SOD    SOD22268   3.985   4.425  11.623  0.6531  0.3122 -0.1067
  209SOD    SOD22269   5.097   6.138   1.785  0.1282 -0.0018 -0.0263
  210SOD    SOD22270   3.774   3.975   3.342  0.1943 -0.4567 -0.2493
  211SOD    SOD22271   1.289   3.927   6.165 -0.3048 -0.4998 -0.4437
  212SOD    SOD22272   4.945   2.667   2.662  0.3921  0.0551 -0.0709
  213SOD    SOD22273   5.184   3.745  11.561  0.2723 -0.4301 -0.4422
  214SOD    SOD22274   0.410   5.565   2.833  0.0425  0.6077  0.3177
  215SOD    SOD22275   6.355   3.982  11.391  0.8014 -0.0743  0.2996
  216SOD    SOD22276   4.784   0.955  13.782  0.4263  0.3879 -0.0124
  217SOD    SOD22277   0.629   4.800   3.937  0.2854  0.7084  0.3067
  218SOD    SOD22278   1.408   4.672   5.527 -0.5224  0.2171  0.0610
  219SOD    SOD22279   3.043   1.279   6.403 -0.2760 -0.5947  0.1606
  220SOD    SOD22280   1.660   6.701   3.119 -0.6787  0.1267  0.4318
  221SOD    SOD22281   1.084   4.020   5.265  0.2568 -0.4922 -0.2700
  222SOD    SOD22282   0.214   2.011  12.152  0.7655  0.1470  0.5813
  223SOD    SOD22283   2.268   4.481  10.990  0.0334  0.1042 -0.0370
  224SOD    SOD22284   3.102   5.977   4.307  0.1487  0.1249  0.3362
  225SOD    SOD22285   2.557   2.039  11.316 -0.0956 -0.0729  0.4851
  226SOD    SOD22286   2.129   1.123   5.773 -0.4107  0.1432 -0.3256
  227SOD    SOD22287   0.783   2.185   2.862 -0.4330 -0.0968  0.1457
  228SOD    SOD22288   5.209   3.005   5.777  0.1783  0.4653  0.1992
  229SOD    SOD22289   3.806   5.262   1.671  0.1163 -0.1310 -0.1644
  230SOD    SOD22290   6.158   0.587  15.497 -0.4911 -0.1377 -0.0239
  231SOD    SOD22291   4.037   5.497  15.441 -0.9102  0.2131  0.0518
  232SOD    SOD22292   6.352   3.555  15.187  0.2773 -0.3208  0.5653
  233SOD    SOD22293   6.139   2.852   4.556  0.6450 -0.6675  0.2743
  234SOD    SOD22294   3.936   0.533  15.914  0.3643 -0.0221 -0.0060
  235SOD    SOD22295   1.473   5.735  15.255 -0.0317  0.3264  0.6218
  236SOD    SOD22296   1.657   2.859   5.752  0.1548  0.0006 -0.3915
  237SOD    SOD22297   1.731   4.317   2.311  0.1753  0.5906  0.5236
  238SOD    SOD22298   1.603   1.616  12.675  0.4627 -0.2285  0.0905
  239SOD    SOD22299   0.889   4.210  11.849 -0.1234 -0.2921  0.2726
  240SOD    SOD22300   1.883   0.422   0.753  0.6239  0.2185  0.1407
  241SOD    SOD22301   0.356   3.502  11.842 -0.4407  0.2647 -0.5127
  242SOD    SOD22302   3.815   3.741  16.799 -0.1183 -0.0397 -0.2918
  243SOD    SOD22303   1.837   6.715  12.106 -0.0374 -0.1895 -0.4586
  244SOD    SOD22304   6.518   1.002   2.964 -0.7092 -0.3342 -0.1943
  245SOD    SOD22305   1.791   4.118  16.111 -0.3417  0.5068 -0.2799
  246SOD    SOD22306   0.358   3.740   1.861 -0.4891 -0.1741 -0.2831
  247SOD    SOD22307   5.624   2.774   2.376  0.2948 -0.4633 -0.1795
  248SOD    SOD22308   6.340   3.048   3.172  0.1597 -0.3746 -0.3180
  249SOD    SOD22309   0.918   4.560   2.090 -0.3369 -0.2099  0.3052
  250SOD    SOD22310   5.924   4.419   5.856  0.2089 -0.4715 -0.0399
  251SOD    SOD22311   5.993   4.884   4.245 -1.1462 -0.0887  0.0507
  252SOD    SOD22312   0.628   1.782  10.840 -0.1661 -0.0164  0.0883
  253SOD    SOD22313   4.704   5.484   5.708  0.3650 -0.5472  0.2918
  254SOD    SOD22314   4.137   5.684   5.305 -0.4800 -0.7208  0.1809
  255SOD    SOD22315   5.530   5.931   0.071 -0.2449  0.3050 -0.6364
  256SOD    SOD22316   5.927   2.318  12.888 -0.0515  0.2408 -0.0753
  257SOD    SOD22317   2.919   3.638  15.761  0.3673  0.4724  0.3905
  258SOD    SOD22318   2.923   1.987   6.640  0.3081 -0.4685  0.3895
  259SOD    SOD22319   2.785   4.653  15.526  0.1332  0.0425 -0.0366
  260SOD    SOD22320   0.774   6.576  11.314 -0.3998  0.5075  0.1374
  261SOD    SOD22321   2.149   0.044   5.744 -0.0644  0.5068  0.1675
  262SOD    SOD22322   6.279   3.995   0.539 -0.7661 -0.5811 -0.2030
  263SOD    SOD22323   4.382   0.129  10.550 -0.1060 -0.1848 -0.1182
  264SOD    SOD22324   4.907   4.466  15.455 -0.0563  0.0164  0.4202
  265SOD    SOD22325   4.169   5.063  10.902  0.6465  0.0927  0.3666
  266SOD    SOD22326   4.466   5.494  13.666  0.3458 -0.1473 -0.1566
  267SOD    SOD22327   3.075   4.897   3.513  0.2867  0.5717 -0.0681
  268SOD    SOD22328   5.754   2.043   5.957  0.7490  0.3637 -0.1702
  269SOD    SOD22329   3.749   0.251  10.692  0.1549 -0.2064  0.1177
  270CLA    CLA22330   3.545   5.296  13.240 -0.3870  0.1026  0.0263
  271CLA    CLA22331   4.149   3.314   4.193 -0.1718  0.3350  0.0058
  272CLA    CLA22332   0.711   5.077  12.190 -0.0376  0.3414 -0.2927
  273CLA    CLA22333   4.449   4.039  17.023  0.0729 -0.3363 -0.3804
  274CLA    CLA22334   2.022   3.753  16.069  0.1055 -0.5234 -0.1290
  275CLA    CLA22335   2.491   6.519  15.179 -0.0286  0.1652 -0.3395
  276CLA    CLA22336   4.350   6.530  16.239 -0.2769  0.0576 -0.2112
  277CLA    CLA22337   3.116   5.769  15.362  0.3048  0.0572  0.0069
  278CLA    CLA22338   3.373   3.581   3.350 -0.0726 -0.2201  0.0145
  279CLA    CLA22339   6.274   2.935  16.705  0.5467  0.1158  0.0265
  280CLA    CLA22340   3.397   6.318   3.559  0.0005  0.6565 -0.4150
  281CLA    CLA22341   4.163   6.536  17.095  0.2113 -0.0889 -0.1326
  282CLA    CLA22342   4.207   4.154   3.624  0.1635  0.0556  0.0203
  283CLA    CLA22343   0.039   1.794  12.586  0.0914  0.4299  0.3639
  284CLA    CLA22344   2.083   3.393   0.228 -0.2668  0.3558 -0.2953
  285CLA    CLA22345   4.130   3.435   1.970 -0.1196 -0.1407  0.0499
  286CLA    CLA22346   4.530   4.373   2.846 -0.0980 -0.5102 -0.0150
  287CLA    CLA22347   3.392   3.805  15.761 -0.3805  0.4489  0.2012
  288CLA    CLA22348   1.008   2.010   3.286  0.6295  0.0666 -0.4409
  289CLA    CLA22349   3.152   0.382  17.408  0.0130  0.4259 -0.0218
  290CLA    CLA22350   4.890   6.374   2.208 -0.1098 -0.2066 -0.2290
  291CLA    CLA22351   6.484   3.464  14.148 -0.6131 -0.3082  0.1322
  292CLA    CLA22352   0.066   4.832  16.890 -0.4462 -0.2098  0.3777
  293CLA    CLA22353   5.231   5.719   0.681  0.4479  0.2380  0.4318
  294CLA    CLA22354   5.297   5.059   2.290  0.1351  0.2216 -0.2386
  295CLA    CLA22355   2.914   6.684  16.106 -0.5039  0.2236  0.0909
  296CLA    CLA22356   4.345   5.323   1.426  0.3623  0.0969  0.3673
  297CLA    CLA22357   3.160   0.424   5.234  0.1782  0.0703 -0.0461
  298CLA    CLA22358   1.367   3.603   1.000 -0.1693  0.1285  0.1030
  299CLA    CLA22359   5.893   1.991   4.375  0.0974 -0.2804  0.2951
  300CLA    CLA22360   4.932   4.394  14.575  0.0049 -0.0120 -0.2958
  301CLA    CLA22361   3.447   0.707   2.814  0.1782  0.3077  0.0288
  302CLA    CLA22362   6.666   2.011  15.742 -0.0001  0.1226 -0.5162
  303CLA    CLA22363   1.356   3.111   3.798 -0.2521  0.0292 -0.0008
  304CLA    CLA22364   6.749   2.934  12.702 -0.1432  0.0756 -0.2208
  305CLA    CLA22365   6.119   3.662   4.330 -0.2291  0.2343 -0.1007
  306CLA    CLA22366   6.131   6.668  15.468  0.3752  0.1192  0.1892
  307CLA    CLA22367   1.996   6.619  12.874 -0.1381  0.0091  0.0368
  308CLA    CLA22368   0.060   4.892   5.477  0.0032 -0.2143 -0.0256
  309CLA    CLA22369   6.643   3.119  11.927  0.3352  0.4607  0.1111
  310CLA    CLA22370   1.125   4.684  12.033 -0.0750  0.1538 -0.0647
  311CLA    CLA22371   2.827   1.206   5.687  0.1171  0.2354 -0.1181
  312CLA    CLA22372   1.899   1.794  11.859  0.1836  0.1601  0.4106
  313CLA    CLA22373   1.581   1.748  15.982 -0.5392 -0.2164 -0.1572
  314CLA    CLA22374   3.614   3.382   2.932 -0.0878 -0.2713  0.1416
  315CLA    CLA22375   0.738   5.439   3.313 -0.3900  0.0512  0.2338
  316CLA    CLA22376   5.997   1.729  14.231 -0.0721 -0.0315 -0.3852
  317CLA    CLA22377   3.539   1.229  12.727 -0.1247  0.2844  0.0436
  318CLA    CLA22378   0.381   5.218   3.958  0.1099  0.1574 -0.4127
  319CLA    CLA22379   3.383   6.160   5.529 -0.2299  0.4857 -0.4017
  320CLA    CLA22380   2.092   4.621   3.137 -0.2182  0.0378  0.1094
  321CLA    CLA22381   3.217   5.485  16.972  0.0454  0.0859  0.1063
  322CLA    CLA22382   2.276   4.031  15.496 -0.0326 -0.0278  0.1367
  323TIP3   OH222383   0.869   2.113  15.905  0.7800  0.6891 -0.1380
  323TIP3    H122384   0.913   2.183  15.954  2.6817 -0.2432 -0.4257
  323TIP3    H222385   0.938   2.049  15.889 -1.0144 -1.5432  0.5880
  324TIP3   OH222386   5.280   2.489   1.128  0.0596 -0.1371 -0.2101
  324TIP3    H122387   5.259   2.541   1.050 -0.9162 -0.8205 -0.4312
  324TIP3    H222388   5.205   2.503   1.186  0.4572 -0.1843  0.3177
  325TIP3   OH222389   5.723   2.236  10.662  0.0129 -0.2849 -0.8696
  325TIP3    H122390   5.692   2.287  10.737 -0.1747 -0.3085 -0.9307
  325TIP3    H222391   5.767   2.299  10.606  0.9134 -0.4106 -0.3312
  326TIP3   OH222392   3.544   6.362  15.700  0.1592 -0.7984 -0.2269
  326TIP3    H122393   3.469   6.338  15.754 -0.5618 -0.4552 -1.0535
  326TIP3    H222394   3.613   6.300  15.724  0.3792  0.2560  2.1887
  327TIP3   OH222395   4.188   3.787  14.066 -0.2141  0.7034 -0.6432
  327TIP3    H122396   4.264   3.791  14.008 -0.0279 -3.1977 -0.9449
  327TIP3    H222397   4.225   3.787  14.154  0.1705 -0.8620 -0.7824
  328TIP3   OH222398   1.751   6.447  15.334  0.0226 -0.7709  0.4559
  328TIP3    H122399   1.828   6.488  15.295 -0.2458  1.2570  1.8704
  328TIP3    H222400   1.777   6.427  15.423 -1.0979  0.1080  1.0061
  329TIP3   OH222401   5.254   6.097   0.336  0.2221 -0.2336  0.6932
  329TIP3    H122402   5.163   6.115   0.312  0.3154  0.7375  1.0033
  329TIP3    H222403   5.298   6.080   0.253 -0.3996 -1.5808  0.6048
  330TIP3   OH222404   5.745   0.761   2.899  0.0454  0.0233  0.1944
  330TIP3    H122405   5.768   0.708   2.822 -2.2345 -0.5981 -0.1359
  330TIP3    H222406   5.762   0.704   2.974 -0.0908 -0.2917 -0.0125
  331TIP3   OH222407   1.456   6.067  11.053 -0.1409 -0.5727 -0.5284
  331TIP3    H122408   1.493   6.020  11.127  1.2449  0.6390 -0.3956
  331TIP3    H222409   1.437   6.155  11.087  2.5911  0.7426 -2.0420
  332TIP3   OH222410   4.005   3.689   0.243  0.2635  0.2791  0.5796
  332TIP3    H122411   4.069   3.754   0.272  1.1038 -0.5325  0.6338
  332TIP3    H222412   4.057   3.628   0.190 -1.0505  1.2421 -1.9768
  333TIP3   OH222413   4.956   4.220  12.870  0.1756  0.2246 -0.0248
  333TIP3    H122414   4.919   4.138  12.901  0.4193 -0.2532 -0.9577
  333TIP3    H222415   4.948   4.280  12.944  3.0856 -1.5642  1.9440
  334TIP3   OH222416   0.856   6.697   2.648 -0.0702  0.3609 -0.1599
  334TIP3    H122417   0.887   6.612   2.681  0.6186  0.6261 -0.1197
  334TIP3    H222418   0.764   6.682   2.629 -0.6444  0.3178  2.3134
  335TIP3   OH222419   4.641   0.083   5.724  0.1573 -0.0923  0.4146
  335TIP3    H122420   4.709   0.064   5.788 -0.7153 -1.8403  0.9014
  335TIP3    H222421   4.595   0.159   5.760  1.4578  0.7163  0.3892
  336TIP3   OH222422   0.939   4.633   4.389 -0.4450  0.6399  0.3152
  336TIP3    H122423   0.881   4.578   4.336  0.6329 -1.2713  1.0499
  336TIP3    H222424   0.880   4.694   4.432 -1.7427 -0.1940 -0.2073
  337TIP3   OH222425   5.241   0.729   3.315  0.3750  0.3448 -0.0770
  337TIP3    H122426   5.147   0.716   3.297  0.2248 -0.7338  1.3236
  337TIP3    H222427   5.252   0.824   3.312 -0.4777  0.4360 -1.5213
  338TIP3   OH222428   0.083   0.280   5.198 -0.0167  0.3622 -0.1493
  338TIP3    H122429   0.172   0.254   5.222 -0.3706 -0.1777  0.6598
  338TIP3    H222430   0.051   0.327   5.275 -0.5162  0.3329 -0.3353
  339TIP3   OH222431   1.700   2.120   2.998 -0.3538 -0.0066  0.3482
  339TIP3    H122432   1.645   2.048   2.966  0.1262 -0.4180  0.4332
  339TIP3    H222433   1.780   2.077   3.029  0.7562  0.7309 -1.3616
  340TIP3   OH222434   6.092   0.741   0.280 -0.4184 -0.2208 -0.0540
  340TIP3    H122435   6.063   0.810   0.339 -2.1328 -0.3042 -0.7603
  340TIP3    H222436   6.118   0.786   0.200  1.7288 -0.1270  0.6168
  341TIP3   OH222437   6.603   5.274   1.944 -0.1312  0.4806 -0.2564
  341TIP3    H122438   6.642   5.327   1.874 -0.5221  0.4608 -0.4925
  341TIP3    H222439   6.559   5.338   2.000  0.0908  0.4863 -0.0869
  342TIP3   OH222440   0.772   1.617   6.663 -0.0257  0.2073 -0.2424
  342TIP3    H122441   0.697   1.592   6.608 -0.1707 -0.5186  0.2658
  342TIP3    H222442   0.841   1.639   6.602 -0.7654  1.2512 -0.7308
  343TIP3   OH222443   6.544   3.182   0.260 -0.3360  0.1264  0.5800
  343TIP3    H122444   6.591   3.186   0.343  0.2785 -1.0642  0.3136
  343TIP3    H222445   6.470   3.124   0.277 -0.7103  0.5799  0.5210
  344TIP3   OH222446   0.571   4.317  15.355 -0.7909  0.3854 -0.0502
  344TIP3    H122447   0.555   4.411  15.358  1.1804  0.7779 -0.3860
  344TIP3    H222448   0.588   4.298  15.263 -0.6071 -0.1825  0.0973
  345TIP3   OH222449   0.214   5.364  15.438  0.2363  0.0369  0.0096
  345TIP3    H122450   0.128   5.329  15.459  0.7206 -2.0123 -1.1117
  345TIP3    H222451   0.259   5.370  15.523 -0.4229 -0.5733  0.4126
  346TIP3   OH222452   5.141   0.793   2.940 -0.3901  0.0863  0.0044
  346TIP3    H122453   5.225   0.750   2.954 -0.3400  0.4788  1.0153
  346TIP3    H222454   5.119   0.830   3.026 -1.4049  0.3191 -0.3470
  347TIP3   OH222455   5.554   3.190   2.554 -0.4335  0.2518  0.3145
  347TIP3    H122456   5.479   3.244   2.531  1.1302  1.8983 -1.2759
  347TIP3    H222457   5.623   3.253   2.576  1.2746 -1.0577 -0.9822
  348TIP3   OH222458   1.096   6.553  13.760 -0.5716  0.1890 -1.0513
  348TIP3    H122459   1.068   6.644  13.764  0.1288  0.3855  0.3509
  348TIP3    H222460   1.052   6.512  13.835  0.1889 -0.2750 -0.8413
  349TIP3   OH222461   1.704   4.633  12.494  0.5301 -0.0610  0.2943
  349TIP3    H122462   1.674   4.697  12.429  1.0594  0.2198  0.3178
  349TIP3    H222463   1.694   4.679  12.578 -0.7696 -0.6529  0.4909
  350TIP3   OH222464   3.572   0.119  15.965 -0.0412  0.5316 -0.8137
  350TIP3    H122465   3.481   0.091  15.963 -0.2023  0.8488  0.7350
  350TIP3    H222466   3.611   0.070  16.037  0.3599  2.1993  0.1721
  351TIP3   OH222467   4.231   5.944   1.672 -0.2827  0.5476 -0.4678
  351TIP3    H122468   4.310   5.896   1.648  0.1977  0.9778  0.2480
  351TIP3    H222469   4.261   6.015   1.728 -1.2884  0.0223  0.7880
  352TIP3   OH222470   2.695   4.236  11.857  0.9936  0.1347 -0.3015
  352TIP3    H122471   2.676   4.313  11.912  1.3270 -1.1246  1.6940
  352TIP3    H222472   2.650   4.164  11.901  1.9374 -1.0739 -1.2609
  353TIP3   OH222473   4.990   2.299   5.028  0.2727 -0.4952 -0.0595
  353TIP3    H122474   5.066   2.242   5.014  0.5626 -0.1771  0.2008
  353TIP3    H222475   5.016   2.356   5.100  0.9918  1.7029 -1.9355
  354TIP3   OH222476   4.838   0.088  15.451  0.6687  0.6028 -0.7772
  354TIP3    H122477   4.828   0.014  15.390  0.0336 -1.5048  1.7403
  354TIP3    H222478   4.749   0.113  15.473  0.8949  0.7398 -0.0172
  355TIP3   OH222479   0.294   4.498  12.813 -0.2270 -0.2708  0.1008
  355TIP3    H122480   0.282   4.555  12.737 -1.8563 -0.1916  0.3651
  355TIP3    H222481   0.209   4.454  12.823  0.4069 -1.3336  1.0276
  356TIP3   OH222482   0.176   0.772   5.974  0.0405 -0.3292  0.3393
  356TIP3    H122483   0.150   0.863   5.987 -0.5019 -0.6875  1.8421
  356TIP3    H222484   0.254   0.778   5.918 -0.0921  1.0381  0.2657
  357TIP3   OH222485   1.866   1.406   3.694  0.3892  0.4120  0.1704
  357TIP3    H122486   1.814   1.409   3.774 -2.6614 -0.7737 -1.5936
  357TIP3    H222487   1.825   1.471   3.637  0.1604 -1.2473 -1.6530
  358TIP3   OH222488   4.522   3.274  15.772 -0.9560 -0.2020 -0.0110
  358TIP3    H122489   4.571   3.340  15.724 -2.1564 -1.4732 -3.3011
  358TIP3    H222490   4.472   3.323  15.837  0.7484  1.6602 -0.0162
  359TIP3   OH222491   6.374   0.021  15.184  0.3104 -0.0277  0.3568
  359TIP3    H122492   6.353  -0.071  15.170 -0.8163  0.6275 -3.5966
  359TIP3    H222493   6.462   0.032  15.147  0.9011  0.3448  1.7971
  360TIP3   OH222494   2.270   0.524  11.651  0.3200  0.1270  0.0067
  360TIP3    H122495   2.193   0.470  11.666  0.1067  0.7587  1.3704
  360TIP3    H222496   2.244   0.584  11.581  0.1092 -0.6446 -0.5856
  361TIP3   OH222497   3.853   6.082  15.148 -0.0413  0.3239  0.4957
  361TIP3    H122498   3.805   6.021  15.092  1.6427 -1.2289  0.6372
  361TIP3    H222499   3.881   6.028  15.222  0.7967  1.4813  1.0490
  362TIP3   OH222500   6.227   4.621   3.960 -0.2202  0.7055 -0.5114
  362TIP3    H122501   6.296   4.583   4.015 -1.6174 -1.7475 -0.3685
  362TIP3    H222502   6.266   4.626   3.873 -0.2814 -2.0950 -0.7661
  363TIP3   OH222503   5.975   2.768  15.384  0.8329  0.2628  0.1652
  363TIP3    H122504   5.973   2.839  15.448  1.4801 -0.0889  0.5867
  363TIP3    H222505   5.940   2.692  15.432 -0.2613  0.3921 -0.4091
  364TIP3   OH222506   5.106   1.145   2.460  0.1093 -0.0430  0.3877
  364TIP3    H122507   5.158   1.084   2.407 -0.2408  0.1413 -0.1768
  364TIP3    H222508   5.128   1.123   2.550 -0.5985 -1.5525  0.2287
  365TIP3   OH222509   5.000   1.977  16.555  0.4822  0.6208  0.5540
  365TIP3    H122510   5.002   1.925  16.475  0.7238  0.3720  0.7163
  365TIP3    H222511   4.927   1.942  16.605  0.6609  0.4232  0.6738
  366TIP3   OH222512   4.570   4.967  15.876 -0.4017  0.6936  0.4218
  366TIP3    H122513   4.595   5.057  15.854 -1.4882  0.6176 -1.3636
  366TIP3    H222514   4.474   4.969  15.878 -0.4568 -0.5198 -0.2292
  367TIP3   OH222515   4.501   6.340   2.551 -0.1281 -0.0273 -0.4542
  367TIP3    H122516   4.502   6.418   2.496  0.8219  0.2600 -0.0455
  367TIP3    H222517   4.413   6.338   2.588  0.0230  1.1822  0.0002
  368TIP3   OH222518   0.614   1.021   0.235 -0.2383  0.6601  0.5154
  368TIP3    H122519   0.584   1.112   0.233 -0.9187  0.4420  0.7395
  368TIP3    H222520   0.649   1.010   0.324 -0.3136  0.6470  0.5428
  369TIP3   OH222521   1.728   5.956   0.971 -0.5156 -0.7474 -0.6081
  369TIP3    H122522   1.803   5.919   0.925 -0.4196  0.6995 -1.6993
  369TIP3    H222523   1.657   5.893   0.958 -0.3767 -0.5660 -2.4472
  370TIP3   OH222524   5.392   3.936  13.953 -0.0686  0.0552 -0.2532
  370TIP3    H122525   5.431   3.848  13.946 -2.1386 -0.8919 -0.8001
  370TIP3    H222526   5.380   3.949  14.047 -1.1477 -0.9520 -0.2225
  371TIP3   OH222527   0.655   5.516   0.905  0.0831 -0.1856 -0.4501
  371TIP3    H122528   0.618   5.500   0.818  0.6868  0.1306 -0.7759
  371TIP3    H222529   0.606   5.592   0.939 -0.3807 -0.5181 -0.3723
  372TIP3   OH222530   4.426   5.860   2.905 -0.1048  0.5351  0.2859
  372TIP3    H122531   4.490   5.863   2.834 -2.5790 -1.4773 -2.2553
  372TIP3    H222532   4.424   5.950   2.939  1.0950  1.6308 -2.2917
  373TIP3   OH222533   6.680   3.936  12.952 -0.2243 -0.1493  0.0161
  373TIP3    H122534   6.686   3.865  12.888 -0.8955  1.0922 -1.4933
  373TIP3    H222535   6.587   3.959  12.953  0.0645  1.0547  0.0811
  374TIP3   OH222536   1.698   3.205  14.804  0.4360  0.4899  0.4475
  374TIP3    H122537   1.648   3.177  14.727  0.9822  1.3711 -0.2645
  374TIP3    H222538   1.777   3.151  14.802  0.3569  0.3738  0.4965
  375TIP3   OH222539   0.397   1.060   3.596  0.0876  0.0446 -0.3518
  375TIP3    H122540   0.302   1.044   3.593  0.2129 -0.6108 -1.0394
  375TIP3    H222541   0.405   1.150   3.629 -0.6992 -0.5747  1.7474
  376TIP3   OH222542   5.820   4.238  14.251 -0.2967 -0.5226 -0.1432
  376TIP3    H122543   5.824   4.220  14.157  0.0270  1.2793 -0.5213
  376TIP3    H222544   5.728   4.225  14.274 -0.6482  0.2665 -1.0160
  377TIP3   OH222545   2.284   3.111   3.350 -0.2706  0.0170 -0.1385
  377TIP3    H122546   2.289   3.106   3.445  0.2283  0.4617 -0.1360
  377TIP3    H222547   2.194   3.087   3.329 -0.4438  0.1311  0.4609
  378TIP3   OH222548   6.217   2.717   6.237  0.1011 -0.5488  0.2999
  378TIP3    H122549   6.254   2.704   6.324 -0.1319  1.8927  0.8376
  378TIP3    H222550   6.196   2.629   6.206  1.3083 -1.5577  2.1992
  379TIP3   OH222551   1.428   1.033  13.198 -0.0554 -0.2511 -0.1881
  379TIP3    H122552   1.428   1.129  13.201  1.5225 -0.2102  2.2547
  379TIP3    H222553   1.519   1.010  13.215 -0.4662 -2.2058 -0.4775
  380TIP3   OH222554   3.214   2.140   0.447  0.5870  0.4351  0.1744
  380TIP3    H122555   3.139   2.104   0.400  1.0400  1.0447 -1.0353
  380TIP3    H222556   3.228   2.079   0.519 -0.7974  0.0764  0.1741
  381TIP3   OH222557   5.623   2.891  11.676  0.0656 -0.0714 -0.4541
  381TIP3    H122558   5.606   2.982  11.700  0.1018 -0.0983 -0.3299
  381TIP3    H222559   5.586   2.883  11.587  2.2009  0.7319 -1.4852
  382TIP3   OH222560   2.430   0.184   3.269 -0.0039 -0.4252  0.9587
  382TIP3    H122561   2.451   0.278   3.272 -1.1424 -0.0950 -0.2614
  382TIP3    H222562   2.353   0.179   3.212 -0.6994 -1.9871  1.9696
  383TIP3   OH222563   1.929   1.826   0.378  0.4387  0.0588  0.5072
  383TIP3    H122564   2.000   1.877   0.339  1.4212 -1.4280  0.3124
  383TIP3    H222565   1.862   1.822   0.309  0.3016  1.1237  0.5522
  384TIP3   OH222566   3.354   0.953  14.350  0.0145 -0.8493  0.1797
  384TIP3    H122567   3.400   1.031  14.381 -0.6638 -0.1080 -0.6135
  384TIP3    H222568   3.261   0.971  14.367 -0.4537 -0.1685 -2.6403
  385TIP3   OH222569   3.135   5.887  17.120 -0.8234  0.3824 -0.4198
  385TIP3    H122570   3.136   5.829  17.043  0.6624  1.0562 -0.9621
  385TIP3    H222571   3.203   5.851  17.177  0.8378  2.0843 -1.2124
  386TIP3   OH222572   3.116   6.610  17.250  0.6498  0.1991  0.6588
  386TIP3    H122573   3.177   6.603  17.323  0.4076  0.2083  0.8635
  386TIP3    H222574   3.078   6.697  17.258  1.0210  0.4077  0.2050
  387TIP3   OH222575   0.854   5.309   3.968 -0.6963 -0.0114 -0.4372
  387TIP3    H122576   0.886   5.221   3.987  1.7665  0.2860 -2.6293
  387TIP3    H222577   0.906   5.338   3.893 -0.0232  4.0616  1.3390
  388TIP3   OH222578   4.660   2.136  11.866  0.3215  0.0717  0.6256
  388TIP3    H122579   4.722   2.136  11.938 -0.9001 -0.4579  1.7188
  388TIP3    H222580   4.595   2.203  11.890 -1.1142 -1.3758  0.9872
  389TIP3   OH222581   6.575   0.051   2.093 -0.3863 -0.5346 -0.3796
  389TIP3    H122582   6.553   0.120   2.031 -0.7408  0.3227  0.6682
  389TIP3    H222583   6.669   0.058   2.104 -0.5816  0.7128  0.7483
  390TIP3   OH222584   3.784   4.528  12.100  0.4678  0.2641 -0.2162
  390TIP3    H122585   3.715   4.559  12.159  0.4433  0.1605 -0.1900
  390TIP3    H222586   3.837   4.471  12.155  0.5200  0.2691 -0.2620
  391TIP3   OH222587   1.210   4.639  11.029 -0.3727 -0.0851 -0.3439
  391TIP3    H122588   1.203   4.550  11.065  3.4673 -0.9975 -1.3835
  391TIP3    H222589   1.166   4.634  10.944 -0.4401 -0.9083 -0.2718
  392TIP3   OH222590   1.379   1.073  11.702 -0.2332  0.1223 -0.4039
  392TIP3    H122591   1.439   1.025  11.758  0.5412  0.3979 -0.9724
  392TIP3    H222592   1.298   1.080  11.752  0.5152  0.5791  0.7722
  393TIP3   OH222593   0.827   2.679  17.369 -0.1549 -0.2088  0.2938
  393TIP3    H122594   0.888   2.744  17.403 -2.1276  1.3145  1.0968
  393TIP3    H222595   0.797   2.631  17.446 -0.0092 -0.9340 -0.0878
  394TIP3   OH222596   4.357   1.921  16.803 -0.0237 -0.6626 -0.1070
  394TIP3    H122597   4.331   1.997  16.856 -0.5566 -2.7533  2.8931
  394TIP3    H222598   4.274   1.883  16.773  0.0617 -1.4401  0.5895
  395TIP3   OH222599   2.966   0.138  11.854  0.1559  0.1954 -0.1687
  395TIP3    H122600   2.872   0.142  11.834  0.3724  1.5186 -1.0784
  395TIP3    H222601   2.989   0.046  11.843 -1.1828 -0.3009  0.8637
  396TIP3   OH222602   5.154   5.790  13.914 -0.1648  0.1171 -0.0444
  396TIP3    H122603   5.147   5.762  14.005  1.5868  1.3874  0.5480
  396TIP3    H222604   5.194   5.877  13.919  1.0596 -0.2643 -2.0653
  397TIP3   OH222605   5.760   3.085  14.801 -0.6463 -1.0595  0.1165
  397TIP3    H122606   5.827   3.021  14.827  1.1967  1.1975  1.3164
  397TIP3    H222607   5.796   3.127  14.723  0.0123  0.9612  1.4160
  398TIP3   OH222608   6.126   1.307  14.529 -0.1586 -0.6035  0.2778
  398TIP3    H122609   6.073   1.326  14.452  1.3442 -0.7756 -0.8351
  398TIP3    H222610   6.178   1.232  14.504  0.2059 -0.7953  1.5571
  399TIP3   OH222611   6.533   5.957   4.502 -0.5131 -0.1498  0.8057
  399TIP3    H122612   6.569   6.045   4.491  1.5285 -0.8685  1.3585
  399TIP3    H222613   6.449   5.971   4.545  0.1750  1.4861  1.7213
  400TIP3   OH222614   1.081   1.921   4.841  0.1604  0.4064  0.1767
  400TIP3    H122615   1.106   1.886   4.926 -0.3449 -0.0816  0.1231
  400TIP3    H222616   0.990   1.948   4.852 -0.3874 -1.0270 -0.6215
  401TIP3   OH222617   0.161   6.237  12.644 -0.3843  0.1034 -0.0442
  401TIP3    H122618   0.234   6.180  12.619 -1.2200 -0.9911 -0.0934
  401TIP3    H222619   0.117   6.258  12.562 -0.5258  0.1840  0.0515
  402TIP3   OH222620   6.236   6.412  12.491 -0.2811  0.0377 -0.3645
  402TIP3    H122621   6.215   6.471  12.564 -0.8296 -0.4250 -0.1426
  402TIP3    H222622   6.270   6.470  12.423 -2.6465  0.9117 -0.9079
  403TIP3   OH222623   5.955   3.583   5.722  0.2670 -0.0166 -0.2739
  403TIP3    H122624   5.993   3.562   5.807  0.6710 -2.1496 -0.9293
  403TIP3    H222625   6.016   3.646   5.684 -1.0205  2.6694  1.8050
  404TIP3   OH222626   0.852   0.077   4.396  0.6333 -0.0524 -0.5056
  404TIP3    H122627   0.933   0.027   4.409 -0.0743 -0.8532  1.2066
  404TIP3    H222628   0.802   0.062   4.477 -1.3833  0.1079 -1.6702
  405TIP3   OH222629   5.677   1.914  12.365  0.4419 -0.8317  0.1282
  405TIP3    H122630   5.605   1.866  12.406 -0.7046  0.0124 -0.8228
  405TIP3    H222631   5.652   1.921  12.273  1.7557 -0.5191 -0.2256
  406TIP3   OH222632   4.842   5.628  13.965  0.1307 -0.3489  0.0727
  406TIP3    H122633   4.827   5.666  14.051  0.6150  0.8298 -0.3396
  406TIP3    H222634   4.796   5.687  13.905  1.1143 -0.2643 -0.6149
  407TIP3   OH222635   2.934   5.562  14.505  0.2400 -0.7136  0.4406
  407TIP3    H122636   2.859   5.508  14.530  0.5681 -1.0299  0.7708
  407TIP3    H222637   2.996   5.500  14.467  0.2625 -0.4271  0.0140
  408TIP3   OH222638   3.843   1.294  16.678 -0.3536 -0.1034  0.0390
  408TIP3    H122639   3.827   1.199  16.681 -0.5506 -0.0440  0.9705
  408TIP3    H222640   3.894   1.312  16.756 -0.8926  0.6662  0.2205
  409TIP3   OH222641   6.144   0.339  12.517  0.5678  0.2265  0.2340
  409TIP3    H122642   6.236   0.348  12.494  0.6010  0.3542  0.4184
  409TIP3    H222643   6.131   0.398  12.591  0.8014 -1.2493  1.4985
  410TIP3   OH222644   5.266   4.297   5.963 -0.4984  0.0606 -0.2034
  410TIP3    H122645   5.287   4.310   5.870  1.9161  1.2667  0.4396
  410TIP3    H222646   5.238   4.383   5.993  1.2732  0.3582  0.7323
  411TIP3   OH222647   0.890   5.349  14.908 -0.2462  0.0486  0.0210
  411TIP3    H122648   0.909   5.440  14.888  0.6713  0.1850  1.3828
  411TIP3    H222649   0.795   5.341  14.897 -0.1309  0.6618 -1.9189
  412TIP3   OH222650   3.866   4.389  12.322 -0.2896 -0.6075 -0.5214
  412TIP3    H122651   3.866   4.403  12.417 -1.0486 -0.1350 -0.5831
  412TIP3    H222652   3.810   4.312  12.310 -1.6452  0.3605 -0.7022
  413TIP3   OH222653   2.461   0.115  10.815 -0.0049 -0.3672 -0.1756
  413TIP3    H122654   2.456   0.192  10.871 -0.0766  0.7217 -1.6253
  413TIP3    H222655   2.548   0.079  10.833 -0.3242 -0.5309  1.2022
  414TIP3   OH222656   2.900   4.089   4.619  0.2107 -0.2247  0.4016
  414TIP3    H122657   2.975   4.065   4.565 -0.3472  0.0979 -0.5552
  414TIP3    H222658   2.824   4.060   4.569 -0.2899 -2.1043  2.1481
  415TIP3   OH222659   6.318   0.129   4.995  0.3601  0.0923 -0.2093
  415TIP3    H122660   6.240   0.113   5.048 -0.0914  0.8468 -0.6442
  415TIP3    H222661   6.361   0.044   4.990 -1.1150 -0.6286 -1.0734
  416TIP3   OH222662   3.442   1.984   3.026 -0.3650 -0.0174 -0.7748
  416TIP3    H122663   3.500   2.053   3.059  0.2172  0.2481 -2.2558
  416TIP3    H222664   3.368   2.031   2.988 -1.6244 -0.3599  1.1338
  417TIP3   OH222665   3.494   3.259  16.010 -0.5551  0.4030  0.0451
  417TIP3    H122666   3.467   3.348  16.031 -0.5097  0.6174 -0.7844
  417TIP3    H222667   3.446   3.238  15.929  1.2023  0.5393 -1.0774
  418TIP3   OH222668   6.176   3.463   6.139 -0.3973 -0.3757 -0.2299
  418TIP3    H122669   6.124   3.495   6.065  0.5573  0.9408 -0.3783
  418TIP3    H222670   6.116   3.467   6.214 -0.8232  0.1265 -0.5868
  419TIP3   OH222671   3.002   4.512  12.713 -0.2805 -0.7669 -0.1003
  419TIP3    H122672   2.942   4.461  12.659 -1.2771  0.0379  0.2225
  419TIP3    H222673   3.075   4.534  12.655 -1.2880  0.0096 -1.0977
  420TIP3   OH222674   6.157   4.799  17.066 -0.8414  0.1065  0.3441
  420TIP3    H122675   6.203   4.715  17.061 -1.1997 -0.1152  0.6925
  420TIP3    H222676   6.096   4.797  16.992 -0.7108  0.1410  0.2369
  421TIP3   OH222677   6.265   5.502  16.990  0.1382  0.1490 -0.2600
  421TIP3    H122678   6.319   5.570  17.029 -1.8614  1.7811 -0.1841
  421TIP3    H222679   6.235   5.539  16.907 -0.5491 -0.8440 -0.4738
  422TIP3   OH222680   3.109   3.684  15.872 -0.4513 -0.0020  0.5246
  422TIP3    H122681   3.200   3.704  15.848 -0.4011 -0.2778  0.4805
  422TIP3    H222682   3.116   3.609  15.932 -0.8299 -2.4011 -2.1930
  423TIP3   OH222683   4.720   2.823  13.498  0.5424 -0.1345  0.3075
  423TIP3    H122684   4.773   2.804  13.575  3.0497  0.5795 -1.1421
  423TIP3    H222685   4.758   2.769  13.428 -0.1467  0.9351 -0.9573
  424TIP3   OH222686   2.028   6.643  17.139 -0.0716 -0.0930  0.0713
  424TIP3    H122687   2.022   6.715  17.076  0.3489  0.8146  1.0265
  424TIP3    H222688   2.121   6.618  17.139 -0.0381  0.0211  0.4338
  425TIP3   OH222689   6.283   1.227  17.323  0.5167  0.5584 -0.8131
  425TIP3    H122690   6.215   1.213  17.389  0.8762  2.2920 -0.0310
  425TIP3    H222691   6.359   1.178  17.354  0.2225  0.1500 -0.7291
  426TIP3   OH222692   0.421   0.481  13.814 -0.3505 -0.1150 -0.1074
  426TIP3    H122693   0.507   0.519  13.836  0.5376 -1.9798 -0.1905
  426TIP3    H222694   0.414   0.490  13.719  0.4323 -1.2178 -0.2963
  427TIP3   OH222695   5.723   5.882  15.798  0.0304  0.3563 -0.2096
  427TIP3    H122696   5.810   5.867  15.835  0.1986 -0.1664 -0.8119
  427TIP3    H222697   5.664   5.833  15.856  0.0340  1.3393  0.6570
  428TIP3   OH222698   5.764   2.429   2.163 -0.8626  0.3980  0.6442
  428TIP3    H122699   5.694   2.491   2.182  0.4239  2.2154 -0.2265
  428TIP3    H222700   5.832   2.448   2.228  0.6860  1.9190 -1.2686
  429TIP3   OH222701   0.550   6.030   1.569 -0.4527 -0.7740 -0.3402
  429TIP3    H122702   0.551   6.032   1.665  2.3679 -1.2296 -0.2749
  429TIP3    H222703   0.540   6.122   1.543  0.2356 -0.4586  0.4447
  430TIP3   OH222704   4.800   0.354  10.487 -0.0828 -0.7858 -0.3681
  430TIP3    H122705   4.843   0.343  10.403  0.6476  0.6976 -0.2136
  430TIP3    H222706   4.845   0.427  10.528 -0.4823 -1.4269  1.2858
  431TIP3   OH222707   0.169   5.411   3.261  0.4093  0.1502  0.0948
  431TIP3    H122708   0.244   5.366   3.299 -0.3703 -1.4537 -0.1851
  431TIP3    H222709   0.102   5.343   3.251 -1.8514  1.8677  2.2625
  432TIP3   OH222710   2.043   3.885  15.676 -0.0695 -0.0389 -0.4673
  432TIP3    H122711   2.108   3.940  15.633  0.2087  0.9048  1.0866
  432TIP3    H222712   1.959   3.917  15.643  0.0754  1.4747  0.5127
  433TIP3   OH222713   5.907   3.290  11.447 -0.2645 -0.1801  0.0195
  433TIP3    H122714   5.880   3.255  11.532 -0.5162 -0.0328  0.0010
  433TIP3    H222715   5.921   3.383  11.462 -4.8810  0.9391 -1.0762
  434TIP3   OH222716   4.983   5.376   0.379  0.0182 -0.2164  0.8769
  434TIP3    H122717   5.065   5.421   0.394  1.3495 -2.1363 -0.2111
  434TIP3    H222718   4.983   5.356   0.285 -0.7977 -1.8265  1.1793
  435TIP3   OH222719   3.405   6.091  13.406 -0.5222  0.3327 -0.0348
  435TIP3    H122720   3.345   6.017  13.401 -0.8011  0.4938  0.7697
  435TIP3    H222721   3.435   6.092  13.497  0.4918  0.4255 -0.3572
  436TIP3   OH222722   4.052   0.472   3.730  0.6652 -0.4164  0.4316
  436TIP3    H122723   4.037   0.493   3.638 -0.2982 -0.1076  0.6392
  436TIP3    H222724   4.140   0.435   3.733  1.3817  1.1381 -0.3631
  437TIP3   OH222725   1.649   1.711  10.688  0.2569  0.2716 -0.3325
  437TIP3    H122726   1.623   1.794  10.648 -0.4204 -0.8258 -2.3293
  437TIP3    H222727   1.744   1.706  10.674  0.5021  1.1913  0.8387
  438TIP3   OH222728   1.799   1.110   3.968 -0.2799 -0.2048  0.2162
  438TIP3    H122729   1.851   1.150   4.038 -0.6457 -0.3830  0.5918
  438TIP3    H222730   1.840   1.025   3.953  1.5783  0.9272 -1.7708
  439TIP3   OH222731   4.781   3.164  12.412 -0.1292  0.6748  0.1460
  439TIP3    H122732   4.814   3.173  12.323  0.0434  0.1760  0.1600
  439TIP3    H222733   4.859   3.160  12.467 -0.2082 -0.0893  0.2174
  440TIP3   OH222734   5.555   0.854   0.232  0.4190 -0.2733 -0.3968
  440TIP3    H122735   5.638   0.900   0.243  1.4602 -1.9909 -0.6560
  440TIP3    H222736   5.498   0.890   0.300  0.6423  2.4203 -1.5044
  441TIP3   OH222737   3.582   4.453   0.526 -0.9159  0.0338  0.2880
  441TIP3    H122738   3.528   4.451   0.447 -1.5614  0.6123  0.6983
  441TIP3    H222739   3.519   4.442   0.597 -0.3782 -0.1409  0.7379
  442TIP3   OH222740   5.019   0.576  13.430 -0.3038  0.3208 -0.0367
  442TIP3    H122741   5.040   0.550  13.519  0.5197  1.5578  0.1592
  442TIP3    H222742   5.039   0.670  13.427 -1.7325  0.6353 -1.0983
  443TIP3   OH222743   5.109   4.515  15.838  0.4997 -0.0904 -0.2439
  443TIP3    H122744   5.123   4.566  15.758  0.5384 -0.5076 -0.5054
  443TIP3    H222745   5.195   4.513  15.880 -0.0740  2.5434  1.2863
  444TIP3   OH222746   1.044   3.390  11.942 -0.2393 -0.1505 -0.5518
  444TIP3    H122747   1.116   3.442  11.977 -1.0618  0.8990 -0.3395
  444TIP3    H222748   1.001   3.448  11.879 -0.5908 -0.9377 -1.0438
  445TIP3   OH222749   3.256   2.113  13.970  0.2694  0.4025  0.5516
  445TIP3    H122750   3.208   2.193  13.953  0.5984  0.7733  1.2995
  445TIP3    H222751   3.197   2.043  13.943 -0.0473  0.8888 -0.0385
  446TIP3   OH222752   5.041   3.330   1.705  0.3415 -0.2490  0.0548
  446TIP3    H122753   5.020   3.384   1.630  0.4687  0.9459  0.8584
  446TIP3    H222754   4.963   3.333   1.760  0.9178  0.4255  0.8553
  447TIP3   OH222755   1.047   0.153  16.790  0.2376  0.0587 -0.6350
  447TIP3    H122756   1.085   0.092  16.855  2.0958  0.4325 -1.3000
  447TIP3    H222757   0.991   0.210  16.842  0.9767 -0.2172  0.5274
  448TIP3   OH222758   3.886   4.334   5.729 -0.0622  0.0099  0.9444
  448TIP3    H122759   3.862   4.262   5.788 -0.3573  0.2564  1.1262
  448TIP3    H222760   3.876   4.413   5.782  0.9461  0.1417  0.9661
  449TIP3   OH222761   1.045   6.734   3.873 -0.0611 -0.3164 -0.2730
  449TIP3    H122762   1.032   6.771   3.961  0.7337 -0.0245 -0.2769
  449TIP3    H222763   0.957   6.708   3.846 -0.5784  1.1062 -0.0620
  450TIP3   OH222764   4.590   1.147   4.173 -0.5037  0.1703 -0.5320
  450TIP3    H122765   4.546   1.139   4.089  1.0660 -0.9525 -1.2822
  450TIP3    H222766   4.672   1.099   4.163  0.7167  1.7842  0.9467
  451TIP3   OH222767   2.394   1.201  15.446  0.3181 -0.1910  0.0971
  451TIP3    H122768   2.301   1.197  15.424  0.4388  0.8635 -0.7212
  451TIP3    H222769   2.425   1.281  15.403  1.7052 -0.7695 -0.0328
  452TIP3   OH222770   6.659   6.388   1.081  0.1514  0.2826 -0.2308
  452TIP3    H122771   6.608   6.453   1.033 -0.3809 -0.9449 -1.3663
  452TIP3    H222772   6.712   6.440   1.143 -2.3928  1.6226  0.9701
  453TIP3   OH222773   6.094   0.566   2.018  0.2315  0.0707  0.1330
  453TIP3    H122774   6.177   0.603   2.048  0.3681  1.4078 -1.7147
  453TIP3    H222775   6.038   0.568   2.095  1.3257  0.9614  0.9450
  454TIP3   OH222776   1.373   6.584   1.791  0.2088 -0.0100 -0.4227
  454TIP3    H122777   1.390   6.677   1.776 -1.0627  0.8298  2.5505
  454TIP3    H222778   1.391   6.572   1.884 -0.2356 -2.6438 -0.6053
  455TIP3   OH222779   1.190   3.159  17.301 -0.2194 -0.2744  0.2823
  455TIP3    H122780   1.125   3.227  17.320  0.5369  0.3146  0.8045
  455TIP3    H222781   1.168   3.088  17.361  1.2179  0.9754  2.4390
  456TIP3   OH222782   3.787   6.146   4.657 -0.1566  0.2450  0.1189
  456TIP3    H122783   3.800   6.211   4.589  2.8038 -1.0145 -0.6829
  456TIP3    H222784   3.875   6.120   4.683 -1.1943 -2.2306  1.5939
  457TIP3   OH222785   4.753   0.478   0.778  0.6694  0.1637 -0.3876
  457TIP3    H122786   4.822   0.440   0.725  1.5310 -0.0674  0.8659
  457TIP3    H222787   4.754   0.428   0.860 -1.9313 -0.8142 -0.8315
  458TIP3   OH222788   1.557   2.671   5.680  0.0749  0.0250 -0.5506
  458TIP3    H122789   1.496   2.632   5.742 -0.4798  2.1820  0.3446
  458TIP3    H222790   1.604   2.596   5.642  0.2835 -1.4016  2.2651
  459TIP3   OH222791   3.379   4.878  12.837 -0.5991  0.0568 -0.5021
  459TIP3    H122792   3.438   4.803  12.845 -3.2567 -2.2792 -1.2529
  459TIP3    H222793   3.430   4.944  12.790  1.3781 -1.8494 -1.1930
  460TIP3   OH222794   5.615   4.776   5.098  0.4409  0.4777 -0.0346
  460TIP3    H122795   5.658   4.821   5.026 -1.4316  0.1227 -1.4604
  460TIP3    H222796   5.567   4.844   5.144  0.1684  0.4334 -0.2499
  461TIP3   OH222797   3.941   5.706  13.344  0.7539 -0.2325 -0.0780
  461TIP3    H122798   3.860   5.732  13.300  0.2631 -0.7315  0.4986
  461TIP3    H222799   3.983   5.788  13.368  0.5475  0.0339 -0.6214
  462TIP3   OH222800   4.362   0.704   1.683  0.5471  0.2883  0.3022
  462TIP3    H122801   4.269   0.725   1.688  0.1602 -0.8916 -1.0710
  462TIP3    H222802   4.398   0.732   1.767 -0.7484  2.1066  0.3209
  463TIP3   OH222803   0.455   0.622  17.360  0.4129  0.5530  0.3424
  463TIP3    H122804   0.402   0.701  17.355  0.0766  0.4631  2.1152
  463TIP3    H222805   0.506   0.631  17.440  2.4803  0.2415 -0.8702
  464TIP3   OH222806   3.688   1.627   0.495 -0.0305  0.3363 -0.1051
  464TIP3    H122807   3.596   1.649   0.477 -0.1264 -1.3070 -1.8613
  464TIP3    H222808   3.684   1.567   0.570 -0.4596 -0.3030 -0.6333
  465TIP3   OH222809   3.863   2.570  16.930  0.0632  0.1322 -0.1089
  465TIP3    H122810   3.888   2.647  16.879  1.4659 -0.9055 -1.0789
  465TIP3    H222811   3.823   2.511  16.867 -1.3153  0.1673  0.6921
  466TIP3   OH222812   4.683   6.495  11.744 -0.1197 -0.0179  0.0307
  466TIP3    H122813   4.628   6.531  11.814 -1.3016  0.1284 -0.9396
  466TIP3    H222814   4.643   6.412  11.722  1.4362 -1.0509  0.8795
  467TIP3   OH222815   2.815   5.898  16.340 -0.4250  0.4392  0.3997
  467TIP3    H122816   2.820   5.993  16.349  0.7852  0.3513  0.8702
  467TIP3    H222817   2.813   5.883  16.246 -3.9923  1.0168  0.2300
  468TIP3   OH222818   0.543   6.409   6.433 -0.2576 -0.2741 -0.3967
  468TIP3    H122819   0.451   6.435   6.445 -0.3331 -0.4378 -0.6232
  468TIP3    H222820   0.541   6.314   6.430 -0.0117 -0.3008  0.1478
  469TIP3   OH222821   5.597   4.917   5.381 -0.0869  0.2055 -0.4259
  469TIP3    H122822   5.571   4.978   5.312  0.0764  1.1470  0.3262
  469TIP3    H222823   5.539   4.937   5.454  1.8097  1.4879  0.8395
  470TIP3   OH222824   6.436   4.063   1.084 -0.3077  0.6893 -0.6697
  470TIP3    H122825   6.398   4.094   1.166  1.1980  2.0763 -0.4422
  470TIP3    H222826   6.413   4.132   1.020 -0.2022  0.3615 -1.0659
  471TIP3   OH222827   5.734   6.364  13.082  0.3967 -0.4745  0.2447
  471TIP3    H122828   5.753   6.292  13.023  0.4029 -0.9245  0.7870
  471TIP3    H222829   5.792   6.435  13.054  1.2006 -1.0550  0.4215
  472TIP3   OH222830   0.036   6.268  13.516 -0.9791 -0.1066  0.0283
  472TIP3    H122831  -0.052   6.255  13.483 -0.9023 -2.2037  0.4755
  472TIP3    H222832   0.033   6.235  13.606  0.0884  0.4796  0.3049
  473TIP3   OH222833   6.502   0.856  11.137 -0.0183  0.2697 -0.0174
  473TIP3    H122834   6.595   0.878  11.129  0.1451 -0.6526 -0.9694
  473TIP3    H222835   6.465   0.878  11.051  0.1544 -2.9483 -1.0460
  474TIP3   OH222836   2.536   1.344   2.037 -0.5756  0.2371  0.2132
  474TIP3    H122837   2.576   1.270   1.990  1.2034  2.2884 -1.7326
  474TIP3    H222838   2.443   1.337   2.017 -0.0729  0.1698 -2.5404
  475TIP3   OH222839   0.336   5.416  12.505 -0.4149  0.7545 -0.1935
  475TIP3    H122840   0.314   5.343  12.563 -1.8909  1.3340  0.0295
  475TIP3    H222841   0.405   5.382  12.449 -0.1078 -0.3648  0.8087
  476TIP3   OH222842   2.420   5.910   5.825  0.2177  0.3732 -0.1782
  476TIP3    H122843   2.477   5.878   5.895 -0.3823  0.5928  0.4208
  476TIP3    H222844   2.345   5.948   5.870  0.6485  2.1586 -0.8662
  477TIP3   OH222845   2.035   0.849  14.349 -0.0098  0.1033 -0.4187
  477TIP3    H122846   2.072   0.890  14.428 -0.9165 -1.4372  0.8757
  477TIP3    H222847   1.941   0.865  14.357  0.0374  1.8241 -2.3790
  478TIP3   OH222848   2.932   2.154   0.735  0.0180  0.1478  0.2077
  478TIP3    H122849   2.969   2.153   0.823 -1.7068  0.2229  0.9617
  478TIP3    H222850   2.932   2.247   0.711 -1.0343  0.3101  0.8067
  479TIP3   OH222851   2.592   0.675  13.137 -0.1433  0.2804  0.8761
  479TIP3    H122852   2.599   0.758  13.091 -0.7321 -0.7237 -1.1659
  479TIP3    H222853   2.535   0.693  13.212 -0.1455  1.7292  0.5522
  480TIP3   OH222854   3.620   1.425  16.838  0.1609 -0.0722 -0.0250
  480TIP3    H122855   3.634   1.520  16.841 -1.5381  0.2102 -0.1298
  480TIP3    H222856   3.704   1.390  16.810  0.9713  1.3617  0.4815
  481TIP3   OH222857   5.770   6.390   4.602  0.4343 -0.1034 -0.1363
  481TIP3    H122858   5.833   6.440   4.653 -0.8291  0.9809  0.4154
  481TIP3    H222859   5.769   6.304   4.643 -1.5940  1.1205  2.7308
  482TIP3   OH222860   1.448   5.541   2.536  0.6984 -0.0516 -0.2489
  482TIP3    H122861   1.388   5.468   2.552 -0.4113  1.1533  1.5422
  482TIP3    H222862   1.472   5.572   2.624  2.2541  0.8676 -0.9488
  483TIP3   OH222863   6.143   3.636   4.814 -0.1745  0.0205  0.1670
  483TIP3    H122864   6.065   3.680   4.846  0.3859  0.0766  1.5350
  483TIP3    H222865   6.144   3.552   4.859  0.2534 -0.2063 -0.2558
  484TIP3   OH222866   6.636   0.306  14.680 -0.0908  0.5093 -0.1147
  484TIP3    H122867   6.696   0.358  14.627  0.5426  1.0338  1.0757
  484TIP3    H222868   6.685   0.286  14.760 -1.4994  1.0244  0.9389
  485TIP3   OH222869   4.765   2.254   3.504 -0.2285  0.2802 -0.4439
  485TIP3    H122870   4.757   2.313   3.430 -0.3607  0.3565 -0.3697
  485TIP3    H222871   4.854   2.267   3.536 -0.2587  0.4442 -0.4246
  486TIP3   OH222872   5.801   3.851  12.007  0.2344  0.7115  0.0917
  486TIP3    H122873   5.889   3.827  11.978  0.8157  1.0553  1.4497
  486TIP3    H222874   5.779   3.785  12.073 -0.6151  0.5250 -0.3639
  487TIP3   OH222875   1.133   1.191  13.780  0.1115 -0.2037 -0.5801
  487TIP3    H122876   1.152   1.125  13.847 -0.4751  0.3733  0.1774
  487TIP3    H222877   1.217   1.206  13.736  0.8496  0.4239  0.9716
  488TIP3   OH222878   2.710   1.273  15.679 -0.2267  0.6608 -0.4269
  488TIP3    H122879   2.771   1.315  15.618  1.3948  0.2599  0.8439
  488TIP3    H222880   2.667   1.205  15.627  2.6175 -1.0814 -0.7259
  489TIP3   OH222881   3.469   2.102   3.981  0.3839  0.0308  0.2807
  489TIP3    H122882   3.503   2.190   3.993  0.3945  0.1678 -0.6755
  489TIP3    H222883   3.547   2.049   3.963  0.2357  0.1223 -0.6945
  490TIP3   OH222884   3.231   5.464   0.082 -0.0582  0.1145  0.0119
  490TIP3    H122885   3.157   5.458   0.022  0.1272  3.1322 -0.6759
  490TIP3    H222886   3.302   5.418   0.037 -0.3494  0.9982 -1.4153
  491TIP3   OH222887   1.056   3.104  14.431  0.0809  0.1564 -0.4900
  491TIP3    H122888   1.057   3.088  14.337  0.9352  1.5721 -0.7495
  491TIP3    H222889   1.054   3.200  14.439 -1.0901  0.0446  0.9396
  492TIP3   OH222890   2.609   6.026  16.669 -0.3148 -0.1450 -0.1393
  492TIP3    H122891   2.699   6.056  16.681 -0.1708 -0.6000 -0.0604
  492TIP3    H222892   2.617   5.936  16.638 -0.7363 -0.7411  1.3608
  493TIP3   OH222893   4.176   1.572   2.541  0.2786  0.7329 -0.1946
  493TIP3    H122894   4.265   1.537   2.540 -0.2974 -0.8069  0.3566
  493TIP3    H222895   4.132   1.530   2.468 -0.4028  0.3414  0.4277
  494TIP3   OH222896   1.413   2.363   6.741  0.5020 -0.0345  0.0305
  494TIP3    H122897   1.364   2.445   6.748 -0.3175 -0.6371  2.1358
  494TIP3    H222898   1.349   2.300   6.709 -1.0419 -1.3418  4.8034
  495TIP3   OH222899   2.184   5.125  16.878  0.4618  0.2833 -0.0830
  495TIP3    H122900   2.226   5.145  16.962  0.4481  1.7158 -0.3978
  495TIP3    H222901   2.235   5.052  16.843  2.6851  1.9197 -0.4147
  496TIP3   OH222902   1.065   5.952   0.781 -0.0595  0.0497 -0.0045
  496TIP3    H122903   1.044   6.021   0.718 -0.7889  0.5598  0.7690
  496TIP3    H222904   1.159   5.960   0.796 -0.1541  0.9407  0.1479
  497TIP3   OH222905   5.961   0.256  13.431  0.2342 -0.5858 -0.5073
  497TIP3    H122906   5.958   0.342  13.388 -0.3669  0.0099  0.6829
  497TIP3    H222907   6.052   0.229  13.426  0.4418  0.1542 -0.8096
  498TIP3   OH222908   2.029   4.444   0.861 -0.0257 -0.1670  0.4748
  498TIP3    H122909   2.097   4.383   0.890  2.8109  2.1522 -0.8246
  498TIP3    H222910   2.011   4.499   0.938 -0.5617 -0.8512  0.8507
  499TIP3   OH222911   1.079   5.101   6.639  0.6684 -0.0610 -0.3167
  499TIP3    H122912   1.001   5.120   6.586 -0.0865 -0.2272  0.6990
  499TIP3    H222913   1.152   5.113   6.579 -0.1972 -1.0159 -1.6181
  500TIP3   OH222914   5.408   1.287   5.224  0.3328 -0.0703 -0.1657
  500TIP3    H122915   5.345   1.340   5.273 -0.3117 -0.0730 -0.9726
  500TIP3    H222916   5.463   1.247   5.292 -1.0333 -0.7171  0.6060
  501TIP3   OH222917   3.814   5.764  15.633 -0.5006 -0.1518  0.0020
  501TIP3    H122918   3.725   5.770  15.598 -0.1419 -0.5374 -1.0073
  501TIP3    H222919   3.839   5.673  15.619  0.0271 -0.0615  0.3448
  502TIP3   OH222920   3.772   4.275  13.106  0.1616 -0.1511 -0.5005
  502TIP3    H122921   3.695   4.267  13.162  0.1820 -0.8353 -0.5624
  502TIP3    H222922   3.736   4.292  13.019  0.0790 -0.3272 -0.5022
  503TIP3   OH222923   5.102   3.392   6.870 -0.1458 -0.5722  0.1987
  503TIP3    H122924   5.136   3.463   6.815 -0.3145 -0.0507  0.7457
  503TIP3    H222925   5.086   3.320   6.809  0.5556 -0.3361 -0.2896
  504TIP3   OH222926   5.192   2.125  14.167 -0.0446  0.1469  0.2417
  504TIP3    H122927   5.239   2.164  14.094 -0.5683  1.1561  0.4256
  504TIP3    H222928   5.106   2.167  14.165  0.4207  1.2950  2.3229
  505TIP3   OH222929   1.146   3.479  16.876  0.0286 -0.0293  0.1397
  505TIP3    H122930   1.143   3.507  16.968 -0.8405 -1.2702  0.5208
  505TIP3    H222931   1.093   3.543  16.829  0.2456  0.4546  0.5460
  506TIP3   OH222932   6.189   1.950  11.730  0.0025 -0.4129 -0.0903
  506TIP3    H122933   6.151   1.863  11.740 -0.7819 -0.0282  0.3680
  506TIP3    H222934   6.185   1.988  11.818 -0.1946  0.2970 -0.3970
  507TIP3   OH222935   6.341   3.185   4.766 -0.1219 -0.3326 -0.3555
  507TIP3    H122936   6.397   3.263   4.770 -2.4537  1.4069  0.0564
  507TIP3    H222937   6.394   3.116   4.808  1.4039  1.4067  0.7222
  508TIP3   OH222938   0.725   5.210   5.566  0.0003 -0.0299  0.5087
  508TIP3    H122939   0.704   5.252   5.650 -1.0673  0.2405  0.1271
  508TIP3    H222940   0.640   5.182   5.531  0.3734  0.2496 -0.6789
  509TIP3   OH222941   2.181   4.761  17.138  0.2882  0.0314  0.4238
  509TIP3    H122942   2.232   4.786  17.061 -0.4758 -0.2481 -0.1905
  509TIP3    H222943   2.126   4.837  17.156  1.0693  0.4188  1.2226
  510TIP3   OH222944   3.618   0.986   4.153  0.0286  0.3300  0.4406
  510TIP3    H122945   3.523   0.997   4.150 -0.2353 -1.6385 -0.2791
  510TIP3    H222946   3.630   0.892   4.170  1.7934 -0.0841 -2.5103
  511TIP3   OH222947   5.048   2.066   4.696 -0.3334  0.2861  0.5187
  511TIP3    H122948   4.991   2.044   4.622  0.6571  1.6944 -0.7316
  511TIP3    H222949   5.079   1.982   4.728  0.3321 -0.3546 -1.6177
  512TIP3   OH222950   4.854   4.642   4.086 -0.2532  0.2003 -0.8799
  512TIP3    H122951   4.788   4.581   4.055 -0.2627  0.2295 -0.9162
  512TIP3    H222952   4.868   4.703   4.014 -2.4637  2.1284  0.1966
  513TIP3   OH222953   2.257   5.120  14.458  0.2582  0.3449  0.5756
  513TIP3    H122954   2.188   5.068  14.416  2.4658 -4.7017  2.3109
  513TIP3    H222955   2.327   5.122  14.393  0.0150  1.8003  0.3322
  514TIP3   OH222956   0.548   3.746  17.181 -0.3959 -0.0078 -0.6368
  514TIP3    H122957   0.606   3.671  17.171 -1.7142 -0.9922 -1.2949
  514TIP3    H222958   0.559   3.796  17.100  0.2363  0.3494 -0.3392
  515TIP3   OH222959   6.674   3.101   4.609  0.0488  0.3167  0.5194
  515TIP3    H122960   6.659   3.057   4.525  0.6331  1.2923 -0.1205
  515TIP3    H222961   6.765   3.080   4.631 -0.0458  0.2151  0.8160
  516TIP3   OH222962   5.140   4.522   1.064  0.2247 -0.4353 -0.5270
  516TIP3    H122963   5.081   4.521   1.140  2.4485 -0.5575  1.3380
  516TIP3    H222964   5.206   4.456   1.085  3.0640  2.1215 -0.6714
  517TIP3   OH222965   3.269   2.404   0.377  0.3148 -0.6353  0.6713
  517TIP3    H122966   3.195   2.434   0.324 -0.0191 -0.4744  1.2098
  517TIP3    H222967   3.253   2.311   0.391 -1.1248 -0.1591  2.7974
  518TIP3   OH222968   2.038   4.712   0.753 -0.3305 -0.3754  1.0414
  518TIP3    H122969   2.054   4.630   0.799  0.8496 -0.8631 -0.1615
  518TIP3    H222970   1.973   4.690   0.687 -1.2133  0.0601  1.7515
  519TIP3   OH222971   2.692   0.493   1.502 -0.4513 -0.1775 -0.4239
  519TIP3    H122972   2.676   0.400   1.487 -0.0489 -0.4738  0.8966
  519TIP3    H222973   2.680   0.533   1.416  2.0952 -1.7955 -1.6300
  520TIP3   OH222974   1.447   6.333   2.226  0.0608  0.3903 -0.2742
  520TIP3    H122975   1.450   6.341   2.321  1.9304 -1.6956 -0.0735
  520TIP3    H222976   1.358   6.305   2.207  0.1432 -0.9240  1.0823
  521TIP3   OH222977   4.935   6.337  15.543 -0.1616  0.7859  0.1439
  521TIP3    H122978   4.895   6.354  15.628  0.2358 -0.9574  0.7148
  521TIP3    H222979   4.871   6.370  15.480 -2.1193 -1.0670  1.0513
  522TIP3   OH222980   1.185   1.025  14.013 -0.2928 -0.0342 -0.1199
  522TIP3    H122981   1.190   0.930  14.000  0.0934 -0.1810  0.9355
  522TIP3    H222982   1.270   1.048  14.052  0.1056  0.9521 -1.5181
  523TIP3   OH222983   1.780   0.769   5.707 -0.3363 -0.1526  0.7743
  523TIP3    H122984   1.802   0.862   5.699 -0.7935 -0.1021 -0.0034
  523TIP3    H222985   1.687   0.769   5.728 -0.2670 -0.4332  1.0881
  524TIP3   OH222986   3.880   3.269   1.285 -0.6203  0.1188 -0.7908
  524TIP3    H122987   3.909   3.286   1.195 -0.1055 -1.6762 -1.0072
  524TIP3    H222988   3.801   3.322   1.295 -0.1054  1.1607 -1.9436
  525TIP3   OH222989   0.872   2.316   1.705  0.3426 -0.1730  0.0416
  525TIP3    H122990   0.795   2.322   1.762 -0.2036  0.8916 -0.7821
  525TIP3    H222991   0.852   2.242   1.648  0.7951 -1.1068  1.0457
  526TIP3   OH222992   6.431   4.475  16.043 -0.4185 -0.3333  0.1726
  526TIP3    H122993   6.506   4.495  16.099 -0.1449  0.9484 -0.5927
  526TIP3    H222994   6.425   4.380  16.042  1.6365 -0.4933 -0.2853
  527TIP3   OH222995   0.476   3.055  15.542  0.3733  0.8676 -0.3632
  527TIP3    H122996   0.426   2.976  15.521 -0.2591  1.5344 -1.3913
  527TIP3    H222997   0.489   3.050  15.637  0.8068 -0.7330 -0.4715
  528TIP3   OH222998   2.540   5.883   4.219  0.0477  0.5823  0.4588
  528TIP3    H122999   2.513   5.922   4.136 -0.0636 -0.9668 -0.2881
  528TIP3    H223000   2.460   5.879   4.271  0.1934  1.9118  0.8192
  529TIP3   OH223001   2.996   6.663   4.600  0.1008 -0.4755 -0.7444
  529TIP3    H123002   3.026   6.631   4.515  3.6914 -0.3067  0.2779
  529TIP3    H223003   3.024   6.595   4.662  0.0032  0.6252  0.5540
  530TIP3   OH223004   0.767   0.724  10.612 -0.1523 -0.1268  0.1619
  530TIP3    H123005   0.671   0.732  10.608 -0.2171 -1.0697 -0.4608
  530TIP3    H223006   0.790   0.673  10.535  1.1402  2.2760 -1.1744
  531TIP3   OH223007   5.007   5.311   0.084 -0.0618  0.0609 -0.0864
  531TIP3    H123008   5.081   5.254   0.064  0.5388  1.1738 -1.2537
  531TIP3    H223009   4.971   5.335  -0.002 -2.0376 -0.7439  0.4541
  532TIP3   OH223010   1.791   3.472   3.203 -0.6082 -0.1628  0.0146
  532TIP3    H123011   1.841   3.471   3.285 -0.6805  1.2622  0.0986
  532TIP3    H223012   1.714   3.419   3.222 -0.0947 -0.7507  0.5151
  533TIP3   OH223013   6.125   3.003   2.215 -0.3049  0.1078 -0.0520
  533TIP3    H123014   6.191   2.933   2.222  0.5592  0.9802  0.7808
  533TIP3    H223015   6.048   2.959   2.178  0.4047 -1.1588 -0.0938
  534TIP3   OH223016   2.094   3.537  11.318 -0.8590 -0.0493  0.6588
  534TIP3    H123017   2.147   3.529  11.239  0.7206  0.6877  1.5988
  534TIP3    H223018   2.038   3.613  11.301  0.1109  0.6677  0.5715
  535TIP3   OH223019   1.312   3.411   1.316 -0.0018  0.1829 -0.0885
  535TIP3    H123020   1.377   3.471   1.281  0.8014  0.2379  1.4242
  535TIP3    H223021   1.244   3.408   1.249  0.8300  1.3048 -1.0262
  536TIP3   OH223022   4.732   5.848   3.893  0.4985  0.0008 -0.5311
  536TIP3    H123023   4.770   5.773   3.846  1.4325  0.0690  0.0905
  536TIP3    H223024   4.731   5.918   3.828 -0.3491 -0.5222 -1.1076
  537TIP3   OH223025   5.793   3.964   5.925  0.0560  0.0874 -0.6192
  537TIP3    H123026   5.724   3.898   5.915  0.1057 -0.3446  1.5003
  537TIP3    H223027   5.774   4.006   6.008  4.1724 -2.3241  1.8790
  538TIP3   OH223028   1.789   3.444  11.168  0.5829  0.2206  0.0368
  538TIP3    H123029   1.783   3.375  11.102  0.4831  0.1347  0.1353
  538TIP3    H223030   1.849   3.508  11.131  1.8394 -0.6208  0.5690
  539TIP3   OH223031   5.704   0.587   0.900  0.9858 -0.4717 -0.1190
  539TIP3    H123032   5.671   0.503   0.869  0.5363 -0.3625  0.0614
  539TIP3    H223033   5.676   0.592   0.991  1.4825 -0.3671  0.0287
  540TIP3   OH223034   0.578   4.946  12.700 -0.1613 -0.0228 -0.6626
  540TIP3    H123035   0.635   4.872  12.677 -1.5794 -1.5779  0.5754
  540TIP3    H223036   0.636   5.007  12.745  0.8081 -0.9167 -0.6531
  541TIP3   OH223037   1.193   3.089   5.735  0.0213  0.1413  0.2864
  541TIP3    H123038   1.137   3.057   5.663  1.7737 -2.7028  0.0185
  541TIP3    H223039   1.173   3.030   5.808  0.1033  1.4066  1.3702
  542TIP3   OH223040   2.336   3.457  16.720 -0.3023  0.0957  0.2852
  542TIP3    H123041   2.282   3.386  16.754 -2.9014  2.0797  0.5950
  542TIP3    H223042   2.381   3.492  16.796  2.0342 -1.8906 -0.0471
  543TIP3   OH223043   6.705   2.426  12.332 -0.0745 -0.6369 -0.7208
  543TIP3    H123044   6.665   2.451  12.415  0.6434 -0.1873 -0.5038
  543TIP3    H223045   6.786   2.382  12.356 -1.1338 -2.9515 -1.1015
  544TIP3   OH223046   5.922   0.603   0.123  0.5923  0.2670  0.0128
  544TIP3    H123047   5.949   0.622   0.212  2.0738 -0.1916 -0.3112
  544TIP3    H223048   5.887   0.686   0.090  0.5491  0.5829  0.8369
  545TIP3   OH223049   4.554   3.310  12.156 -0.2817  0.2566  0.0143
  545TIP3    H123050   4.559   3.317  12.061 -0.5072 -0.5917 -0.0698
  545TIP3    H223051   4.473   3.261  12.172 -0.1987  0.3121  0.6405
  546TIP3   OH223052   0.476   1.212   0.623  0.0351  0.1002  0.5833
  546TIP3    H123053   0.529   1.251   0.554  0.1754  0.4138  0.8620
  546TIP3    H223054   0.509   1.253   0.704  0.7058 -1.1570  0.9666
  547TIP3   OH223055   2.097   5.810  11.472  0.0682 -0.1358  0.3688
  547TIP3    H123056   2.064   5.767  11.551 -0.0499  0.7146  0.7887
  547TIP3    H223057   2.024   5.864  11.442 -1.3570 -3.3314 -2.5651
  548TIP3   OH223058   6.370   4.369   0.097  0.0692 -0.4195  0.4207
  548TIP3    H123059   6.354   4.459   0.125  0.2853  0.0735 -0.9334
  548TIP3    H223060   6.445   4.340   0.148  0.5547  0.4858  0.2347
  549TIP3   OH223061   2.781   6.230  13.089 -0.3260  0.7548 -0.2453
  549TIP3    H123062   2.729   6.311  13.084  0.3030  1.0964 -2.6540
  549TIP3    H223063   2.727   6.164  13.045 -0.8526 -0.2164  1.7434
  550TIP3   OH223064   5.446   4.712   2.216 -0.3223  0.1963 -0.0423
  550TIP3    H123065   5.379   4.779   2.229  0.4746  0.7537  1.3067
  550TIP3    H223066   5.397   4.635   2.185 -1.2143  1.4336 -1.8803
  551TIP3   OH223067   2.430   2.414   2.544  0.5728 -0.1976  0.0014
  551TIP3    H123068   2.453   2.400   2.635 -1.5659 -0.3787  0.5581
  551TIP3    H223069   2.370   2.343   2.523  0.7494  0.0475 -1.4482
  552TIP3   OH223070   4.868   2.833  17.132  0.3302 -0.4290  0.7244
  552TIP3    H123071   4.794   2.879  17.092  1.7863  0.7976 -0.6707
  552TIP3    H223072   4.830   2.751  17.164 -1.5224 -0.0894 -0.4399
  553TIP3   OH223073   4.543   1.240  13.838 -0.8403 -0.0003 -0.1857
  553TIP3    H123074   4.450   1.218  13.837 -1.3626  1.9775  0.7296
  553TIP3    H223075   4.564   1.254  13.930  0.4767 -0.7662 -0.3405
  554TIP3   OH223076   0.887   1.898   1.110  0.0259 -0.2910  0.4502
  554TIP3    H123077   0.822   1.901   1.039  1.2497  0.0197 -0.7154
  554TIP3    H223078   0.913   1.806   1.115  0.3701 -0.2214  0.0571
  555TIP3   OH223079   2.472   1.267  16.794  0.3254  0.4228 -0.1516
  555TIP3    H123080   2.544   1.245  16.853 -0.8272 -0.3284  1.0168
  555TIP3    H223081   2.413   1.191  16.798 -0.9593  1.3728 -0.3972
  556TIP3   OH223082   6.364   2.848  14.624  0.0010  0.3735 -0.1702
  556TIP3    H123083   6.314   2.772  14.595  0.1633  1.0927 -2.5847
  556TIP3    H223084   6.451   2.836  14.587  1.0909  0.1303  2.2981
  557TIP3   OH223085   6.406   3.143   1.004 -0.0008 -0.5681  0.3710
  557TIP3    H123086   6.485   3.100   1.037 -1.4235 -2.6559  1.2872
  557TIP3    H223087   6.391   3.216   1.064  1.5594  0.2804 -0.2201
  558TIP3   OH223088   4.985   5.109   5.931  0.7548 -0.9234 -0.0886
  558TIP3    H123089   4.921   5.178   5.947  0.5145 -1.0283 -0.5497
  558TIP3    H223090   5.070   5.149   5.947  0.5801 -0.7194  0.3210
  559TIP3   OH223091   5.834   0.683  13.852  0.9445  0.4108 -0.4142
  559TIP3    H123092   5.909   0.739  13.873  0.3905  0.3853  1.8284
  559TIP3    H223093   5.873   0.599  13.827  1.6964  0.7178 -0.2908
  560TIP3   OH223094   6.486   5.046  12.292  0.0927 -0.2748  0.4660
  560TIP3    H123095   6.394   5.066  12.276  0.5855  1.8608 -0.1049
  560TIP3    H223096   6.489   5.012  12.381 -1.1656  0.2404  0.7220
  561TIP3   OH223097   5.166   4.995  16.087 -0.9716 -0.1335  0.2837
  561TIP3    H123098   5.103   4.925  16.099 -0.2897 -0.5184  1.9807
  561TIP3    H223099   5.220   4.993  16.167  1.8930 -0.5419 -1.5157
  562TIP3   OH223100   3.979   3.120  11.697  0.3862  0.1680  0.0970
  562TIP3    H123101   4.055   3.132  11.755  1.3223 -0.4613 -0.9510
  562TIP3    H223102   4.018   3.098  11.612 -0.9936 -1.8749 -0.0748
  563TIP3   OH223103   5.240   2.228   4.792  0.0309  0.3612  0.0000
  563TIP3    H123104   5.177   2.181   4.737 -0.3134  0.7386  0.0647
  563TIP3    H223105   5.240   2.181   4.875  1.2678 -0.7988 -0.6108
  564TIP3   OH223106   4.278   5.288  15.935  0.2570  0.4647 -0.4084
  564TIP3    H123107   4.210   5.350  15.910 -0.1161 -0.6232 -2.2999
  564TIP3    H223108   4.232   5.222  15.987  0.0976  0.4005 -0.6259
  565TIP3   OH223109   3.697   2.947  16.488 -0.1075  0.2154  0.3727
  565TIP3    H123110   3.777   2.917  16.445  0.1523  1.1048  0.2328
  565TIP3    H223111   3.722   3.026  16.535 -0.9876  0.7081  0.0371
  566TIP3   OH223112   6.187   2.476  11.640 -0.0765 -0.3123 -0.7709
  566TIP3    H123113   6.282   2.480  11.648 -0.1412  0.6512 -0.4351
  566TIP3    H223114   6.163   2.551  11.586 -0.7087 -0.1434 -0.2695
  567TIP3   OH223115   4.002   0.652  16.106  0.1303  0.3454  0.8088
  567TIP3    H123116   3.977   0.742  16.127  2.9057  1.4710 -0.2116
  567TIP3    H223117   4.093   0.659  16.075  1.0631 -3.0299  2.2972
  568TIP3   OH223118   0.239   3.885  14.977 -0.1617  0.0624 -0.3545
  568TIP3    H123119   0.306   3.946  14.946  0.2558 -1.0783 -1.8117
  568TIP3    H223120   0.267   3.800  14.943 -0.8175 -0.9330  1.4950
  569TIP3   OH223121   6.081   0.076   5.107  1.0063  0.0954  0.1694
  569TIP3    H123122   6.098   0.034   5.191 -0.5565  1.8621  1.4568
  569TIP3    H223123   5.985   0.074   5.099  0.9755  2.0609 -0.3929
  570TIP3   OH223124   5.646   5.614   0.266 -0.0223  0.4359 -0.2553
  570TIP3    H123125   5.674   5.529   0.298 -0.4874  0.2590 -0.3049
  570TIP3    H223126   5.558   5.599   0.231  0.3976  0.6523 -1.4638
  571TIP3   OH223127   5.991   5.744   2.362 -0.0807 -0.7628  0.1075
  571TIP3    H123128   6.085   5.760   2.367 -0.2028  1.5532 -2.8733
  571TIP3    H223129   5.981   5.653   2.390  2.9908 -1.0025  0.7323
  572TIP3   OH223130   4.964   5.693  16.342 -0.1918 -0.6660  0.3798
  572TIP3    H123131   4.902   5.760  16.372 -0.4947 -1.6485  2.0305
  572TIP3    H223132   5.045   5.741  16.328 -0.7690  0.2842  0.1742
  573TIP3   OH223133   1.854   2.937   1.600 -0.1313 -0.4947  0.0983
  573TIP3    H123134   1.888   2.900   1.682  3.8010  0.1560 -1.0348
  573TIP3    H223135   1.823   2.862   1.551  0.3395 -1.2872  0.9799
  574TIP3   OH223136   4.617   6.507  15.082 -0.1576  0.3836 -0.4100
  574TIP3    H123137   4.601   6.579  15.021  0.5592 -0.1274 -1.2153
  574TIP3    H223138   4.636   6.551  15.165 -0.7908  1.0918 -0.6168
  575TIP3   OH223139   6.247   5.713  15.469  0.0648  0.1996  0.1328
  575TIP3    H123140   6.215   5.754  15.389 -2.1197 -1.8097 -0.1571
  575TIP3    H223141   6.194   5.753  15.539 -0.4453 -0.4227  0.1181
  576TIP3   OH223142   5.377   0.484   3.311 -0.1992 -0.4492 -1.0435
  576TIP3    H123143   5.331   0.412   3.355 -0.7143  1.1403  1.1848
  576TIP3    H223144   5.328   0.563   3.336  1.4860  0.9049 -1.8027
  577TIP3   OH223145   2.569   2.752  16.410 -0.4655  0.5359  0.1165
  577TIP3    H123146   2.482   2.770  16.375 -0.4176  1.9685  0.6927
  577TIP3    H223147   2.596   2.672  16.365 -2.1648 -0.0769  0.1014
  578TIP3   OH223148   3.116   1.911   5.242 -0.0405  0.1101 -0.2458
  578TIP3    H123149   3.103   2.006   5.244 -0.2321  0.0809  0.1788
  578TIP3    H223150   3.036   1.876   5.282 -0.0373 -0.2381 -0.5402
  579TIP3   OH223151   4.343   3.481   1.361  0.2462 -0.3700  0.4464
  579TIP3    H123152   4.270   3.431   1.398 -0.2703 -0.4737 -0.6635
  579TIP3    H223153   4.304   3.564   1.336 -0.0771 -1.2140 -2.1997
  580TIP3   OH223154   4.327   0.589   5.772 -0.3361 -0.4456  0.0891
  580TIP3    H123155   4.316   0.643   5.851 -0.7213  0.2794 -0.4485
  580TIP3    H223156   4.267   0.627   5.709  0.1932 -0.8316 -0.6581
  581TIP3   OH223157   1.229   4.782  12.469 -0.2518  0.4986  0.1839
  581TIP3    H123158   1.268   4.864  12.438  2.1053  0.2215  2.0699
  581TIP3    H223159   1.251   4.718  12.401 -1.3041  1.2101 -0.8627
  582TIP3   OH223160   1.697   6.374  12.602  0.7670 -0.1959  0.4948
  582TIP3    H123161   1.784   6.373  12.642  0.8694  1.3632  0.3920
  582TIP3    H223162   1.677   6.282  12.585  1.6298 -0.7289  2.1441
  583TIP3   OH223163   4.525   2.574   3.173  0.4629 -0.2913 -0.0760
  583TIP3    H123164   4.499   2.540   3.087 -1.3125 -2.3420  1.1711
  583TIP3    H223165   4.443   2.585   3.220  1.2919  2.1158  0.9637
  584TIP3   OH223166   6.471   1.280  15.065  0.3916  0.3911  0.0058
  584TIP3    H123167   6.426   1.362  15.085  1.8145  1.2282 -0.1369
  584TIP3    H223168   6.406   1.228  15.017 -0.3847  1.5972 -0.2931
  585TIP3   OH223169   3.937   0.518   3.009  0.3992  0.2374 -0.1773
  585TIP3    H123170   3.919   0.564   2.927 -1.6982 -0.1183  0.0180
  585TIP3    H223171   3.884   0.439   3.004  0.4438  0.0778  1.4061
  586TIP3   OH223172   6.171   3.524   6.468  0.7770  0.2713 -0.2729
  586TIP3    H123173   6.180   3.430   6.453 -0.7979  0.0169  0.1524
  586TIP3    H223174   6.136   3.532   6.557  1.4294  1.2969 -0.0837
  587TIP3   OH223175   2.538   3.913   1.437 -0.0879  0.1550  0.2644
  587TIP3    H123176   2.527   3.827   1.396 -1.2418 -0.4295  1.7392
  587TIP3    H223177   2.633   3.924   1.444  0.0740 -1.4195  0.9054
  588TIP3   OH223178   2.472   0.140  14.111  0.6919 -0.0088  0.1504
  588TIP3    H123179   2.524   0.060  14.102 -0.6321 -1.0495  1.3029
  588TIP3    H223180   2.489   0.170  14.200 -1.8862 -1.3369  1.1952
  589TIP3   OH223181   2.292   6.450  13.801 -0.4982 -0.4801  0.8224
  589TIP3    H123182   2.256   6.438  13.713 -1.8030 -1.3325  1.4343
  589TIP3    H223183   2.345   6.530  13.795  1.1225 -1.6162 -1.2252
  590TIP3   OH223184   3.386   2.677  13.583  0.0742  0.4226  0.2318
  590TIP3    H123185   3.316   2.725  13.627  0.1578  0.0894  0.7305
  590TIP3    H223186   3.351   2.659  13.496 -0.5441  0.0793  0.5401
  591TIP3   OH223187   0.000   0.840   1.271 -0.1753 -0.3054 -0.4907
  591TIP3    H123188   0.045   0.865   1.191 -2.1150 -1.1126 -1.9075
  591TIP3    H223189  -0.006   0.744   1.266 -1.2629 -0.2820  0.0865
  592TIP3   OH223190   0.953   4.515   6.204 -0.9121  0.2742  0.0437
  592TIP3    H123191   1.022   4.579   6.222  0.6649 -1.7523  1.6571
  592TIP3    H223192   0.934   4.476   6.290 -1.1554 -2.0397 -0.9906
  593TIP3   OH223193   6.224   2.182  14.151 -0.2232  0.3324  0.2400
  593TIP3    H123194   6.202   2.105  14.099  1.9594 -1.6466  2.0438
  593TIP3    H223195   6.167   2.177  14.227  1.8872 -1.2853  1.8216
  594TIP3   OH223196   4.141   3.428  16.809 -0.2293 -0.8695  0.1468
  594TIP3    H123197   4.125   3.400  16.719 -1.8970  0.7226 -0.1230
  594TIP3    H223198   4.235   3.445  16.813 -0.1590 -0.7713 -1.3532
  595TIP3   OH223199   2.635   5.913  15.033 -0.1081 -0.0815 -0.3634
  595TIP3    H123200   2.621   5.835  15.087 -2.2834 -0.2256 -1.0265
  595TIP3    H223201   2.690   5.970  15.087 -0.3957 -1.1150  1.0878
  596TIP3   OH223202   2.897   5.959  12.910  0.1860 -0.2197  0.6398
  596TIP3    H123203   2.811   5.969  12.951  0.1842  0.3451  0.5035
  596TIP3    H223204   2.883   5.981  12.818  0.4718 -0.1121  0.6189
  597TIP3   OH223205   3.893   3.563  17.319  0.2395 -0.4220 -0.5223
  597TIP3    H123206   3.826   3.533  17.380 -1.1543  0.4099 -1.5904
  597TIP3    H223207   3.883   3.658  17.316  1.5097 -0.2664 -0.6768
  598TIP3   OH223208   4.452   5.552  13.920 -0.4156 -0.6442 -0.1378
  598TIP3    H123209   4.496   5.628  13.959  1.6128 -2.8387  2.1959
  598TIP3    H223210   4.359   5.573  13.925  0.0873  2.0006 -0.3781
  599TIP3   OH223211   3.606   1.730  12.487  0.2599  0.3831  0.3764
  599TIP3    H123212   3.692   1.758  12.455  0.1084  0.6940  0.2354
  599TIP3    H223213   3.625   1.659  12.549  0.5648 -0.1264 -0.2874
  600TIP3   OH223214   5.653   6.432   2.053 -0.1231 -0.0753  1.4927
  600TIP3    H123215   5.739   6.460   2.022 -0.9246  2.2903  1.1819
  600TIP3    H223216   5.657   6.442   2.148 -0.5066  1.6180  1.3649
  601TIP3   OH223217   0.648   0.367   1.627  0.3507  0.2296 -0.2115
  601TIP3    H123218   0.603   0.408   1.553 -0.2173  0.7112  0.3806
  601TIP3    H223219   0.704   0.437   1.663 -0.8114  0.6011  0.9608
  602TIP3   OH223220   0.013   3.872  16.149  0.9428  0.7012 -0.2577
  602TIP3    H123221   0.033   3.803  16.212 -1.7419  1.7133  1.8969
  602TIP3    H223222   0.033   3.953  16.196  0.1086  1.4754 -1.1943
  603TIP3   OH223223   5.987   6.434   5.479 -0.2681 -0.7797 -0.3778
  603TIP3    H123224   5.936   6.357   5.457 -0.9013 -0.6928  0.7290
  603TIP3    H223225   5.964   6.498   5.411 -0.4859 -1.2334 -0.7374
  604TIP3   OH223226   2.250   6.601  15.985  0.5477 -0.3050 -0.0642
  604TIP3    H123227   2.327   6.592  16.041  0.7598  0.1361 -0.2776
  604TIP3    H223228   2.213   6.686  16.009 -0.8103 -1.2016  1.1857
  605TIP3   OH223229   3.939   2.124   3.866 -0.4084 -0.4712 -0.0099
  605TIP3    H123230   3.951   2.209   3.908 -0.9937 -0.3821 -0.0184
  605TIP3    H223231   3.992   2.063   3.918 -0.4489 -0.2068  0.3435
  606TIP3   OH223232   6.594   6.225   3.042 -0.6325  0.1363 -0.1660
  606TIP3    H123233   6.539   6.299   3.068  0.8041  0.8294  1.0961
  606TIP3    H223234   6.532   6.158   3.013 -1.9958  1.6421 -0.8908
  607TIP3   OH223235   1.028   4.947   5.761  0.1524  0.0348 -0.1719
  607TIP3    H123236   1.095   4.975   5.823 -1.2448  0.0157  1.4170
  607TIP3    H223237   1.066   4.870   5.719  1.4376  0.4856  0.1110
  608TIP3   OH223238   4.643   0.868   2.604  0.3720  0.1008 -0.2081
  608TIP3    H123239   4.575   0.927   2.573 -1.5186 -2.1338 -0.6186
  608TIP3    H223240   4.704   0.859   2.531 -1.0656 -0.8652 -1.3342
  609TIP3   OH223241   0.465   0.437  13.539  0.1495  0.1404  0.4132
  609TIP3    H123242   0.405   0.401  13.473 -0.3116  0.0241  0.8917
  609TIP3    H223243   0.552   0.424  13.501 -0.1010 -0.0957 -0.0927
  610TIP3   OH223244   5.001   1.942   5.071  0.2277  0.2428 -0.4120
  610TIP3    H123245   4.910   1.912   5.078  0.1724  0.7698  1.5619
  610TIP3    H223246   5.019   1.939   4.977 -2.1242  0.9894 -0.9569
  611TIP3   OH223247   5.739   4.885   2.907  0.2545  0.6142  0.3657
  611TIP3    H123248   5.774   4.920   2.825 -0.2535  0.4875  0.0892
  611TIP3    H223249   5.644   4.898   2.900  0.1596  0.1369  0.7116
  612TIP3   OH223250   4.712   6.664   1.155  0.0224 -0.5207 -0.4360
  612TIP3    H123251   4.768   6.698   1.225 -1.5327 -0.5545  0.8875
  612TIP3    H223252   4.660   6.740   1.127 -1.6976 -1.1463  0.8107
  613TIP3   OH223253   4.959   6.241   5.362  0.3597  0.8042  0.0745
  613TIP3    H123254   5.011   6.216   5.438  1.2127 -2.2396 -1.3687
  613TIP3    H223255   4.868   6.232   5.391  0.6239  1.9820  1.3650
  614TIP3   OH223256   5.967   5.912  16.344 -0.3028  0.0921  0.1103
  614TIP3    H123257   5.905   5.913  16.272  0.0416  0.4392 -0.1820
  614TIP3    H223258   5.932   5.975  16.407  0.3179  1.1329 -0.5440
  615TIP3   OH223259   3.989   3.061   5.144  0.1484 -0.2045 -0.4484
  615TIP3    H123260   4.012   3.010   5.221 -0.7688 -2.1072 -1.3623
  615TIP3    H223261   4.072   3.099   5.114  1.0953 -2.0844 -0.3404
  616TIP3   OH223262   1.583   5.704   2.957  0.3541  0.0734  0.9132
  616TIP3    H123263   1.606   5.721   3.049  2.0230  0.3895  0.4701
  616TIP3    H223264   1.536   5.783   2.930 -2.1854 -0.9263  2.0787
  617TIP3   OH223265   5.814   0.879   1.814 -0.2820 -0.4374  0.2580
  617TIP3    H123266   5.760   0.812   1.855  0.2121 -0.2429  1.2439
  617TIP3    H223267   5.814   0.856   1.721 -2.2310 -0.2981  0.2015
  618TIP3   OH223268   2.256   3.842  12.819  0.2919 -0.2557 -0.7284
  618TIP3    H123269   2.333   3.785  12.821 -0.1381 -0.8387  0.8751
  618TIP3    H223270   2.209   3.817  12.740 -1.1125 -3.8868  1.0519
  619TIP3   OH223271   6.745   3.435   1.978 -0.5431  0.7126 -0.6339
  619TIP3    H123272   6.677   3.425   2.045 -0.6995  0.5203 -0.8194
  619TIP3    H223273   6.784   3.348   1.969  1.1647  1.2609  0.9676
  620TIP3   OH223274   0.575   4.604   1.308  0.1611  0.0649  0.3102
  620TIP3    H123275   0.546   4.662   1.238  0.5206 -1.1010 -0.8513
  620TIP3    H223276   0.497   4.552   1.331  0.0266  0.4870  0.8429
  621TIP3   OH223277   0.981   2.100  11.620 -0.3081  0.3836  0.1379
  621TIP3    H123278   1.013   2.074  11.706 -0.6965 -0.5214  0.0274
  621TIP3    H223279   1.012   2.190  11.608  2.6200 -0.5275 -0.1485
  622TIP3   OH223280   0.469   3.420  13.174  0.4035 -0.2777 -0.1078
  622TIP3    H123281   0.556   3.459  13.163  0.2260  0.1723  0.0539
  622TIP3    H223282   0.425   3.434  13.090 -0.1457  1.1126  0.3970
  623TIP3   OH223283   0.262   4.538   3.791  0.5196  0.3145 -0.3176
  623TIP3    H123284   0.262   4.528   3.886 -1.6456 -1.9147 -0.4538
  623TIP3    H223285   0.182   4.589   3.773 -0.6100 -1.6047 -1.0238
  624TIP3   OH223286   6.405   2.185   4.050  0.2613  0.1112  0.1589
  624TIP3    H123287   6.380   2.151   3.964  0.4649  3.6460 -1.4596
  624TIP3    H223288   6.501   2.190   4.046  0.3056 -0.1606  0.8173
  625TIP3   OH223289   1.304   5.343  16.456  0.2934 -0.3873 -0.3924
  625TIP3    H123290   1.391   5.308  16.435  0.7105  1.2124 -1.4823
  625TIP3    H223291   1.259   5.347  16.372 -0.3432  0.0893 -0.0349
  626TIP3   OH223292   1.303   0.450   3.431 -0.0764  0.2925 -0.0496
  626TIP3    H123293   1.337   0.530   3.472 -0.4655  0.1323  0.5876
  626TIP3    H223294   1.375   0.387   3.439  0.2102  0.5539 -0.5011
  627TIP3   OH223295   1.954   4.011   2.466  0.2149  0.3851 -0.6611
  627TIP3    H123296   1.951   3.920   2.498  1.8347  0.7804  0.7596
  627TIP3    H223297   1.886   4.056   2.516 -0.6483 -0.0238 -1.4255
  628TIP3   OH223298   0.723   6.316  16.488 -0.2206 -0.4234 -0.0465
  628TIP3    H123299   0.662   6.357  16.549 -0.1165  0.0782 -0.2790
  628TIP3    H223300   0.696   6.348  16.402  0.9805  0.6124 -0.0681
  629TIP3   OH223301   1.080   3.151  15.144 -0.3868 -0.1499 -0.0225
  629TIP3    H123302   1.150   3.151  15.209 -1.5137  0.0252  1.2226
  629TIP3    H223303   1.028   3.229  15.164 -1.2456 -0.5560 -0.5908
  630TIP3   OH223304   6.582   3.136   4.901  0.5201  0.4859  0.8406
  630TIP3    H123305   6.618   3.075   4.966 -1.3946 -0.6082  0.9637
  630TIP3    H223306   6.612   3.103   4.817  0.4086  0.0331  0.9785
  631TIP3   OH223307   4.666   2.843   3.162 -0.8347 -0.2418 -0.3799
  631TIP3    H123308   4.641   2.879   3.247  0.0850 -1.0450  0.2462
  631TIP3    H223309   4.664   2.748   3.175 -0.6907 -0.3704 -1.2630
  632TIP3   OH223310   6.186   3.010   0.032 -0.1838  0.1060 -0.0881
  632TIP3    H123311   6.178   2.916   0.045  0.0121 -0.3066 -2.4996
  632TIP3    H223312   6.100   3.038   0.002 -0.7853  1.0794  2.3557
  633TIP3   OH223313   5.942   5.337  16.889  0.4766 -0.3108 -0.1892
  633TIP3    H123314   5.953   5.341  16.794  0.8741  1.0019 -0.1177
  633TIP3    H223315   5.848   5.348  16.903  0.3580 -0.9759 -0.4415
  634TIP3   OH223316   2.215   2.650  15.597  0.1033 -0.8622  0.5339
  634TIP3    H123317   2.172   2.626  15.680 -1.8715  0.2969 -0.0744
  634TIP3    H223318   2.196   2.743  15.587  0.9302 -0.8183 -0.8758
  635TIP3   OH223319   6.623   0.180   4.293  0.3594  0.1665 -0.1257
  635TIP3    H123320   6.699   0.166   4.236 -0.3273 -1.1618 -0.7603
  635TIP3    H223321   6.555   0.123   4.257 -0.6685  0.6746  0.9509
  636TIP3   OH223322   2.938   1.512  16.021  0.4197 -0.0093 -0.3775
  636TIP3    H123323   2.958   1.426  15.984  1.0891  1.0259 -2.6196
  636TIP3    H223324   2.895   1.559  15.949 -0.2716  1.4248  0.9171
  637TIP3   OH223325   0.531   4.385   3.157 -0.6831 -0.0370 -0.2508
  637TIP3    H123326   0.488   4.466   3.183 -1.1691  0.2324 -1.8180
  637TIP3    H223327   0.476   4.349   3.087 -1.4625 -2.6722  1.5733
  638TIP3   OH223328   6.532   1.754  12.785 -0.1139  0.2595 -0.1256
  638TIP3    H123329   6.466   1.815  12.751 -0.9695 -0.3152  0.4435
  638TIP3    H223330   6.614   1.784  12.748 -0.8342  0.4057 -1.6934
  639TIP3   OH223331   4.467   4.489  14.874  0.3454  0.2140  0.3789
  639TIP3    H123332   4.474   4.582  14.898  0.2306  0.4420 -0.4407
  639TIP3    H223333   4.398   4.455  14.930 -1.9980  1.4395 -1.5732
  640TIP3   OH223334   5.892   2.278  16.192 -0.6210  0.1599 -0.1819
  640TIP3    H123335   5.969   2.263  16.248  0.9230 -0.8458 -2.3908
  640TIP3    H223336   5.870   2.191  16.158 -1.4921  0.7106 -1.0933
  641TIP3   OH223337   2.044   0.172  13.713  0.3081 -0.3644  0.3278
  641TIP3    H123338   2.103   0.230  13.664  0.9777 -2.7188 -1.8597
  641TIP3    H223339   1.961   0.219  13.716  0.1720 -0.1210 -3.3326
  642TIP3   OH223340   5.798   3.689  12.918  0.2060 -0.4028  0.3700
  642TIP3    H123341   5.740   3.702  12.992 -0.9330  1.2739 -0.7352
  642TIP3    H223342   5.878   3.736  12.941 -0.1397  0.1028  0.5520
  643TIP3   OH223343   3.256   6.619  14.526 -0.3498  0.3212 -0.1035
  643TIP3    H123344   3.233   6.702  14.484 -0.5158  0.5348  0.4152
  643TIP3    H223345   3.200   6.614  14.603  0.7371  0.4538  0.7146
  644TIP3   OH223346   4.391   6.663   5.690 -0.3209  0.5413 -0.6674
  644TIP3    H123347   4.476   6.705   5.678  0.3067 -0.5371 -0.0668
  644TIP3    H223348   4.328   6.734   5.676  0.6476  1.2749 -1.4836
  645TIP3   OH223349   3.438   1.307  12.331  0.2835 -0.0413  0.4657
  645TIP3    H123350   3.487   1.277  12.255 -1.2047 -3.8013  0.7797
  645TIP3    H223351   3.495   1.288  12.406  0.0810 -0.3911  0.5366
  646TIP3   OH223352   2.799   4.527  15.041  0.0244 -0.3469 -0.6708
  646TIP3    H123353   2.847   4.445  15.046  1.0712  0.2868  3.5682
  646TIP3    H223354   2.866   4.594  15.024 -0.3707 -0.0448 -1.0812
  647TIP3   OH223355   2.433   5.114  12.968 -0.4290  0.1957 -0.4939
  647TIP3    H123356   2.362   5.079  12.914 -0.7043 -0.0928  0.0410
  647TIP3    H223357   2.508   5.120  12.908 -1.1656  1.4651 -1.3232
  648TIP3   OH223358   3.173   1.350   0.125 -0.2470  0.1773  0.2474
  648TIP3    H123359   3.255   1.397   0.140  1.2740 -2.5648  1.5053
  648TIP3    H223360   3.122   1.366   0.204  0.8516 -1.2132  1.3164
  649TIP3   OH223361   5.409   1.861   6.113 -0.6283 -0.5144 -0.1927
  649TIP3    H123362   5.339   1.845   6.177 -0.4591  1.2530  0.4796
  649TIP3    H223363   5.475   1.795   6.134 -1.9642 -2.0999 -0.7122
  650TIP3   OH223364   2.729   0.807  16.349 -0.1624 -0.3672  0.1504
  650TIP3    H123365   2.727   0.884  16.406 -0.0089  1.9187 -2.6976
  650TIP3    H223366   2.636   0.783  16.337 -0.3127  0.3659 -0.1716
  651TIP3   OH223367   0.532   5.037   1.080 -0.1177 -0.1609  0.0774
  651TIP3    H123368   0.556   5.128   1.095 -0.2120 -0.2863  1.0331
  651TIP3    H223369   0.485   5.038   0.996 -2.1310  1.0524  1.1478
  652TIP3   OH223370   4.722   0.940  12.489 -0.1210 -0.3585 -0.0300
  652TIP3    H123371   4.704   0.857  12.445  0.1610 -0.7870  0.6456
  652TIP3    H223372   4.679   0.932  12.574  0.6561 -0.1656  0.3884
  653TIP3   OH223373   1.502   3.400   1.661  0.0958  0.2122 -0.0237
  653TIP3    H123374   1.457   3.479   1.629  1.3252  0.9020 -0.1408
  653TIP3    H223375   1.555   3.372   1.586  0.2396 -0.2934  0.2656
  654TIP3   OH223376   1.752   3.599   2.395  0.6236 -0.3833 -0.4053
  654TIP3    H123377   1.813   3.632   2.461  0.5153 -2.4204  0.8080
  654TIP3    H223378   1.808   3.551   2.334  0.6089  0.7138 -1.3172
  655TIP3   OH223379   5.484   0.548  11.310  0.4081  0.1415 -0.0670
  655TIP3    H123380   5.402   0.552  11.359  1.1914 -1.9852  1.5981
  655TIP3    H223381   5.462   0.579  11.223 -2.4402 -1.3090  0.0292
  656TIP3   OH223382   1.929   0.820  16.309 -0.7143 -0.0534 -0.3989
  656TIP3    H123383   1.839   0.839  16.335 -0.4914 -0.7911  0.9749
  656TIP3    H223384   1.943   0.729  16.334  0.2195 -0.1473 -1.1847
  657TIP3   OH223385   1.420   0.119   0.850 -0.6287  0.0016  0.0534
  657TIP3    H123386   1.497   0.094   0.799 -0.8445 -0.6954  0.0605
  657TIP3    H223387   1.367   0.172   0.790  0.4793  1.6281  0.4610
  658TIP3   OH223388   6.226   4.303  10.448 -0.6776 -0.3110 -0.2437
  658TIP3    H123389   6.220   4.396  10.426  0.5080  0.1576  1.2445
  658TIP3    H223390   6.271   4.264  10.373  0.8143  0.7387  0.0676
  659TIP3   OH223391   3.618   2.238   2.182 -0.6171  0.2774  0.2049
  659TIP3    H123392   3.530   2.201   2.188  0.1436 -1.8769 -0.9610
  659TIP3    H223393   3.657   2.219   2.267 -0.7598 -0.2361  0.1625
  660TIP3   OH223394   6.233   4.594  13.452 -0.0041 -0.8708  0.0304
  660TIP3    H123395   6.169   4.582  13.522  0.5062 -1.8525  0.3479
  660TIP3    H223396   6.260   4.505  13.429  0.3612 -0.5245 -0.9314
  661TIP3   OH223397   4.809   1.864   4.001 -0.0991 -0.3700  0.0657
  661TIP3    H123398   4.805   1.960   3.999 -0.5685 -0.4002 -1.1039
  661TIP3    H223399   4.723   1.837   4.033 -0.6345 -0.4189 -1.3253
  662TIP3   OH223400   1.138   6.172   2.525  0.0271 -0.9979  0.1785
  662TIP3    H123401   1.078   6.225   2.473  0.5657 -0.8736 -0.3353
  662TIP3    H223402   1.093   6.088   2.535 -0.5101 -0.6937  0.3612
  663TIP3   OH223403   1.071   1.063   2.945  0.3477  0.7486  0.2831
  663TIP3    H123404   1.100   0.985   2.993 -0.7868  0.9670  1.3784
  663TIP3    H223405   1.103   1.137   2.998 -1.5975  0.9957  1.2212
  664TIP3   OH223406   3.751   1.813   5.243  0.1254 -0.0148  0.6995
  664TIP3    H123407   3.697   1.737   5.221  1.1669 -0.7809  0.7046
  664TIP3    H223408   3.792   1.790   5.326  1.2744  0.0886  0.1858
  665TIP3   OH223409   1.236   2.529  14.497 -0.1351  0.2647 -0.9077
  665TIP3    H123410   1.225   2.445  14.541 -3.1026  1.2592  0.5546
  665TIP3    H223411   1.302   2.575  14.548 -1.1825  0.1640  0.6047
  666TIP3   OH223412   3.887   0.074  12.071  0.6647  0.2027 -0.5729
  666TIP3    H123413   3.951   0.005  12.052 -0.0279 -0.7586  0.4506
  666TIP3    H223414   3.805   0.041  12.034  0.2159  0.2302  0.3633
  667TIP3   OH223415   2.682   5.379   4.257  0.1839  0.5600 -0.2965
  667TIP3    H123416   2.596   5.376   4.297 -0.0860  1.1560 -0.8284
  667TIP3    H223417   2.680   5.455   4.199  1.0464  0.5515 -0.3528
  668TIP3   OH223418   5.158   5.984   0.561  0.2146  0.5085 -0.3816
  668TIP3    H123419   5.186   5.901   0.598  1.3877  0.2075 -1.8189
  668TIP3    H223420   5.208   5.991   0.479 -0.4034  2.2785 -0.6472
  669TIP3   OH223421   3.056   5.209  15.105  0.2011 -0.1964  0.2990
  669TIP3    H123422   3.089   5.160  15.030 -0.3543  2.0855 -1.5665
  669TIP3    H223423   2.987   5.154  15.142 -0.4060 -0.8626 -1.7036
  670TIP3   OH223424   2.224   2.095  16.364 -0.0265  0.3928  0.3508
  670TIP3    H123425   2.188   2.008  16.348 -0.1931  0.2795  1.3021
  670TIP3    H223426   2.315   2.089  16.338 -0.8279  0.9540 -3.0659
  671TIP3   OH223427   2.769   6.709  15.853  0.3045 -0.5165  0.2329
  671TIP3    H123428   2.832   6.727  15.922 -0.4107 -1.2469  1.1124
  671TIP3    H223429   2.726   6.628  15.880  1.0093 -1.6606 -1.7994
  672TIP3   OH223430   4.824   4.526   3.436  0.4288  0.1547 -0.2044
  672TIP3    H123431   4.801   4.444   3.480  0.4287 -0.1851 -0.8253
  672TIP3    H223432   4.892   4.565   3.490  0.1629 -0.0714  0.2971
  673TIP3   OH223433   6.363   1.865  14.135 -0.4106  0.7112  0.3610
  673TIP3    H123434   6.275   1.864  14.096 -0.0421  0.1712 -0.4750
  673TIP3    H223435   6.412   1.928  14.082 -0.4549  1.4796  1.2149
  674TIP3   OH223436   5.184   2.722   0.806 -0.2961 -0.1627  0.8442
  674TIP3    H123437   5.153   2.652   0.863 -1.2532 -0.0529  0.4660
  674TIP3    H223438   5.118   2.791   0.814 -0.4645 -0.1577 -0.4084
  675TIP3   OH223439   4.102   3.360   1.465  0.0312 -0.0175  0.2757
  675TIP3    H123440   4.019   3.328   1.428 -0.6144 -0.2702  1.8792
  675TIP3    H223441   4.076   3.413   1.540  1.2482  1.7381 -0.4658
  676TIP3   OH223442   2.878   0.789   3.955  0.7048  0.2638  0.0875
  676TIP3    H123443   2.956   0.844   3.941 -0.5183  2.2688  0.7543
  676TIP3    H223444   2.858   0.798   4.048  1.0347 -2.2210  0.4748
  677TIP3   OH223445   0.955   0.075   6.278 -0.6521  0.0146 -0.1327
  677TIP3    H123446   0.990   0.004   6.224  0.2366 -2.0127  2.8491
  677TIP3    H223447   1.021   0.143   6.275 -0.2864 -0.3726 -0.9993
  678TIP3   OH223448   4.665   4.897  14.682 -0.7245  0.3569  0.3368
  678TIP3    H123449   4.591   4.934  14.632 -0.4976 -0.2126 -0.4443
  678TIP3    H223450   4.628   4.820  14.726 -1.3718  1.8238  2.5165
  679TIP3   OH223451   1.292   2.966  10.742  0.4480  0.3881  0.0090
  679TIP3    H123452   1.227   2.925  10.684 -1.1095  0.3068  1.7067
  679TIP3    H223453   1.243   3.034  10.789  1.3730 -0.1733  1.9080
  680TIP3   OH223454   2.558   3.843  15.232 -0.3249  0.1329 -0.1391
  680TIP3    H123455   2.620   3.774  15.206  0.0065  0.9208 -1.5456
  680TIP3    H223456   2.611   3.923  15.234 -0.6778  0.3807  1.5889
  681TIP3   OH223457   2.137   2.501  13.779  0.2856 -0.2755  0.3680
  681TIP3    H123458   2.061   2.540  13.821  0.4645  0.6406 -0.1339
  681TIP3    H223459   2.132   2.532  13.688  0.3875 -1.4959 -0.0691
  682TIP3   OH223460   2.689   4.876  13.404  0.3739 -0.0437 -0.6655
  682TIP3    H123461   2.773   4.922  13.392  0.0149  1.0069  0.5221
  682TIP3    H223462   2.629   4.920  13.343  0.6829 -0.8387 -1.5625
  683TIP3   OH223463   2.025   4.109   0.692 -0.2760 -0.0446 -0.1768
  683TIP3    H123464   1.973   4.186   0.671 -1.3060 -0.6777 -0.0169
  683TIP3    H223465   2.053   4.122   0.783  0.1316  0.4538 -0.3728
  684TIP3   OH223466   3.618   1.208  12.109  0.0305  0.0347  0.0897
  684TIP3    H123467   3.686   1.264  12.071  1.4515 -1.2550  0.6270
  684TIP3    H223468   3.580   1.163  12.034  1.3711 -0.9315 -0.0438
  685TIP3   OH223469   4.135   2.258  16.490 -0.5460 -0.4594  0.3592
  685TIP3    H123470   4.202   2.203  16.530 -0.2828 -0.1569  0.3317
  685TIP3    H223471   4.154   2.256  16.397 -2.0295 -2.3699  0.0163
  686TIP3   OH223472   4.907   5.506  13.376 -0.2935  0.6837 -0.1030
  686TIP3    H123473   4.870   5.556  13.303 -0.4621 -1.0243 -1.2275
  686TIP3    H223474   4.980   5.458  13.337 -0.4818 -0.3763  0.8112
  687TIP3   OH223475   3.191   5.122   3.191 -0.4560  0.4713 -0.2726
  687TIP3    H123476   3.246   5.065   3.137 -0.9537  1.0905 -1.4721
  687TIP3    H223477   3.163   5.066   3.264  1.7775  0.1512  0.4195
  688TIP3   OH223478   4.519   3.536  13.209 -0.0667 -0.4327  0.1348
  688TIP3    H123479   4.568   3.454  13.202  0.8383  0.0288  0.8195
  688TIP3    H223480   4.573   3.591  13.266 -0.9376  0.4363  0.1416
  689TIP3   OH223481   1.861   2.539  17.257  0.7832  0.2223  0.6554
  689TIP3    H123482   1.819   2.455  17.235  1.2768  0.2989 -0.6640
  689TIP3    H223483   1.932   2.547  17.194  2.2006  0.5641  2.2148
  690TIP3   OH223484   1.460   3.866  11.941 -0.8563  0.1217 -0.0282
  690TIP3    H123485   1.399   3.933  11.970  0.3940  1.1449  0.3124
  690TIP3    H223486   1.496   3.829  12.022 -1.0460 -0.4944 -0.2197
  691TIP3   OH223487   6.718   4.656  14.755  0.1359 -0.3952 -0.4912
  691TIP3    H123488   6.631   4.620  14.772 -0.3663  1.0992  0.3320
  691TIP3    H223489   6.767   4.640  14.836  0.1837 -0.0327 -0.4453
  692TIP3   OH223490   4.585   1.810   2.444  0.1256  0.4676  0.7122
  692TIP3    H123491   4.491   1.820   2.457 -0.4426 -2.7035 -0.1616
  692TIP3    H223492   4.597   1.819   2.349 -0.0099 -2.8314  0.2595
  693TIP3   OH223493   1.392   4.455   2.826 -0.4834 -0.0067 -0.5623
  693TIP3    H123494   1.481   4.480   2.849 -0.4716 -1.1166  0.7143
  693TIP3    H223495   1.402   4.403   2.746  0.0459 -0.2705 -0.3293
  694TIP3   OH223496   3.198   1.216   6.220 -0.0897  0.0967 -0.0277
  694TIP3    H123497   3.160   1.177   6.141 -0.1117  0.7690 -0.3586
  694TIP3    H223498   3.261   1.280   6.186 -3.4150  3.9424  0.3083
  695TIP3   OH223499   1.344   4.484  12.161  0.3413  0.0267  0.4261
  695TIP3    H123500   1.426   4.532  12.150  0.8729 -0.9669 -0.1321
  695TIP3    H223501   1.276   4.543  12.128  1.0225  0.2152 -0.6816
  696TIP3   OH223502   6.167   0.339  14.473 -0.2933  0.2384 -0.3313
  696TIP3    H123503   6.142   0.432  14.480  0.7273  0.4521  0.8065
  696TIP3    H223504   6.239   0.329  14.535 -0.7264 -1.4525 -0.0567
  697TIP3   OH223505   5.302   6.243   4.625 -0.2702  0.5856  0.1082
  697TIP3    H123506   5.263   6.328   4.646 -0.9022  0.4050 -0.2918
  697TIP3    H223507   5.309   6.243   4.530  0.8884  0.6778  0.1802
  698TIP3   OH223508   6.569   6.379   3.522 -0.0405 -0.0803 -0.0595
  698TIP3    H123509   6.570   6.453   3.462  0.9713  0.0526  0.1164
  698TIP3    H223510   6.629   6.315   3.482 -0.5299 -0.6085  0.0387
  699TIP3   OH223511   2.949   0.540  11.762 -0.0849 -0.6220  0.3041
  699TIP3    H123512   2.884   0.486  11.716 -0.3894 -1.6733  1.9006
  699TIP3    H223513   2.946   0.509  11.852 -0.8220  2.6073  1.4996
  700TIP3   OH223514   6.736   0.567   1.315 -0.0748 -0.6633  0.0208
  700TIP3    H123515   6.737   0.543   1.223  0.0608  0.2234 -0.2244
  700TIP3    H223516   6.814   0.525   1.352  0.8938  0.4513 -0.6879
  701TIP3   OH223517   5.753   5.362   4.536  0.2221 -0.5680 -0.1501
  701TIP3    H123518   5.715   5.444   4.504  1.1898 -0.2102 -0.3922
  701TIP3    H223519   5.729   5.297   4.470  0.8802 -0.1455 -0.8085
  702TIP3   OH223520   6.643   2.451  16.812  0.1165  0.2350 -0.2373
  702TIP3    H123521   6.575   2.402  16.859  1.3969 -1.8102 -0.3879
  702TIP3    H223522   6.596   2.525  16.774 -2.1192 -1.2456 -0.6178
  703TIP3   OH223523   3.009   5.593   1.624  0.1493  0.1406  0.0390
  703TIP3    H123524   3.046   5.671   1.582 -0.6507  0.4116 -0.1856
  703TIP3    H223525   2.918   5.592   1.595  0.5776 -1.8687 -1.3891
  704TIP3   OH223526   3.906   6.331  14.220 -0.2017 -0.4318 -0.3482
  704TIP3    H123527   3.895   6.247  14.264  0.4628 -0.8351 -0.9292
  704TIP3    H223528   3.883   6.314  14.129  1.7993 -0.5070 -0.8996
  705TIP3   OH223529   0.759   6.753  14.918 -0.0172  0.3057  0.4681
  705TIP3    H123530   0.775   6.673  14.868  1.3352  0.8715 -0.0272
  705TIP3    H223531   0.753   6.822  14.852  0.3321  0.8464  0.9950
  706TIP3   OH223532   1.378   1.797  15.596  0.9398  0.3782  0.3740
  706TIP3    H123533   1.328   1.731  15.547  2.5108 -0.9164  0.4424
  706TIP3    H223534   1.466   1.761  15.602  1.4196  1.7072  1.9498
  707TIP3   OH223535   6.692   6.567   0.721 -0.3379  0.2961  0.8574
  707TIP3    H123536   6.601   6.572   0.748 -0.6446 -0.3718 -0.0095
  707TIP3    H223537   6.709   6.473   0.709 -0.3957  0.5578 -1.7356
  708TIP3   OH223538   2.526   0.257  15.722 -0.3182 -0.6834  0.2054
  708TIP3    H123539   2.515   0.169  15.685 -1.8727 -0.6829  0.6022
  708TIP3    H223540   2.556   0.310  15.648  2.1249 -1.8231  0.3047
  709TIP3   OH223541   0.363   5.296   1.853 -0.4004 -0.2098 -0.0311
  709TIP3    H123542   0.456   5.304   1.834 -0.6226 -1.1671 -1.7481
  709TIP3    H223543   0.326   5.256   1.774 -2.3968  0.9020  0.2800
  710TIP3   OH223544   5.641   0.057   6.423  0.0394  0.3350  0.1358
  710TIP3    H123545   5.699   0.130   6.444 -0.5697  0.6760  0.6242
  710TIP3    H223546   5.563   0.098   6.386 -0.7791  0.0161  1.4575
  711TIP3   OH223547   5.708   6.304   0.175  0.7695 -0.4304 -0.4989
  711TIP3    H123548   5.795   6.268   0.155  0.4429 -0.8997 -1.1032
  711TIP3    H223549   5.653   6.226   0.185  0.0287 -0.1135 -1.9084
  712TIP3   OH223550   6.075   1.932  10.962  0.0979 -0.0198  0.4325
  712TIP3    H123551   6.010   1.978  10.909  1.0521  1.8104  0.7695
  712TIP3    H223552   6.025   1.891  11.033 -0.6801  1.6383  0.8738
  713TIP3   OH223553   2.581   2.231   5.510  0.1909  0.0443  0.2714
  713TIP3    H123554   2.600   2.194   5.424  4.1912  0.7202  0.6652
  713TIP3    H223555   2.581   2.156   5.569  0.6614 -0.1220  0.0669
  714TIP3   OH223556   5.332   5.854   2.127  0.4117  0.5789 -0.3493
  714TIP3    H123557   5.248   5.889   2.157 -0.6673 -2.9334  1.2315
  714TIP3    H223558   5.324   5.847   2.032 -2.1398 -1.8538 -0.0659
  715TIP3   OH223559   4.247   1.607   4.436 -0.1013  0.0209 -0.0250
  715TIP3    H123560   4.194   1.549   4.381  0.2637 -0.7619  0.4375
  715TIP3    H223561   4.202   1.691   4.432  1.0844  0.6258 -3.2828
  716TIP3   OH223562   4.673   4.699  16.325 -0.3588 -0.0152  0.1376
  716TIP3    H123563   4.752   4.751  16.310 -0.1447 -0.3509  0.0973
  716TIP3    H223564   4.618   4.716  16.248  0.1001 -0.5589 -0.3207
  717TIP3   OH223565   5.690   6.404   3.851 -0.5618 -0.0336 -0.2322
  717TIP3    H123566   5.598   6.428   3.862 -0.5761 -0.0271 -0.3599
  717TIP3    H223567   5.737   6.462   3.910 -0.8135 -1.5083  1.5124
  718TIP3   OH223568   0.105   3.672  16.382  0.3999 -0.3953  0.1393
  718TIP3    H123569   0.172   3.696  16.445 -0.1086 -0.0002  0.5398
  718TIP3    H223570   0.153   3.634  16.308  1.1094  0.4330  0.1548
  719TIP3   OH223571   5.488   6.198   3.965 -0.2166  0.5622  0.2761
  719TIP3    H123572   5.489   6.153   3.881  1.4500  2.0352 -0.5725
  719TIP3    H223573   5.410   6.253   3.962 -0.3820  0.3129 -0.1325
  720TIP3   OH223574   0.400   4.550   5.187  0.1890 -0.1440 -0.1553
  720TIP3    H123575   0.351   4.573   5.266  2.0583  0.3177  0.9054
  720TIP3    H223576   0.398   4.455   5.185 -0.4191 -0.1418  0.0800
  721TIP3   OH223577   6.199   0.075  16.799 -0.8696  0.6395  1.0095
  721TIP3    H123578   6.106   0.057  16.793 -0.7741 -0.0619  1.4638
  721TIP3    H223579   6.223   0.110  16.713 -1.1450 -1.1084  0.1792
  722TIP3   OH223580   5.457   0.627   4.235 -0.4192 -0.4807 -0.4299
  722TIP3    H123581   5.470   0.720   4.252 -1.5457 -0.5678  1.1230
  722TIP3    H223582   5.411   0.624   4.151  0.2357  0.3028 -0.8330
  723TIP3   OH223583   2.694   0.536   1.040  0.0660  0.5229  0.6574
  723TIP3    H123584   2.711   0.569   0.952  0.3849 -0.5021  0.3224
  723TIP3    H223585   2.767   0.476   1.058 -0.9271 -0.6566  0.8892
  724TIP3   OH223586   0.950   5.142  15.815  0.1071  0.2578 -0.5789
  724TIP3    H123587   0.868   5.111  15.776 -0.5922 -0.2098  1.1579
  724TIP3    H223588   0.925   5.171  15.903  2.1751 -2.3327  0.9985
  725TIP3   OH223589   6.251   6.288   3.356 -0.0439 -0.1463  0.2321
  725TIP3    H123590   6.208   6.227   3.297 -0.3120 -1.3009  1.5684
  725TIP3    H223591   6.180   6.325   3.409  0.1921  0.8610 -0.1191
  726TIP3   OH223592   2.713   0.612   6.519 -0.0113 -0.1055  0.1315
  726TIP3    H123593   2.671   0.693   6.545 -1.5139 -1.8378  3.8104
  726TIP3    H223594   2.806   0.633   6.515 -0.4905  2.1254 -0.8104
  727TIP3   OH223595   6.364   6.483   1.065 -0.0846 -0.1164  0.8366
  727TIP3    H123596   6.325   6.397   1.054 -2.9436  1.0721  0.7003
  727TIP3    H223597   6.335   6.511   1.152 -0.8951  1.4226  0.1212
  728TIP3   OH223598   1.891   4.430  13.573  0.0280  0.2340 -0.5325
  728TIP3    H123599   1.806   4.387  13.577  1.1669 -2.2334 -1.0450
  728TIP3    H223600   1.895   4.469  13.486 -0.9374  1.2870 -0.1358
  729TIP3   OH223601   0.066   1.204   2.305  0.4588 -0.6372 -0.3478
  729TIP3    H123602   0.112   1.163   2.379  1.4962 -0.4252 -0.8636
  729TIP3    H223603  -0.018   1.232   2.342  1.6208  1.0177  1.2339
  730TIP3   OH223604   2.148   2.635   2.680  0.0218 -0.2852  0.1808
  730TIP3    H123605   2.128   2.669   2.592 -0.5148 -0.7515  0.1175
  730TIP3    H223606   2.123   2.706   2.739  0.7390  0.1792 -0.0558
  731TIP3   OH223607   5.517   4.049  10.922 -0.2751 -0.4406  0.5684
  731TIP3    H123608   5.470   4.011  10.848 -1.1855 -0.3707  1.0986
  731TIP3    H223609   5.537   4.138  10.894 -0.6011 -0.4196  0.3916
  732TIP3   OH223610   2.467   4.969  11.723 -0.2279  0.7470 -0.5125
  732TIP3    H123611   2.509   5.034  11.666  1.3322 -0.6699 -1.0466
  732TIP3    H223612   2.528   4.957  11.795  0.0593 -0.9298 -0.9968
  733TIP3   OH223613   4.121   2.574  12.073  0.1340 -0.0976  0.6362
  733TIP3    H123614   4.097   2.563  12.165  0.6111  3.5696  1.3432
  733TIP3    H223615   4.043   2.611  12.032  0.5347  0.0201 -0.0288
  734TIP3   OH223616   6.613   6.084  11.291 -0.1329  0.0270  0.2182
  734TIP3    H123617   6.680   6.085  11.223 -0.8865  0.2354 -0.5479
  734TIP3    H223618   6.531   6.092  11.243 -0.5891  2.4819  1.2903
  735TIP3   OH223619   5.753   5.617   1.203 -0.9151 -0.2778 -0.3777
  735TIP3    H123620   5.843   5.640   1.178 -1.0814  0.8171 -0.0236
  735TIP3    H223621   5.699   5.679   1.155 -1.5095 -1.1178 -0.8089
  736TIP3   OH223622   1.280   4.636  15.255  0.0512  0.3516  0.5636
  736TIP3    H123623   1.196   4.591  15.264  0.4085 -0.0394  2.2377
  736TIP3    H223624   1.345   4.567  15.244  0.3066  0.5819  0.5864
  737TIP3   OH223625   3.958   5.113  13.791 -0.3834  0.3895  0.2836
  737TIP3    H123626   3.943   5.046  13.858  0.2278  0.8476  0.8894
  737TIP3    H223627   3.935   5.195  13.834  0.5536  0.7503  0.1198
  738TIP3   OH223628   0.775   4.049   3.209 -0.2764 -0.5660  0.4378
  738TIP3    H123629   0.764   4.072   3.116 -0.2558 -3.2197 -0.2801
  738TIP3    H223630   0.867   4.067   3.227 -0.2814 -0.0182 -0.0340
  739TIP3   OH223631   1.402   2.641  10.819 -0.1305 -0.2280  0.4011
  739TIP3    H123632   1.372   2.678  10.902  0.4769 -0.9400  0.9533
  739TIP3    H223633   1.338   2.671  10.754  0.1337  1.4750  0.8771
  740TIP3   OH223634   2.985   1.281   3.556  0.2601  0.0797 -0.5139
  740TIP3    H123635   2.960   1.196   3.591 -1.1935  1.1089  1.1099
  740TIP3    H223636   3.051   1.314   3.617  1.8867 -0.4465 -1.9320
  741TIP3   OH223637   6.512   6.039   3.776  0.5675  0.0462  0.4110
  741TIP3    H123638   6.430   6.009   3.737  0.2166  1.2389  0.1661
  741TIP3    H223639   6.486   6.078   3.859  0.5702  2.1403 -0.4936
  742TIP3   OH223640   3.833   3.368   5.540  0.1561 -0.2033  0.3830
  742TIP3    H123641   3.830   3.276   5.510  0.4025 -0.0511 -0.1365
  742TIP3    H223642   3.914   3.373   5.591 -0.8441 -0.7470  2.0827
  743TIP3   OH223643   2.356   1.573  15.258  0.6655  0.0384 -0.2528
  743TIP3    H123644   2.398   1.623  15.188  0.9887  0.0087 -0.0823
  743TIP3    H223645   2.324   1.640  15.318 -1.3083  0.1543 -1.3600
  744TIP3   OH223646   2.429   1.429   3.629  0.1465 -0.6538  0.3160
  744TIP3    H123647   2.405   1.425   3.721 -0.6747  0.2854  0.1628
  744TIP3    H223648   2.348   1.408   3.582  0.2962 -0.1223 -0.1945
  745TIP3   OH223649   4.276   2.538   1.760  0.2637 -0.3795 -0.6388
  745TIP3    H123650   4.316   2.566   1.843 -0.1087 -1.0850 -0.2144
  745TIP3    H223651   4.209   2.475   1.786  0.5745 -1.0920 -1.5259
  746TIP3   OH223652   6.423   3.035   5.976 -0.6873  0.5165 -0.4376
  746TIP3    H123653   6.373   3.114   5.997 -2.3056 -1.1131  2.5311
  746TIP3    H223654   6.362   2.963   5.991  1.4899 -1.4199 -0.3045
  747TIP3   OH223655   3.908   2.470   1.251 -0.3814 -0.4365 -0.0398
  747TIP3    H123656   3.891   2.532   1.322 -0.2505 -1.0166  0.5013
  747TIP3    H223657   3.859   2.505   1.176 -1.3846 -0.3953  0.6297
  748TIP3   OH223658   0.025   5.065   1.732  0.3207  0.4547  0.2156
  748TIP3    H123659  -0.057   5.108   1.704 -0.2621 -0.0497  1.1077
  748TIP3    H223660   0.092   5.106   1.677 -0.5417  0.7668 -0.6613
  749TIP3   OH223661   3.385   1.054   1.283 -0.0578  0.6001  0.0234
  749TIP3    H123662   3.470   1.010   1.280 -0.5294 -0.3099 -1.3334
  749TIP3    H223663   3.322   0.982   1.274 -0.9481  1.3127  0.4859
  750TIP3   OH223664   1.374   1.430  15.758 -0.9533  0.5924  0.8927
  750TIP3    H123665   1.297   1.373  15.746 -0.5972  0.1903  0.4905
  750TIP3    H223666   1.342   1.517  15.736 -0.4808  0.0118 -2.9065
  751TIP3   OH223667   4.288   5.813   0.392  0.2565  0.0378  0.0150
  751TIP3    H123668   4.273   5.722   0.369 -0.5081  0.0717  0.3403
  751TIP3    H223669   4.273   5.817   0.486 -0.3113  0.6086 -0.0929
  752TIP3   OH223670   1.119   5.595  15.375  0.0310  0.3317  0.0640
  752TIP3    H123671   1.208   5.629  15.379 -0.4188  1.7140 -0.8253
  752TIP3    H223672   1.093   5.608  15.284 -1.0810 -0.0325  0.3145
  753TIP3   OH223673   0.952   4.470  11.774 -0.7835  0.3559  0.8711
  753TIP3    H123674   0.980   4.487  11.684 -0.9709  1.7603  1.0487
  753TIP3    H223675   1.007   4.528  11.827  0.4634 -1.6188  1.8385
  754TIP3   OH223676   0.637   3.463   1.870 -0.5523  0.4780  0.5287
  754TIP3    H123677   0.638   3.368   1.884 -0.9757  0.3472 -0.2603
  754TIP3    H223678   0.729   3.485   1.854 -0.4787  0.1728  0.5216
  755TIP3   OH223679   1.880   4.941  17.156  0.2182 -0.1154 -0.2447
  755TIP3    H123680   1.871   4.998  17.079 -3.0485 -0.2352 -0.0829
  755TIP3    H223681   1.916   4.997  17.224  1.0496  0.5771 -1.2252
  756TIP3   OH223682   6.138   2.627  14.310  0.2972  0.6398 -0.6158
  756TIP3    H123683   6.128   2.680  14.231  0.6236 -0.7553 -1.6292
  756TIP3    H223684   6.054   2.581  14.319  0.6788 -0.1408 -0.8909
  757TIP3   OH223685   4.349   0.746  11.064  0.8342  0.1625  0.0581
  757TIP3    H123686   4.358   0.829  11.016  0.2345 -0.4240 -1.0921
  757TIP3    H223687   4.343   0.679  10.996 -1.5928 -0.5618  0.8898
  758TIP3   OH223688   3.849   5.648  16.518 -0.3717  0.0976 -0.2308
  758TIP3    H123689   3.909   5.574  16.509 -0.6565 -0.1854  0.1327
  758TIP3    H223690   3.823   5.669  16.429  1.2793  1.0865 -0.5174
  759TIP3   OH223691   2.661   0.883  11.310  0.2970  0.4133  0.2618
  759TIP3    H123692   2.583   0.876  11.255 -1.1995 -0.4508  2.3851
  759TIP3    H223693   2.629   0.914  11.395  2.3371  0.4941  1.0783
  760TIP3   OH223694   4.493   6.638   4.799  0.4682 -0.0003  0.2267
  760TIP3    H123695   4.406   6.670   4.777  0.1211 -1.0097  0.1040
  760TIP3    H223696   4.507   6.667   4.889 -0.0516  0.0346  0.2997
  761TIP3   OH223697   4.920   5.926  14.433 -0.7354  0.1662 -0.3083
  761TIP3    H123698   4.911   5.939  14.528 -0.5221 -0.9241 -0.1277
  761TIP3    H223699   4.830   5.932  14.399 -0.9400 -0.4461  0.1055
  762TIP3   OH223700   1.465   2.860  13.712 -0.1014 -0.3777  0.3758
  762TIP3    H123701   1.381   2.899  13.688  1.0469  1.7214 -0.4786
  762TIP3    H223702   1.449   2.820  13.798 -1.6858  1.0184  0.7936
  763TIP3   OH223703   4.857   5.103  16.037 -0.4391  0.1262  0.7738
  763TIP3    H123704   4.784   5.148  16.081 -0.0158  0.3053  1.3083
  763TIP3    H223705   4.887   5.165  15.971 -2.7983 -1.1392 -1.7197
  764TIP3   OH223706   1.759   4.441   5.457  0.7204 -0.6024 -0.0718
  764TIP3    H123707   1.787   4.440   5.548  3.1367  0.2539 -0.7080
  764TIP3    H223708   1.782   4.355   5.423  1.0127 -0.4895 -0.1665
  765TIP3   OH223709   3.801   0.239   3.024 -0.2304  0.2717 -0.7814
  765TIP3    H123710   3.738   0.168   3.035 -1.0433  1.2705  1.9796
  765TIP3    H223711   3.873   0.218   3.083 -0.3283  1.5264 -0.1713
  766TIP3   OH223712   0.654   4.265  15.100 -0.4602  0.2017  0.3781
  766TIP3    H123713   0.625   4.174  15.094 -1.5199  0.6333 -1.8922
  766TIP3    H223714   0.717   4.275  15.028 -0.3044  1.2608  0.6492
  767TIP3   OH223715   4.681   0.529  12.538  0.2242  0.0057  0.1169
  767TIP3    H123716   4.602   0.579  12.556  0.5903  1.1893 -1.3890
  767TIP3    H223717   4.740   0.590  12.494  1.4201 -1.2463 -0.1118
  768TIP3   OH223718   5.444   6.157   2.932 -0.6945  0.7101  0.3485
  768TIP3    H123719   5.533   6.150   2.968 -1.5229 -1.5403  2.2109
  768TIP3    H223720   5.457   6.163   2.837  1.4384 -0.6006  0.4953
  769TIP3   OH223721   2.544   3.746  12.776  0.0651  0.0442  0.2325
  769TIP3    H123722   2.622   3.739  12.832 -0.2660  0.2700  0.7217
  769TIP3    H223723   2.539   3.662  12.732  1.3706  0.4924 -0.8364
  770TIP3   OH223724   6.246   0.365   4.183 -0.6889 -0.7575  0.0449
  770TIP3    H123725   6.234   0.273   4.208 -0.8217 -1.0156 -0.9229
  770TIP3    H223726   6.231   0.414   4.264 -0.2532 -1.6045  0.6641
  771TIP3   OH223727   3.835   4.954  15.300 -0.1515 -0.3794  0.4023
  771TIP3    H123728   3.804   5.025  15.355  1.2351 -0.8124  1.8280
  771TIP3    H223729   3.794   4.969  15.215 -2.3090  0.3487  1.5224
  772TIP3   OH223730   4.043   1.879   6.085  0.4094  0.2711 -0.3642
  772TIP3    H123731   3.953   1.907   6.069  0.7486  1.8650  0.3552
  772TIP3    H223732   4.091   1.960   6.099  1.8446 -0.5943 -0.1362
  773TIP3   OH223733   1.242   1.872  17.079  0.8806  0.0496  0.3325
  773TIP3    H123734   1.197   1.789  17.063  0.1028  0.3499  0.9065
  773TIP3    H223735   1.173   1.938  17.075  1.4101  0.6183  0.3966
  774TIP3   OH223736   0.008   3.212   0.721  0.1012  0.5092  0.3685
  774TIP3    H123737  -0.060   3.270   0.755 -0.2821  1.1638 -1.3877
  774TIP3    H223738  -0.039   3.135   0.690  0.4002  0.0976  0.9167
  775TIP3   OH223739   0.339   6.669  12.893 -0.4682  0.1858 -0.0667
  775TIP3    H123740   0.373   6.723  12.822 -2.9847  2.1542  0.0675
  775TIP3    H223741   0.277   6.609  12.850 -0.5675  0.0699  0.2329
  776TIP3   OH223742   2.521   5.435  13.028  0.2710 -0.4528  0.1084
  776TIP3    H123743   2.502   5.395  12.944 -1.1237 -1.3313  0.8081
  776TIP3    H223744   2.437   5.469  13.059  0.9230  0.6444  0.7590
  777TIP3   OH223745   2.640   5.221  13.727  0.8674 -0.7444  0.2199
  777TIP3    H123746   2.694   5.299  13.742  1.3087 -0.8586 -0.7224
  777TIP3    H223747   2.635   5.213  13.632 -2.8084  0.6284  0.1234
  778TIP3   OH223748   4.555   6.349   1.007 -0.3114 -0.1782 -0.1097
  778TIP3    H123749   4.495   6.365   0.934 -1.1021  0.1478  0.5900
  778TIP3    H223750   4.507   6.379   1.085  0.2586 -1.0955  0.6257
  779TIP3   OH223751   6.659   1.777   0.140 -0.5862 -0.3232 -0.0326
  779TIP3    H123752   6.656   1.868   0.168 -0.3364 -0.3681  0.1389
  779TIP3    H223753   6.571   1.761   0.104 -0.0973  0.4837 -1.6763
  780TIP3   OH223754   5.441   6.406   3.557 -0.0611  0.2311 -0.0556
  780TIP3    H123755   5.499   6.468   3.513 -1.0602  0.7245 -0.7053
  780TIP3    H223756   5.461   6.322   3.516 -0.0946  0.4702 -0.5719
  781TIP3   OH223757   1.431   0.900  12.291 -0.2971  0.2286 -0.0631
  781TIP3    H123758   1.513   0.864  12.325 -1.0474 -1.4303  0.0758
  781TIP3    H223759   1.371   0.896  12.365 -0.9858 -0.2177 -0.6372
  782TIP3   OH223760   0.768   6.223   3.113 -0.3563 -0.1766  0.0197
  782TIP3    H123761   0.716   6.143   3.118 -0.6644  0.0639  0.9047
  782TIP3    H223762   0.710   6.286   3.071 -1.1049  0.3140  1.7127
  783TIP3   OH223763   0.652   4.444  13.833  0.2602 -0.3705 -0.2347
  783TIP3    H123764   0.672   4.351  13.823 -0.3629 -0.5070 -0.2437
  783TIP3    H223765   0.631   4.454  13.925 -0.6937 -0.4431 -0.4410
  784TIP3   OH223766   5.873   0.239  16.231  0.3864 -0.0279 -0.3088
  784TIP3    H123767   5.919   0.262  16.312  0.3059  1.3203 -0.6325
  784TIP3    H223768   5.828   0.319  16.205  1.4764 -0.0229 -2.4028
  785TIP3   OH223769   2.667   0.120  16.096 -0.0831 -0.2493  0.5369
  785TIP3    H123770   2.681   0.161  16.011 -2.1137  0.6286  0.5726
  785TIP3    H223771   2.744   0.064  16.109  1.6511  1.7533 -0.5647
  786TIP3   OH223772   1.549   0.717  17.367  0.1877 -0.3486 -0.5554
  786TIP3    H123773   1.561   0.623  17.356  0.0647 -0.2182 -1.9075
  786TIP3    H223774   1.556   0.731  17.462 -1.8204 -1.9956 -0.0890
  787TIP3   OH223775   2.629   0.835  15.034 -0.3975  0.4814  0.4551
  787TIP3    H123776   2.662   0.922  15.054  1.1315  0.1387 -0.4492
  787TIP3    H223777   2.703   0.789  14.994 -1.9180 -0.3117 -1.6763
  788TIP3   OH223778   2.485   3.689   1.292 -0.2096 -0.0915 -0.0386
  788TIP3    H123779   2.544   3.624   1.330  2.0952  1.7124 -0.2445
  788TIP3    H223780   2.442   3.644   1.220  2.6098 -0.9985 -1.2907
  789TIP3   OH223781   6.033   5.658   1.148 -0.4768 -0.2501 -0.2124
  789TIP3    H123782   6.053   5.578   1.196 -3.5652 -0.3953  1.0637
  789TIP3    H223783   6.036   5.727   1.214 -2.6519 -0.1252 -0.1702
  790TIP3   OH223784   3.909   5.916   2.744  0.1436 -0.3837  0.1508
  790TIP3    H123785   3.969   5.842   2.748  0.1931 -0.3029  1.1761
  790TIP3    H223786   3.963   5.992   2.766 -0.4312 -0.3891  1.7693
  791TIP3   OH223787   6.235   6.422   4.064  0.4260  0.3479  0.1571
  791TIP3    H123788   6.247   6.373   4.145  1.4209 -0.3773 -0.4058
  791TIP3    H223789   6.300   6.493   4.068  1.0817 -0.2136 -0.3881
  792TIP3   OH223790   6.155   5.047  14.545 -0.1764 -0.8293  0.4756
  792TIP3    H123791   6.063   5.037  14.568 -0.4783 -1.6351 -0.9847
  792TIP3    H223792   6.201   4.989  14.607 -0.5846 -0.1619  1.4339
  793TIP3   OH223793   3.626   6.013   5.715  0.0411  0.0625  0.2699
  793TIP3    H123794   3.560   6.060   5.664  0.3893 -1.2909 -1.5485
  793TIP3    H223795   3.577   5.946   5.762 -0.0111 -0.2949 -0.2841
  794TIP3   OH223796   1.614   3.712  12.155 -0.3930 -0.3539  0.0101
  794TIP3    H123797   1.526   3.681  12.174 -0.2438  0.0869  1.5123
  794TIP3    H223798   1.671   3.658  12.210  0.2226 -0.1518 -0.4082
  795TIP3   OH223799   3.203   0.122  14.392 -0.3527  0.2873 -0.1592
  795TIP3    H123800   3.278   0.123  14.333 -1.4544 -0.4880 -1.6500
  795TIP3    H223801   3.155   0.202  14.372 -0.7155  0.0360 -0.3192
  796TIP3   OH223802   4.552   2.343   4.201 -0.3821 -0.4819 -0.1580
  796TIP3    H123803   4.590   2.317   4.118  0.7135 -0.5265  0.3462
  796TIP3    H223804   4.520   2.432   4.186 -0.1592 -0.4775 -0.6095
  797TIP3   OH223805   2.828   1.615  12.376 -0.1387  0.5289 -0.4881
  797TIP3    H123806   2.909   1.598  12.329 -0.1946  0.4493 -0.5557
  797TIP3    H223807   2.785   1.530  12.383 -1.4319  0.9248 -2.6984
  798TIP3   OH223808   5.435   3.267  16.360  0.3770 -0.1600  0.0072
  798TIP3    H123809   5.447   3.309  16.445 -0.1287  1.4035 -0.6743
  798TIP3    H223810   5.364   3.204  16.374 -1.4477  1.8284  0.1937
  799TIP3   OH223811   4.380   4.779   5.032 -0.3744 -0.1023  0.3341
  799TIP3    H123812   4.287   4.801   5.042 -0.4688  1.5322 -2.7744
  799TIP3    H223813   4.422   4.861   5.007  1.5549 -1.1866 -0.2368
  800TIP3   OH223814   1.201   0.606  12.027  0.0430  0.7658  0.4987
  800TIP3    H123815   1.280   0.575  11.982  0.3494  1.3866  0.5860
  800TIP3    H223816   1.132   0.546  12.000  0.0349  1.5623 -1.4437
  801TIP3   OH223817   3.934   3.859   3.501 -0.6795 -0.7394  0.0063
  801TIP3    H123818   3.946   3.829   3.591  1.5825 -0.6029 -0.1955
  801TIP3    H223819   4.014   3.833   3.456  0.3280  3.2114 -0.8513
  802TIP3   OH223820   2.662   3.047  14.424  0.4391  0.1460 -0.2173
  802TIP3    H123821   2.594   3.107  14.391  1.5132  1.7221  0.3104
  802TIP3    H223822   2.744   3.094  14.408  1.0970  0.7966  4.0083
  803TIP3   OH223823   1.870   2.500  13.429  0.1546 -0.2800  0.3818
  803TIP3    H123824   1.950   2.552  13.437  1.2940 -1.6281 -1.3947
  803TIP3    H223825   1.823   2.540  13.355  0.0788 -0.5655  0.2742
  804TIP3   OH223826   0.992   0.892  11.253  0.4811  1.0183 -0.2438
  804TIP3    H123827   1.057   0.874  11.320  2.3112  0.0909 -2.1391
  804TIP3    H223828   1.008   0.826  11.185 -3.9782 -0.7900  0.1354
  805TIP3   OH223829   0.763   1.319   3.591 -0.7225 -0.0603 -0.3755
  805TIP3    H123830   0.684   1.369   3.610 -0.1303  0.7748 -0.0501
  805TIP3    H223831   0.820   1.381   3.546  1.2530  0.5232  2.7105
  806TIP3   OH223832   5.030   1.363   4.681 -0.1717  0.4411  0.1206
  806TIP3    H123833   5.010   1.443   4.632 -0.7114 -0.7678 -1.7183
  806TIP3    H223834   4.988   1.377   4.766 -0.1073  2.1745 -0.0971
  807TIP3   OH223835   0.400   2.822  15.381 -0.7967 -0.4784  0.5149
  807TIP3    H123836   0.433   2.733  15.389 -0.4851 -0.3794  0.3771
  807TIP3    H223837   0.356   2.825  15.296 -1.5057 -0.7182  0.8738
  808TIP3   OH223838   1.639   1.722  12.898 -0.6189 -0.9515  0.5174
  808TIP3    H123839   1.643   1.690  12.988 -0.8496 -0.2758  0.7739
  808TIP3    H223840   1.705   1.792  12.895 -1.4047 -0.1952  0.4841
  809TIP3   OH223841   1.352   2.088   6.317 -0.3884  0.4063 -0.2051
  809TIP3    H123842   1.373   2.173   6.356  1.3147  1.7691 -3.6275
  809TIP3    H223843   1.307   2.110   6.235 -1.9883 -2.1426 -0.1161
  810TIP3   OH223844   3.774   6.459   1.809 -0.3428  0.6393 -0.0055
  810TIP3    H123845   3.840   6.451   1.878 -1.2150 -0.2523  0.7526
  810TIP3    H223846   3.721   6.534   1.833 -1.0459 -0.0551  0.6690
  811TIP3   OH223847   5.739   2.911   1.060  0.2468 -0.2533  0.3345
  811TIP3    H123848   5.658   2.949   1.095 -0.5417 -0.3262 -1.3125
  811TIP3    H223849   5.719   2.818   1.047  0.2138 -0.0792 -1.0338
  812TIP3   OH223850   1.194   1.859  11.766 -0.2079 -0.0272 -0.2679
  812TIP3    H123851   1.250   1.930  11.733 -0.6050  0.5799  0.3324
  812TIP3    H223852   1.173   1.885  11.855 -0.2848 -0.9604  0.0010
  813TIP3   OH223853   3.365   4.129   1.012  0.0612 -0.6810 -0.2878
  813TIP3    H123854   3.356   4.106   0.919  0.6863  0.5110 -0.6761
  813TIP3    H223855   3.447   4.087   1.038  0.6493  0.1854 -0.6969
  814TIP3   OH223856   6.133   3.015  11.437 -0.1987  0.1597  0.2711
  814TIP3    H123857   6.047   2.979  11.460  0.6958 -1.2673  1.5545
  814TIP3    H223858   6.170   3.043  11.520  1.3079 -0.9461  0.0199
  815TIP3   OH223859   1.418   5.612  13.152  0.7978  0.3459  0.1410
  815TIP3    H123860   1.425   5.690  13.207  0.8451  0.4603 -0.0282
  815TIP3    H223861   1.378   5.546  13.209 -0.5665  0.9076 -0.1348
  816TIP3   OH223862   6.047   0.324   1.090 -0.4837  0.3333  0.3416
  816TIP3    H123863   6.014   0.375   1.017 -0.0664 -1.5593 -1.2446
  816TIP3    H223864   6.108   0.383   1.134  1.1890  0.7781 -2.3414
  817TIP3   OH223865   3.366   0.376   3.812 -0.8353 -0.4753 -0.4765
  817TIP3    H123866   3.421   0.298   3.813 -1.0152 -0.6203  1.1410
  817TIP3    H223867   3.376   0.413   3.900  0.7510  2.4200 -1.7300
  818TIP3   OH223868   3.258   2.890   3.011 -0.6102  1.2888  0.2191
  818TIP3    H123869   3.170   2.877   3.047  0.0748  1.2712  1.9854
  818TIP3    H223870   3.263   2.983   2.992 -1.8239  0.9073 -2.2278
  819TIP3   OH223871   5.465   3.867  13.486 -0.0914 -0.7258 -0.3863
  819TIP3    H123872   5.443   3.932  13.419  1.0392 -0.6163 -0.6723
  819TIP3    H223873   5.494   3.791  13.437  0.9186 -0.5844 -0.0381
  820TIP3   OH223874   1.327   4.088   3.662 -0.0565  0.3238 -0.4297
  820TIP3    H123875   1.257   4.128   3.713 -0.3015 -1.0454  0.3680
  820TIP3    H223876   1.407   4.111   3.709 -0.3191 -1.3087  0.8775
  821TIP3   OH223877   2.787   5.983   4.833  0.0792 -0.8109 -0.1515
  821TIP3    H123878   2.730   5.961   4.907  0.3494  1.2339  0.7161
  821TIP3    H223879   2.731   5.973   4.756 -2.0114  2.4351  0.7561
  822TIP3   OH223880   1.824   3.094  16.519  0.4969 -0.0704 -0.8060
  822TIP3    H123881   1.730   3.083  16.503  0.5217  0.6532 -1.4881
  822TIP3    H223882   1.835   3.070  16.611 -0.0374 -1.9976 -1.1944
  823TIP3   OH223883   2.152   0.936  14.968  0.6693 -0.2428  0.3522
  823TIP3    H123884   2.243   0.953  14.944  0.8515 -0.3861  0.9132
  823TIP3    H223885   2.133   0.849  14.932  0.1700  0.5281 -1.3331
  824TIP3   OH223886   0.310   1.044   1.236  0.3787 -0.1201 -0.4702
  824TIP3    H123887   0.334   1.108   1.168  3.8341 -0.1598  0.4977
  824TIP3    H223888   0.239   1.086   1.285 -1.1307  0.5601 -3.0820
  825TIP3   OH223889   0.977   1.301   2.632  0.1464 -0.3404 -0.0367
  825TIP3    H123890   1.015   1.312   2.545  2.8956  1.7336  1.2786
  825TIP3    H223891   1.029   1.231   2.672 -0.4725 -0.6239  0.2902
  826TIP3   OH223892   5.892   2.097   1.349  0.3697  0.1004  0.4081
  826TIP3    H123893   5.920   2.176   1.303 -0.1242  0.3777  0.5723
  826TIP3    H223894   5.813   2.124   1.395 -1.6710 -1.2991 -2.0501
  827TIP3   OH223895   1.957   5.006   0.204  0.0904  0.4091 -0.0949
  827TIP3    H123896   1.927   5.080   0.257 -0.0194 -0.3667  0.9774
  827TIP3    H223897   2.051   4.998   0.225  0.5332  1.3660 -1.6187
  828TIP3   OH223898   5.538   2.511   5.245  0.6126 -0.1708  0.1019
  828TIP3    H123899   5.478   2.473   5.180  1.7672 -0.4908 -0.8016
  828TIP3    H223900   5.567   2.593   5.206  0.1361  0.4031  0.9115
  829TIP3   OH223901   5.171   1.555   4.906 -0.4489 -0.9669 -0.4444
  829TIP3    H123902   5.244   1.496   4.886 -0.1745 -0.4487 -1.0193
  829TIP3    H223903   5.154   1.541   4.999  0.1341 -1.3698 -0.3879
  830TIP3   OH223904   6.265   3.036  13.626 -0.0903 -0.1035 -0.3096
  830TIP3    H123905   6.272   3.127  13.655  1.7909  0.0426 -1.1145
  830TIP3    H223906   6.186   3.034  13.572 -0.9795  0.6895  0.9115
  831TIP3   OH223907   2.939   0.347  13.218 -0.1239  0.0538 -0.6410
  831TIP3    H123908   2.933   0.303  13.133  0.6417  0.3492 -0.8498
  831TIP3    H223909   2.945   0.440  13.196 -2.4787  0.3727 -0.1919
  832TIP3   OH223910   5.280   3.589  13.238 -0.1988  0.3180 -0.6847
  832TIP3    H123911   5.282   3.495  13.257  0.8415  0.3527 -0.5783
  832TIP3    H223912   5.265   3.629  13.324 -1.7607  0.2255 -0.8802
  833TIP3   OH223913   4.218   5.396   2.535  0.0639 -0.2924  0.1272
  833TIP3    H123914   4.159   5.362   2.603  1.0342 -1.6024  0.3562
  833TIP3    H223915   4.206   5.337   2.461  1.6675 -1.0885  0.4702
  834TIP3   OH223916   4.178   5.977  14.460 -0.4937 -0.3057  0.9619
  834TIP3    H123917   4.229   6.035  14.517  0.0214  0.1852  0.0255
  834TIP3    H223918   4.217   5.891  14.472  0.3988  0.0169  0.4573
  835TIP3   OH223919   2.236   3.772  13.745  0.0865 -0.2938  0.1466
  835TIP3    H123920   2.204   3.684  13.767  1.3177 -0.9964 -0.7398
  835TIP3    H223921   2.201   3.789  13.657 -0.7544  0.4421  0.5996
  836TIP3   OH223922   1.418   4.671  14.226 -0.1292  0.5177  0.0195
  836TIP3    H123923   1.477   4.599  14.204 -1.9984 -1.9476  2.4658
  836TIP3    H223924   1.440   4.693  14.316 -1.4201  1.1435  0.2006
  837TIP3   OH223925   0.242   3.074  15.769  0.1304 -0.1994 -0.3523
  837TIP3    H123926   0.182   3.102  15.838 -0.4128 -0.7534 -0.5852
  837TIP3    H223927   0.227   3.136  15.697 -0.0334 -0.2266 -0.3418
  838TIP3   OH223928   2.854   0.326  11.585  0.4607 -0.5123 -0.6695
  838TIP3    H123929   2.835   0.374  11.505 -0.0440  0.5409  0.0698
  838TIP3    H223930   2.823   0.237  11.568  1.3710 -0.6040 -2.0350
  839TIP3   OH223931   6.490   3.835  16.676 -0.5601 -0.2635 -0.0015
  839TIP3    H123932   6.449   3.772  16.735 -0.5058 -0.4392 -0.1493
  839TIP3    H223933   6.527   3.901  16.734  0.4595 -1.0102  0.2306
  840TIP3   OH223934   1.425   3.802   0.219  1.1768  0.0638 -0.1077
  840TIP3    H123935   1.468   3.751   0.287  1.3920 -0.3430 -0.5379
  840TIP3    H223936   1.494   3.860   0.185  0.8059  1.0277  0.7276
  841TIP3   OH223937   1.240   2.757  17.209  0.2999 -0.0138  0.0855
  841TIP3    H123938   1.257   2.678  17.259  2.1959 -1.1993 -2.2597
  841TIP3    H223939   1.219   2.823  17.276  0.2688 -2.0517  2.2220
  842TIP3   OH223940   2.418   6.578   1.246  0.1783 -0.0809 -0.5929
  842TIP3    H123941   2.468   6.653   1.214  0.5491  0.3050  0.7956
  842TIP3    H223942   2.485   6.522   1.287 -0.3151 -0.3129 -0.0926
  843TIP3   OH223943   0.141   1.469  11.657 -0.1776  0.3343 -0.6098
  843TIP3    H123944   0.233   1.468  11.682 -0.4342  2.1835  0.6112
  843TIP3    H223945   0.141   1.498  11.566  0.4402  0.7752 -0.4761
  844TIP3   OH223946   0.160   3.765   6.740 -0.4347 -0.1380  0.0135
  844TIP3    H123947   0.246   3.724   6.750 -0.9607 -1.0522  0.9613
  844TIP3    H223948   0.175   3.857   6.762  0.7884  0.2948 -2.2546
  845TIP3   OH223949   1.364   5.580   5.635 -0.1205  0.3564 -0.4479
  845TIP3    H123950   1.291   5.631   5.669  0.8198  1.9227 -0.6593
  845TIP3    H223951   1.333   5.490   5.634 -1.4995  0.7798  0.9265
  846TIP3   OH223952   4.947   4.851  14.554  0.2042 -0.0286 -0.6628
  846TIP3    H123953   4.971   4.759  14.558  0.7773  0.0734 -1.5350
  846TIP3    H223954   4.857   4.854  14.587  0.5935 -0.7210  0.5155
  847TIP3   OH223955   2.553   1.301   5.594 -0.1633 -0.0276 -0.3028
  847TIP3    H123956   2.625   1.283   5.654  1.4268 -0.5884 -2.2589
  847TIP3    H223957   2.508   1.377   5.632  1.7040  0.5942  0.7808
  848TIP3   OH223958   1.055   0.067   4.978  0.3598  0.0798  0.1343
  848TIP3    H123959   1.024   0.010   4.908  0.3698  0.6477 -0.3362
  848TIP3    H223960   1.149   0.051   4.982  0.5117  0.7440 -0.6276
  849TIP3   OH223961   5.206   3.508  11.586 -0.5357 -0.2882  0.7006
  849TIP3    H123962   5.230   3.452  11.512 -0.5951  1.2500 -0.5257
  849TIP3    H223963   5.215   3.451  11.663  0.2816 -1.7067 -0.3960
  850TIP3   OH223964   5.048   1.749   1.926  0.1252 -0.0799  0.3820
  850TIP3    H123965   5.052   1.734   1.831 -0.8302  0.2523  0.2848
  850TIP3    H223966   5.028   1.662   1.962 -0.4420 -0.0340  0.1983
  851TIP3   OH223967   5.621   5.328   0.249 -0.4400 -0.3232  0.2887
  851TIP3    H123968   5.557   5.263   0.223 -0.0754 -1.1170  1.2883
  851TIP3    H223969   5.615   5.330   0.345  0.1951  0.4428  0.3209
  852TIP3   OH223970   1.532   5.878  16.577 -0.7608 -0.2789  0.1380
  852TIP3    H123971   1.491   5.869  16.491  0.6182  0.1120 -0.6006
  852TIP3    H223972   1.583   5.798  16.588 -1.5780 -0.6880  0.9590
  853TIP3   OH223973   5.931   5.136  13.633  0.6592 -0.2798 -0.2718
  853TIP3    H123974   6.021   5.158  13.607  0.2035  0.6316 -1.1228
  853TIP3    H223975   5.877   5.164  13.559 -0.5102  0.7009  0.9054
  854TIP3   OH223976   1.991   2.151   1.386  0.3301 -0.3157 -0.3098
  854TIP3    H123977   1.937   2.128   1.462 -0.9439 -0.4582 -1.2131
  854TIP3    H223978   2.012   2.066   1.346  1.9434 -0.3206  0.4658
  855TIP3   OH223979   1.288   6.005  11.907 -0.5499  0.5067 -0.0875
  855TIP3    H123980   1.215   5.951  11.937 -0.6872  1.4316  1.3648
  855TIP3    H223981   1.300   5.981  11.815 -0.9653 -1.5480  0.3446
  856TIP3   OH223982   1.397   3.723   6.124  0.0724  0.0641 -0.1610
  856TIP3    H123983   1.393   3.709   6.029  0.3941  2.9101 -0.7021
  856TIP3    H223984   1.485   3.695   6.149  0.2790  0.0718 -0.8625
  857TIP3   OH223985   4.606   0.154  12.754 -0.2090 -0.4849  0.2771
  857TIP3    H123986   4.541   0.087  12.770 -0.3991 -0.2662  0.4308
  857TIP3    H223987   4.683   0.107  12.721 -0.4444 -0.7405  0.0980
  858TIP3   OH223988   6.233   6.551   5.221 -0.3348  0.6568 -1.0145
  858TIP3    H123989   6.141   6.565   5.241 -0.3113 -0.3073 -0.1070
  858TIP3    H223990   6.262   6.487   5.287  1.5808  2.6891  0.2731
  859TIP3   OH223991   6.268   6.303  14.596 -0.5452  0.1756  0.5231
  859TIP3    H123992   6.237   6.295  14.506 -1.7981  0.9377  0.8670
  859TIP3    H223993   6.217   6.237  14.644 -0.9945  0.8243  0.9405
  860TIP3   OH223994   1.433   6.163  11.651 -0.7410  0.5585 -0.7015
  860TIP3    H123995   1.367   6.107  11.610  0.0189 -1.4364  0.6526
  860TIP3    H223996   1.509   6.106  11.665 -0.2795  1.5975  1.6785
  861TIP3   OH223997   4.086   0.873   1.213  0.0780  0.1148  0.1413
  861TIP3    H123998   4.072   0.888   1.119  1.0203 -3.8519 -0.8660
  861TIP3    H223999   4.179   0.849   1.219  0.2132  1.0224  2.2441
  862TIP3   OH224000   1.992   4.945   3.184 -0.1685 -0.2582 -0.1741
  862TIP3    H124001   1.957   4.862   3.153  0.5404 -0.7002  0.1630
  862TIP3    H224002   2.087   4.932   3.184 -0.0453  0.5941 -0.2347
  863TIP3   OH224003   6.506   1.524   2.440 -0.3668 -0.0877 -0.2820
  863TIP3    H124004   6.434   1.585   2.422 -0.8465 -0.1552  1.2662
  863TIP3    H224005   6.485   1.446   2.389  0.3594  1.0483 -2.4689
  864TIP3   OH224006   3.584   5.291  16.585  0.1043 -0.1311  0.3030
  864TIP3    H124007   3.509   5.280  16.643 -0.2476 -1.5649 -0.3839
  864TIP3    H224008   3.656   5.316  16.644 -0.5181 -0.4004  1.1975
  865TIP3   OH224009   3.712   5.785  12.129  0.0933  0.4853  0.6619
  865TIP3    H124010   3.723   5.754  12.039  1.2913  1.0133  0.6108
  865TIP3    H224011   3.627   5.750  12.156  0.7927 -1.7551  0.1722
  866TIP3   OH224012   3.903   0.124  16.100 -0.0597 -0.1108  0.1347
  866TIP3    H124013   3.852   0.049  16.069 -0.7014  0.5071 -0.3570
  866TIP3    H224014   3.907   0.114  16.195  0.5092 -1.1621  0.0095
  867TIP3   OH224015   2.724   2.998   4.791  0.3825 -0.2352 -0.0979
  867TIP3    H124016   2.639   2.991   4.748  1.0105  2.7780 -2.1786
  867TIP3    H224017   2.704   3.024   4.880 -0.9240  1.0430 -0.7187
  868TIP3   OH224018   5.153   6.282   3.415 -0.3748  0.0082  0.2358
  868TIP3    H124019   5.093   6.291   3.489 -0.8883 -0.1137 -0.1617
  868TIP3    H224020   5.187   6.192   3.423  0.4464  0.3645  0.9675
  869TIP3   OH224021   2.061   3.402  13.383  0.1516  0.6155 -0.1334
  869TIP3    H124022   2.011   3.460  13.440 -0.7529  0.8162 -1.0971
  869TIP3    H224023   2.019   3.410  13.298  0.7379 -0.5724 -0.5580
  870TIP3   OH224024   3.843   6.675  13.856  0.2236 -0.4393 -0.5408
  870TIP3    H124025   3.763   6.654  13.905  0.3672  0.3069  0.0346
  870TIP3    H224026   3.830   6.635  13.770 -0.9326 -0.0129 -0.5793
  871TIP3   OH224027   1.204   6.575  10.803 -0.0880  0.7516  0.4044
  871TIP3    H124028   1.155   6.513  10.857  0.2841  1.8214  2.0507
  871TIP3    H224029   1.289   6.582  10.846  0.7545  0.5754 -1.1692
  872TIP3   OH224030   3.218   3.028  14.525  0.1524  0.7726 -0.8236
  872TIP3    H124031   3.306   2.991  14.532  0.1247  0.9086  0.5333
  872TIP3    H224032   3.209   3.083  14.603 -0.7093  1.6981 -1.5410
  873TIP3   OH224033   5.647   1.018   3.118  0.2542 -0.3969  0.5528
  873TIP3    H124034   5.639   0.926   3.095 -0.7902 -0.3833  0.8195
  873TIP3    H224035   5.732   1.025   3.162  0.2672 -1.2481  0.6676
  874TIP3   OH224036   3.396   1.097  17.160 -0.1936  0.5868  0.1039
  874TIP3    H124037   3.478   1.048  17.172 -0.3080  0.7242  1.7158
  874TIP3    H224038   3.411   1.179  17.207 -1.4772  0.3403  0.9814
  875TIP3   OH224039   2.153   2.912  15.571  0.0075 -0.1138 -0.6651
  875TIP3    H124040   2.131   2.922  15.663 -0.8169 -1.6992 -0.6515
  875TIP3    H224041   2.136   2.998  15.533  0.9949  0.7509  0.7562
  876TIP3   OH224042   2.829   1.381   1.947 -0.0278 -0.2784  0.3881
  876TIP3    H124043   2.752   1.342   1.988 -0.2320 -0.1532  0.1294
  876TIP3    H224044   2.808   1.381   1.853 -0.4137  1.2819  0.4529
  877TIP3   OH224045   3.645   5.174   3.971  0.2878 -0.0360  0.2063
  877TIP3    H124046   3.708   5.167   4.043 -0.6777 -0.2703  1.0513
  877TIP3    H224047   3.603   5.088   3.968  1.4563 -0.6005 -1.7500
  878TIP3   OH224048   1.353   2.510  13.512  0.0256 -0.1927  0.0002
  878TIP3    H124049   1.385   2.420  13.512  0.0399 -0.2056  1.2405
  878TIP3    H224050   1.432   2.563  13.519  0.0028 -0.0844 -0.5214
  879TIP3   OH224051   3.120   0.947  16.121  0.1312 -0.6671  0.1813
  879TIP3    H124052   3.066   0.868  16.114  0.9903 -1.1628 -1.6874
  879TIP3    H224053   3.121   0.982  16.032  1.9946 -0.0922  0.3888
  880TIP3   OH224054   6.215   2.995   5.282  0.2905 -0.3006 -0.0259
  880TIP3    H124055   6.146   3.014   5.346  1.1653 -0.6986  1.0567
  880TIP3    H224056   6.296   3.024   5.323  0.9600 -1.1845 -0.6602
  881TIP3   OH224057   2.121   4.161  12.204  0.6547 -0.4553  0.3918
  881TIP3    H124058   2.143   4.250  12.175 -0.3278 -0.6339 -1.0359
  881TIP3    H224059   2.040   4.172  12.255  0.9251 -0.4574  0.8259
  882TIP3   OH224060   4.998   2.649   0.025 -0.3612 -0.1140 -0.4476
  882TIP3    H124061   5.035   2.728  -0.014  0.2720 -0.0305  0.2932
  882TIP3    H224062   4.954   2.604  -0.048 -2.1428  1.7117 -0.5655
  883TIP3   OH224063   3.822   5.372   4.808  0.4330  0.2692 -0.0726
  883TIP3    H124064   3.878   5.333   4.875  1.1213  1.0925 -0.1465
  883TIP3    H224065   3.836   5.467   4.818 -1.0423  0.5000 -0.0198
  884TIP3   OH224066   1.173   4.541  14.297  0.2985 -0.4389  0.0845
  884TIP3    H124067   1.203   4.622  14.254  1.3379 -0.3087  0.9853
  884TIP3    H224068   1.137   4.488  14.226  3.1252 -0.7978 -1.2544
  885TIP3   OH224069   1.887   0.925  11.734  0.6521 -0.3002 -0.6278
  885TIP3    H124070   1.878   1.012  11.773 -1.7320 -0.0367 -1.5939
  885TIP3    H224071   1.826   0.870  11.783  1.1401 -1.1180 -0.9088
  886TIP3   OH224072   2.878   6.082   3.308 -0.2277 -0.7749 -0.7739
  886TIP3    H124073   2.922   6.160   3.341  2.0110 -1.9201 -0.8954
  886TIP3    H224074   2.786   6.108   3.301  0.4335  1.8472 -0.8218
  887TIP3   OH224075   6.235   6.136  15.695  0.0704 -0.3425  0.1640
  887TIP3    H124076   6.274   6.052  15.718 -1.0394 -0.9318 -0.0419
  887TIP3    H224077   6.299   6.201  15.724  1.4883 -1.2767 -0.7226
  888TIP3   OH224078   1.091   6.588   5.449  0.2898 -0.4548  0.3165
  888TIP3    H124079   1.054   6.585   5.361  2.2540 -0.4683 -0.5481
  888TIP3    H224080   1.040   6.655   5.494 -0.7399 -0.4393 -0.8299
  889TIP3   OH224081   2.935   5.131  16.330 -0.4187  0.1312  0.2071
  889TIP3    H124082   2.991   5.062  16.294 -1.5797 -0.2528 -0.9525
  889TIP3    H224083   2.993   5.185  16.383  1.2696  0.3440 -1.7582
  890TIP3   OH224084   0.405   4.226   5.216  0.1805 -0.2681 -1.0494
  890TIP3    H124085   0.335   4.202   5.278  0.6254 -0.1093 -0.4785
  890TIP3    H224086   0.447   4.143   5.195  0.3562 -0.2599 -0.7359
  891TIP3   OH224087   5.122   5.581   4.557 -0.1928  0.1862 -0.4238
  891TIP3    H124088   5.150   5.672   4.553  0.2636  0.1813  1.7065
  891TIP3    H224089   5.203   5.531   4.567 -0.4643 -0.4666 -1.2896
  892TIP3   OH224090   4.683   4.640   1.122  0.3023  0.8315  0.7244
  892TIP3    H124091   4.604   4.587   1.110  0.5477  0.6535 -0.1836
  892TIP3    H224092   4.675   4.710   1.057  1.2575  0.3495  0.0449
  893TIP3   OH224093   6.251   2.009  13.067  0.3402  0.0780 -0.1218
  893TIP3    H124094   6.308   1.933  13.075  1.1888  0.4762 -2.0173
  893TIP3    H224095   6.297   2.079  13.114  0.9770  0.1497 -0.8355
  894TIP3   OH224096   1.029   5.855  13.000  0.0393  0.3916  0.4335
  894TIP3    H124097   0.944   5.899  13.003  0.0824  0.4901  0.2520
  894TIP3    H224098   1.020   5.782  13.061  0.4817  1.5265  1.9147
  895TIP3   OH224099   1.829   4.308   4.532  0.7235 -0.0304  0.3951
  895TIP3    H124100   1.844   4.336   4.441  0.6182 -0.1745  0.3334
  895TIP3    H224101   1.904   4.343   4.580  2.0118 -1.8866 -0.1424
  896TIP3   OH224102   1.760   4.609   5.956  0.2336  0.6377 -0.2444
  896TIP3    H124103   1.792   4.626   6.045 -1.6292 -0.1511  0.6228
  896TIP3    H224104   1.666   4.596   5.967  0.1282 -0.5150 -2.2040
  897TIP3   OH224105   5.876   2.651  13.129  0.0326 -0.5272 -0.5213
  897TIP3    H124106   5.876   2.737  13.088  0.8104 -0.2117  0.1157
  897TIP3    H224107   5.870   2.669  13.222 -0.7572 -1.2018 -0.4356
  898TIP3   OH224108   4.886   6.698  16.842 -0.2527 -0.1174  0.1192
  898TIP3    H124109   4.929   6.733  16.920 -1.6901 -0.3687  1.0526
  898TIP3    H224110   4.793   6.698  16.864 -0.5118 -2.1370 -0.8180
  899TIP3   OH224111   1.066   0.036   5.646 -0.0133  0.0212  0.3853
  899TIP3    H124112   1.009   0.111   5.663  0.8515  0.8098 -0.1116
  899TIP3    H224113   1.118   0.028   5.726 -0.1401 -0.0925  0.4579
  900TIP3   OH224114   1.268   1.110   4.875  0.2389  1.0310 -0.0320
  900TIP3    H124115   1.241   1.155   4.795  0.9865  0.2133 -0.7610
  900TIP3    H224116   1.341   1.054   4.848 -0.3111 -0.2131  0.9490
  901TIP3   OH224117   1.106   2.225  13.608  0.0673 -0.2006 -0.0480
  901TIP3    H124118   1.135   2.157  13.669  0.7539 -1.0380 -1.2637
  901TIP3    H224119   1.186   2.269  13.581 -0.0759 -0.6067 -1.2092
  902TIP3   OH224120   0.871   0.400  17.292 -0.1665  0.3306 -0.5302
  902TIP3    H124121   0.786   0.439  17.272 -0.5439 -0.6049 -0.8414
  902TIP3    H224122   0.919   0.403  17.210  0.2535  1.2006 -0.2614
  903TIP3   OH224123   1.545   5.421  11.081 -0.4464 -0.0638  0.4286
  903TIP3    H124124   1.500   5.497  11.119  0.9921  0.5517  0.9778
  903TIP3    H224125   1.503   5.408  10.996 -0.5434  1.5103  0.2127
  904TIP3   OH224126   1.893   4.153   2.195 -0.0578  0.4685  0.1493
  904TIP3    H124127   1.972   4.118   2.236  0.5200  1.1426 -0.3629
  904TIP3    H224128   1.861   4.083   2.139  0.3212  0.2783  0.1699
  905TIP3   OH224129   4.899   3.467  17.012 -0.0405  0.5090 -0.0395
  905TIP3    H124130   4.808   3.475  17.041  0.2655  1.5322  0.7069
  905TIP3    H224131   4.927   3.557  16.996  0.5800  0.1397 -1.1279
  906TIP3   OH224132   2.662   2.752   3.479  0.0601  0.4347  0.2140
  906TIP3    H124133   2.669   2.747   3.384  0.1293 -2.3339  0.2610
  906TIP3    H224134   2.578   2.795   3.494  1.0206  2.9253 -0.9857
  907TIP3   OH224135   6.064   5.845   4.491 -0.0127  0.2976 -0.4935
  907TIP3    H124136   6.009   5.846   4.569 -0.8199  0.3245 -1.0535
  907TIP3    H224137   6.003   5.857   4.418  0.7392  0.3686 -1.1244
  908TIP3   OH224138   1.323   2.122   2.223  0.0489  0.1978  0.3317
  908TIP3    H124139   1.364   2.068   2.290 -0.0283 -0.4457 -0.1289
  908TIP3    H224140   1.343   2.212   2.249 -0.5252 -0.0122  1.5524
  909TIP3   OH224141   2.358   5.787  14.216  0.4596  0.4106  0.3864
  909TIP3    H124142   2.264   5.771  14.213  0.4012  0.8719 -2.3660
  909TIP3    H224143   2.367   5.861  14.277 -0.6262 -1.1088  2.5420
  910TIP3   OH224144   4.562   3.367   1.222  0.0155 -0.1215  0.3206
  910TIP3    H124145   4.477   3.393   1.255 -0.4687 -1.2832  0.0529
  910TIP3    H224146   4.625   3.420   1.271 -0.8200  0.2213  1.0414
  911TIP3   OH224147   0.345   0.377  11.577  0.1855 -0.8893 -0.0360
  911TIP3    H124148   0.286   0.345  11.509 -2.1440 -0.4745  1.6960
  911TIP3    H224149   0.310   0.343  11.659  1.9898 -0.0764  1.1566
  912TIP3   OH224150   6.669   1.348   0.693  0.0711  0.3051 -0.4905
  912TIP3    H124151   6.760   1.331   0.719 -0.4066 -1.6293  0.0734
  912TIP3    H224152   6.627   1.262   0.695 -2.2605  1.3881  1.1221
  913TIP3   OH224153   0.298   5.327  15.709  0.5250  0.1199 -0.4633
  913TIP3    H124154   0.303   5.417  15.741  0.3826 -0.1720  0.4195
  913TIP3    H224155   0.381   5.288  15.735  0.9283  0.2241 -1.5811
  914TIP3   OH224156   2.864   1.364   6.253 -0.8894  0.6627  0.2308
  914TIP3    H124157   2.811   1.314   6.315  0.1887 -0.8906 -0.0473
  914TIP3    H224158   2.819   1.354   6.169  0.2053 -1.3264 -0.1671
  915TIP3   OH224159   2.023   3.874  16.507  0.5502 -0.3074  0.2498
  915TIP3    H124160   1.939   3.919  16.512  1.5116  1.4970  1.3189
  915TIP3    H224161   2.003   3.783  16.528 -1.3159 -0.2105 -0.8883
  916TIP3   OH224162   0.978   0.404  12.032 -0.1887  0.2651  0.0068
  916TIP3    H124163   0.886   0.408  12.059  0.3657  1.8609  1.8684
  916TIP3    H224164   0.992   0.312  12.010 -1.8466 -0.3178  1.1764
  917TIP3   OH224165   0.252   4.822  12.033 -0.9553 -0.0521 -0.0715
  917TIP3    H124166   0.192   4.749  12.021  0.3011 -1.2204  0.4778
  917TIP3    H224167   0.253   4.838  12.127  2.2924 -2.5545  0.5078
  918TIP3   OH224168   3.205   4.169   0.530 -0.1247 -0.2421 -0.4867
  918TIP3    H124169   3.177   4.202   0.615  1.7354 -0.2281  0.1825
  918TIP3    H224170   3.234   4.079   0.548 -0.6108 -0.5718 -1.3065
  919TIP3   OH224171   2.641   2.333   1.523 -0.2241 -0.0399 -0.2059
  919TIP3    H124172   2.672   2.283   1.599 -2.0095  0.4840  0.9296
  919TIP3    H224173   2.576   2.277   1.482  1.5175 -0.7994 -2.1035
  920TIP3   OH224174   6.661   1.512  14.363  0.7303 -0.1371  0.4350
  920TIP3    H124175   6.619   1.456  14.298  0.2143  0.0036  0.6450
  920TIP3    H224176   6.640   1.472  14.447  4.1804 -2.3022  0.4779
  921TIP3   OH224177   5.783   4.882  11.746 -0.4526  0.6962  0.0792
  921TIP3    H124178   5.818   4.793  11.748 -0.6797  0.6000 -0.1685
  921TIP3    H224179   5.859   4.938  11.737 -0.3644  0.4909 -0.4592
  922TIP3   OH224180   4.919   0.971  11.785  0.0413 -0.4961  0.1475
  922TIP3    H124181   4.837   0.988  11.831 -0.0868 -1.3549  0.2683
  922TIP3    H224182   4.967   0.911  11.843  0.5883 -0.2935 -0.0905
  923TIP3   OH224183   0.262   0.497   6.918 -0.2819 -0.2671  0.1157
  923TIP3    H124184   0.178   0.510   6.874 -2.4848 -1.0292  3.6649
  923TIP3    H224185   0.272   0.574   6.974  1.8262  0.1511 -0.7223
  924TIP3   OH224186   5.449   4.277   3.611  0.1102  0.1823  0.3680
  924TIP3    H124187   5.492   4.195   3.633  0.1782  0.0816 -0.1262
  924TIP3    H224188   5.518   4.343   3.619  0.3670  0.0235 -0.4054
  925TIP3   OH224189   2.716   6.557   2.696  0.5647 -0.2734  0.0296
  925TIP3    H124190   2.663   6.482   2.721  0.4348 -0.1289  0.1953
  925TIP3    H224191   2.708   6.562   2.600 -1.1705  0.7927  0.1949
  926TIP3   OH224192   4.279   5.820   1.131  0.1843 -0.1043 -0.1415
  926TIP3    H124193   4.241   5.732   1.136  0.8564 -0.5160 -1.7624
  926TIP3    H224194   4.213   5.872   1.085 -0.4485  0.4233  1.2796
  927TIP3   OH224195   5.184   4.675   2.757 -0.0753  0.0375  0.0693
  927TIP3    H124196   5.111   4.621   2.729  0.0269 -0.3615  0.5634
  927TIP3    H224197   5.147   4.737   2.820  0.1735 -0.7883  1.0569
  928TIP3   OH224198   0.248   3.857   0.323  0.2622 -0.5803  0.6521
  928TIP3    H124199   0.226   3.800   0.250  0.1280  0.6272 -0.2844
  928TIP3    H224200   0.343   3.870   0.315  0.0643  0.5615 -0.0992
  929TIP3   OH224201   5.778   1.950  13.788  0.4064 -0.7312  0.2834
  929TIP3    H124202   5.863   1.992  13.773 -0.1139 -0.3639 -1.9925
  929TIP3    H224203   5.738   2.003  13.857  1.7681 -0.5357  0.9533
  930TIP3   OH224204   3.965   0.294   5.234  0.4756  0.2613 -0.1640
  930TIP3    H124205   3.873   0.311   5.255  0.1585 -0.6217 -0.8080
  930TIP3    H224206   4.009   0.378   5.250 -0.2048  0.3432  1.3991
  931TIP3   OH224207   2.224   3.402   3.252  0.4483 -0.8376 -0.7280
  931TIP3    H124208   2.240   3.368   3.164  0.0132 -1.1759 -0.6815
  931TIP3    H224209   2.235   3.327   3.310  0.5950 -0.6474 -0.5057
  932TIP3   OH224210   4.980   1.272   4.226  0.0183  0.3421  0.0865
  932TIP3    H124211   4.919   1.218   4.176  0.7446 -0.1227 -0.3230
  932TIP3    H224212   4.936   1.356   4.236 -1.3578 -0.4779  1.1886
  933TIP3   OH224213   1.595   1.377  11.901  0.9548  0.4136 -0.3077
  933TIP3    H124214   1.526   1.323  11.938  1.3974 -1.7315 -2.3272
  933TIP3    H224215   1.551   1.431  11.835  0.9682  0.1734 -0.5149
  934TIP3   OH224216   4.669   2.477   2.360  0.4059  0.0887  0.0893
  934TIP3    H124217   4.710   2.558   2.392 -0.4002  0.4405  0.2362
  934TIP3    H224218   4.743   2.425   2.328  1.1611  0.0407  1.8205
  935TIP3   OH224219   6.237   4.512  12.406  0.0281  0.4396  0.0708
  935TIP3    H124220   6.239   4.426  12.365  1.2700  0.2251  0.5365
  935TIP3    H224221   6.245   4.573  12.332  1.8007  0.0667 -0.1014
  936TIP3   OH224222   5.653   4.301  16.708 -0.7132  0.2217  0.0920
  936TIP3    H124223   5.565   4.279  16.739 -0.4952 -0.5070  0.2176
  936TIP3    H224224   5.685   4.220  16.669 -0.2776  0.6207 -0.3967
  937TIP3   OH224225   2.838   2.035  12.166 -0.1975  0.0517 -0.3740
  937TIP3    H124226   2.847   1.946  12.134 -0.2085  0.4260 -1.4573
  937TIP3    H224227   2.900   2.041  12.239 -0.7063 -1.0388  0.1660
  938TIP3   OH224228   6.568   1.389   0.952 -0.2575  0.5892  0.6589
  938TIP3    H124229   6.474   1.374   0.939  0.2431 -2.0803 -0.6862
  938TIP3    H224230   6.604   1.395   0.864  1.0440 -0.2583  1.0952
  939TIP3   OH224231   2.118   3.647   3.233  0.1058 -0.2651 -0.2094
  939TIP3    H124232   2.061   3.678   3.305 -0.0799  0.7733 -0.7886
  939TIP3    H224233   2.141   3.558   3.258  0.1399  0.1153  1.2101
  940TIP3   OH224234   1.275   6.101   3.280 -0.4305 -0.1033 -0.1132
  940TIP3    H124235   1.355   6.048   3.286 -0.1129  0.2432 -1.0325
  940TIP3    H224236   1.228   6.083   3.361  1.4881  1.1732  1.3624
  941TIP3   OH224237   2.915   1.975  13.703 -0.2055  0.3626 -0.2550
  941TIP3    H124238   2.854   2.044  13.680  1.8792  2.3882 -0.1378
  941TIP3    H224239   2.978   1.973  13.631  0.4810 -0.5359  0.3381
  942TIP3   OH224240   3.013   2.487   3.388 -0.3058 -0.0921  0.2278
  942TIP3    H124241   2.977   2.573   3.408 -2.3790 -0.3429 -1.9211
  942TIP3    H224242   2.955   2.453   3.319  0.4727 -3.1752  0.9624
  943TIP3   OH224243   5.177   5.428  17.211 -0.5037  0.5989  0.0960
  943TIP3    H124244   5.102   5.449  17.154 -0.3247  0.0944 -0.3362
  943TIP3    H224245   5.251   5.420  17.150 -0.3652 -0.2311  0.3633
  944TIP3   OH224246   2.307   2.817  15.178  0.2303  0.4595 -0.3655
  944TIP3    H124247   2.329   2.795  15.087  3.2552 -0.5747  0.5126
  944TIP3    H224248   2.214   2.839  15.174  0.1657  0.2256 -3.6582
  945TIP3   OH224249   4.949   4.429   1.672 -0.5173 -0.4261 -0.0399
  945TIP3    H124250   4.883   4.467   1.614 -1.4873  3.5791  3.2439
  945TIP3    H224251   5.026   4.484   1.661 -0.4142 -0.1685  1.7279
  946TIP3   OH224252   5.628   6.388  16.053 -0.0701  0.3301  0.0173
  946TIP3    H124253   5.632   6.317  15.989 -0.5958  0.6690 -0.4009
  946TIP3    H224254   5.643   6.467  16.001 -2.7477  0.8346 -0.1265
  947TIP3   OH224255   2.242   4.075  11.086  0.6514  0.2439 -0.2843
  947TIP3    H124256   2.233   4.079  11.181  0.1716 -0.0073 -0.3130
  947TIP3    H224257   2.165   4.026  11.057 -0.3951  2.1913 -0.9986
  948TIP3   OH224258   4.886   1.426   4.911  0.9986  0.2654  0.2055
  948TIP3    H124259   4.795   1.411   4.938  1.1981 -2.3060 -0.3240
  948TIP3    H224260   4.938   1.385   4.980  1.6041 -1.9951 -1.4620
  949TIP3   OH224261   5.810   2.946  14.096 -0.4245  0.6096 -0.0112
  949TIP3    H124262   5.781   2.858  14.072 -1.0689  0.9081 -0.3566
  949TIP3    H224263   5.855   2.935  14.180 -3.0093  0.3656  1.4395
  950TIP3   OH224264   4.280   0.677  12.072 -0.5354  0.2546 -0.6842
  950TIP3    H124265   4.187   0.659  12.083 -0.0764 -2.0372  0.0428
  950TIP3    H224266   4.304   0.632  11.990  0.2400 -0.7143  0.0416
  951TIP3   OH224267   6.517   5.237   5.661 -0.7295  0.0496  0.0717
  951TIP3    H124268   6.492   5.314   5.713 -1.1967 -1.3481  2.0517
  951TIP3    H224269   6.441   5.179   5.667  1.1954 -2.4478  2.5201
  952TIP3   OH224270   0.490   4.692   2.487  0.1451 -0.2512  0.2998
  952TIP3    H124271   0.511   4.712   2.396  0.1204  0.5323  0.4621
  952TIP3    H224272   0.500   4.775   2.533  2.1583 -1.0414  1.4085
  953TIP3   OH224273   3.644   1.704  10.817 -0.4241  0.3378 -0.3637
  953TIP3    H124274   3.662   1.740  10.730 -0.6694  2.9722  0.5868
  953TIP3    H224275   3.573   1.759  10.852  0.2453 -0.0735  1.8189
  954TIP3   OH224276   0.633   0.619   5.179 -0.2729  0.2582  0.7892
  954TIP3    H124277   0.642   0.698   5.232 -2.1036 -1.0122  3.1864
  954TIP3    H224278   0.662   0.548   5.235  2.4862 -0.7968 -1.7126
  955TIP3   OH224279   5.894   1.346   0.738  0.8454  0.3922  0.4278
  955TIP3    H124280   5.871   1.411   0.806  0.1493  0.6147 -0.0136
  955TIP3    H224281   5.944   1.396   0.674  1.2490  0.2454  0.6233
  956TIP3   OH224282   4.442   4.814  15.417  0.4437  0.2542 -0.0912
  956TIP3    H124283   4.498   4.884  15.384  3.3408 -1.9492 -0.2066
  956TIP3    H224284   4.406   4.772  15.338 -1.0554  1.3151 -0.0269
  957TIP3   OH224285   5.610   2.205   6.010  0.3637 -0.1480  0.4539
  957TIP3    H124286   5.519   2.185   6.031 -0.0692 -0.0610 -1.1777
  957TIP3    H224287   5.605   2.285   5.957  1.6004  1.2011  2.2269
  958TIP3   OH224288   4.936   4.335  11.757 -0.2457 -0.2452  0.0109
  958TIP3    H124289   4.948   4.390  11.679 -0.3252  1.3934  1.0954
  958TIP3    H224290   4.883   4.389  11.816 -0.6428 -1.6635  0.9961
  959TIP3   OH224291   1.224   0.027  15.687  0.6499  0.3813  0.3102
  959TIP3    H124292   1.252  -0.030  15.616  3.2288  2.0539 -0.1303
  959TIP3    H224293   1.177  -0.031  15.748  0.5631 -1.5594 -1.5158
  960TIP3   OH224294   3.944   0.781   4.591 -0.4220  0.1062 -0.7634
  960TIP3    H124295   4.038   0.794   4.579  0.5024 -3.9588  0.5621
  960TIP3    H224296   3.921   0.838   4.665  1.1110  0.7510 -0.7533
  961TIP3   OH224297   3.742   3.402  12.396  0.3429  0.5041  0.4626
  961TIP3    H124298   3.835   3.379  12.405  0.6030  1.5812  0.7020
  961TIP3    H224299   3.722   3.384  12.305  0.7522  0.1136  0.4467
  962TIP3   OH224300   3.671   2.427  13.403  0.1584  0.1004 -0.5157
  962TIP3    H124301   3.727   2.381  13.466 -1.5369 -1.0691  0.2209
  962TIP3    H224302   3.658   2.513  13.442  1.1031  0.2520 -0.5082
  963TIP3   OH224303   3.689   4.952   3.176 -0.4600 -0.3472  0.0033
  963TIP3    H124304   3.668   4.859   3.163  0.5630 -0.6037  0.0953
  963TIP3    H224305   3.719   4.982   3.090 -0.5624 -0.1532  0.0331
  964TIP3   OH224306   2.319   3.310  13.529 -0.7603  0.0315  0.1732
  964TIP3    H124307   2.232   3.317  13.489 -1.1861  0.5729  1.1496
  964TIP3    H224308   2.357   3.398  13.521 -0.9391  0.2134  1.0993
  965TIP3   OH224309   0.165   5.687  13.829  0.5142 -0.3683 -0.3826
  965TIP3    H124310   0.247   5.658  13.869 -0.0759  0.1872  1.3045
  965TIP3    H224311   0.192   5.736  13.752  1.9321  1.5892  1.2410
  966TIP3   OH224312   2.683   1.254   0.880 -0.1490 -0.3262 -0.2776
  966TIP3    H124313   2.683   1.343   0.846  0.2063 -0.4721 -0.6670
  966TIP3    H224314   2.760   1.213   0.841  0.1815 -0.5501  0.5741
  967TIP3   OH224315   3.436   4.125  17.060  0.2668  0.0490 -0.3080
  967TIP3    H124316   3.415   4.198  17.001 -1.2950 -1.1740 -1.3452
  967TIP3    H224317   3.352   4.101  17.099  0.6876 -1.4356 -0.2748
  968TIP3   OH224318   3.943   2.191   2.097  0.3640  0.3322  0.5130
  968TIP3    H124319   3.907   2.148   2.175 -0.8617 -0.1132 -0.2495
  968TIP3    H224320   3.896   2.274   2.092  2.0637  1.4088  1.4646
  969TIP3   OH224321   0.444   2.751  14.064 -0.1914  0.6322  0.3153
  969TIP3    H124322   0.432   2.719  13.974  1.6019 -0.5028  0.4538
  969TIP3    H224323   0.529   2.795  14.063  0.1716  0.0124  1.6071
  970TIP3   OH224324   1.846   1.166  15.786  0.1699  0.0901 -1.2278
  970TIP3    H124325   1.916   1.157  15.851 -0.5717 -0.4895 -0.4778
  970TIP3    H224326   1.781   1.101  15.813 -0.9733  1.0989 -1.4779
  971TIP3   OH224327   2.606   3.850   5.551  0.4006  0.4369  0.3551
  971TIP3    H124328   2.543   3.882   5.487 -0.7388  1.1375  1.7812
  971TIP3    H224329   2.553   3.806   5.617  1.5682 -0.4192  0.7586
  972TIP3   OH224330   0.377   5.940  17.016  0.1832 -0.0197  0.2333
  972TIP3    H124331   0.379   5.857  16.968  0.7425  0.0483  0.1312
  972TIP3    H224332   0.323   5.922  17.093 -2.5234  0.4447 -1.4315
  973TIP3   OH224333   2.277   1.349  12.949  0.1104  0.1345 -0.3911
  973TIP3    H124334   2.365   1.350  12.985  0.3744  0.5853 -1.0307
  973TIP3    H224335   2.285   1.394  12.864 -0.7397  0.2343 -0.4265
  974TIP3   OH224336   4.323   1.822   2.893 -0.7136  0.0609  0.3837
  974TIP3    H124337   4.380   1.760   2.848 -0.0291  1.2314 -0.4266
  974TIP3    H224338   4.370   1.845   2.973 -0.6648  0.0156  0.3676
  975TIP3   OH224339   2.171   0.337   3.248 -0.7603  0.1687 -0.2936
  975TIP3    H124340   2.097   0.363   3.194 -1.1570 -1.5620 -0.6391
  975TIP3    H224341   2.221   0.417   3.260 -1.5603  0.9433 -1.8296
  976TIP3   OH224342   2.608   1.827  11.231  0.5169  0.0449  0.5347
  976TIP3    H124343   2.582   1.757  11.171  2.3646 -0.1105 -0.1547
  976TIP3    H224344   2.624   1.783  11.314 -0.2723 -0.0332  0.6461
  977TIP3   OH224345   5.520   5.062  15.197  0.1798 -0.2620 -0.2926
  977TIP3    H124346   5.495   5.151  15.173  1.8270  0.2963 -0.0744
  977TIP3    H224347   5.442   5.025  15.238 -0.6011  0.9894 -0.5946
  978TIP3   OH224348   5.647   0.096  11.409  0.1827  0.4551 -0.2853
  978TIP3    H124349   5.586   0.168  11.424 -0.2377  0.3573 -1.4377
  978TIP3    H224350   5.609   0.022  11.456  0.9438  1.0976  1.4518
  979TIP3   OH224351   4.220   1.273   2.799  0.6481 -0.0837 -0.1687
  979TIP3    H124352   4.284   1.337   2.830  0.5414 -0.6958  1.3877
  979TIP3    H224353   4.209   1.293   2.706  2.0420  0.9245 -0.1429
  980TIP3   OH224354   5.867   1.079  16.717 -0.2186  0.0392  0.3772
  980TIP3    H124355   5.904   1.057  16.802  0.3238  1.8649  0.6520
  980TIP3    H224356   5.802   1.147  16.735 -0.3479  0.2061 -0.6174
  981TIP3   OH224357   3.117   2.155  16.872 -0.3048  0.0833  0.5737
  981TIP3    H124358   3.030   2.133  16.906 -1.2448 -0.2641 -1.8073
  981TIP3    H224359   3.101   2.224  16.808  0.9601 -0.7772 -0.7600
  982TIP3   OH224360   0.898   3.936  11.313 -0.0418  0.1125 -0.1389
  982TIP3    H124361   0.977   3.943  11.261 -0.4042 -0.9527 -0.8474
  982TIP3    H224362   0.850   4.018  11.295  0.6175  0.5013 -0.1480
  983TIP3   OH224363   4.943   6.679   2.898  0.4058 -0.3123 -0.1441
  983TIP3    H124364   5.035   6.667   2.919  0.9471  0.9154 -1.5948
  983TIP3    H224365   4.899   6.603   2.935  1.5927  0.3205  2.8201
  984TIP3   OH224366   0.623   5.354  11.964  0.5194 -0.1867  0.4799
  984TIP3    H124367   0.531   5.352  11.992 -0.1694 -1.2968 -1.6215
  984TIP3    H224368   0.666   5.287  12.018 -0.3608 -1.0492  0.1329
  985TIP3   OH224369   6.043   4.681   0.031 -0.0046  0.2821  0.1956
  985TIP3    H124370   6.020   4.637  -0.051  0.4734  0.5596 -0.0949
  985TIP3    H224371   6.066   4.610   0.091  1.6176  0.1386 -0.5308
  986TIP3   OH224372   1.559   4.208   3.413  0.5864  0.3220 -0.0318
  986TIP3    H124373   1.599   4.134   3.368  1.1285  0.8201 -0.3791
  986TIP3    H224374   1.477   4.173   3.448 -0.1918  0.0890 -1.9886
  987TIP3   OH224375   2.085   4.433   0.570  0.0610  0.1721  0.6795
  987TIP3    H124376   2.082   4.455   0.663 -0.8632 -1.9294  1.1974
  987TIP3    H224377   2.015   4.486   0.530 -1.0401 -0.5790  1.5801
  988TIP3   OH224378   0.682   4.235   3.623 -0.1518 -0.8254  0.0412
  988TIP3    H124379   0.667   4.219   3.530  0.2558  1.8714 -0.5688
  988TIP3    H224380   0.604   4.281   3.653  0.6958  0.4163  0.4238
  989TIP3   OH224381   3.892   3.263  13.571 -0.2211 -0.2830 -0.0881
  989TIP3    H124382   3.918   3.299  13.656  2.0475  1.7432 -1.4788
  989TIP3    H224383   3.797   3.269  13.570 -0.3790 -1.1754  2.5937
  990TIP3   OH224384   3.664   3.423  11.533 -0.2493 -0.2517 -0.0089
  990TIP3    H124385   3.606   3.451  11.462  1.7254  0.0785 -1.5761
  990TIP3    H224386   3.709   3.346  11.499  0.3171 -0.4416  1.1194
  991TIP3   OH224387   6.201   0.472   2.376 -0.3986 -0.6498 -0.5837
  991TIP3    H124388   6.150   0.553   2.371 -0.8903 -0.9672 -0.7344
  991TIP3    H224389   6.136   0.402   2.381 -0.1029 -1.3340 -3.8131
  992TIP3   OH224390   3.628   1.475  17.160  0.3474  0.6511 -0.1144
  992TIP3    H124391   3.661   1.388  17.140  0.9262  1.3260 -2.3864
  992TIP3    H224392   3.693   1.535  17.123  0.2316  2.1113  1.8272
  993TIP3   OH224393   3.751   3.653  17.017 -0.2165  0.3888 -0.2270
  993TIP3    H124394   3.778   3.645  17.108 -1.7882  1.5582  0.3768
  993TIP3    H224395   3.667   3.607  17.012  0.5386 -0.9838 -1.4735
  994TIP3   OH224396   6.718   4.361  13.111  0.6015 -0.4453  0.3485
  994TIP3    H124397   6.695   4.416  13.185 -0.8619 -0.0453 -0.3654
  994TIP3    H224398   6.641   4.365  13.053  2.3458  0.7705 -2.0861
  995TIP3   OH224399   2.349   5.181   2.627 -1.2971 -0.2011  0.0284
  995TIP3    H124400   2.305   5.141   2.702 -0.1396 -2.2348 -0.3115
  995TIP3    H224401   2.328   5.124   2.553  2.2699 -1.6671 -0.0542
  996TIP3   OH224402   6.232   2.795   1.512 -0.6149 -0.2776  0.3969
  996TIP3    H124403   6.175   2.728   1.549 -1.6434 -0.5700 -1.5804
  996TIP3    H224404   6.282   2.749   1.444 -0.7898  0.7767 -0.4713
  997TIP3   OH224405   5.624   2.678   0.946  0.4885  0.0939  0.3885
  997TIP3    H124406   5.595   2.706   0.859 -0.3097 -1.6871  0.0418
  997TIP3    H224407   5.547   2.638   0.985  1.1148 -0.0259  1.5265
  998TIP3   OH224408   6.093   1.536  16.113 -0.5960  0.1809  0.0246
  998TIP3    H124409   6.040   1.615  16.110 -0.9562 -0.0723 -0.6912
  998TIP3    H224410   6.044   1.476  16.169 -0.4122  0.4012  0.4217
  999TIP3   OH224411   1.503   4.987  14.684 -0.6480 -0.5772  0.4292
  999TIP3    H124412   1.598   4.992  14.693 -0.4315 -2.1357 -0.5457
  999TIP3    H224413   1.482   5.051  14.616 -0.4865  0.6458  1.4805
 1000TIP3   OH224414   2.115   4.467   2.236 -1.1486  0.6547  0.0554
 1000TIP3    H124415   2.037   4.423   2.268 -0.2938 -0.3939  0.7421
 1000TIP3    H224416   2.187   4.407   2.254 -0.2316  1.3567 -1.0512
 1001TIP3   OH224417   2.502   2.245  16.090 -0.2053 -0.8782 -0.5085
 1001TIP3    H124418   2.563   2.268  16.020 -0.7683 -1.9271 -1.3826
 1001TIP3    H224419   2.558   2.213  16.161  0.3401 -0.3569 -0.6964
 1002TIP3   OH224420   4.916   1.229  15.649 -0.3804  0.7555  0.0839
 1002TIP3    H124421   4.967   1.296  15.604 -1.2357  0.4349 -1.4178
 1002TIP3    H224422   4.826   1.261  15.646 -0.4011  1.0355  2.1994
 1003TIP3   OH224423   0.483   1.369   5.957 -0.2164  0.3008 -0.8064
 1003TIP3    H124424   0.576   1.357   5.938  0.5423 -2.3397  3.1725
 1003TIP3    H224425   0.480   1.445   6.015 -0.3876 -0.0870 -0.2987
 1004TIP3   OH224426   0.623   6.469   0.693  0.2081 -0.5548 -0.3603
 1004TIP3    H124427   0.666   6.383   0.688 -0.3606 -0.8160 -0.8784
 1004TIP3    H224428   0.666   6.513   0.766  1.6614 -0.6478 -1.1210
 1005TIP3   OH224429   2.453   6.057  14.122  0.2543  0.5773  0.1273
 1005TIP3    H124430   2.432   5.970  14.087  2.0166  0.3926 -0.5489
 1005TIP3    H224431   2.446   6.116  14.046  1.0231  0.6933  0.1459
 1006TIP3   OH224432   0.163   6.565   5.323  0.1458  0.1712  0.3945
 1006TIP3    H124433   0.213   6.483   5.325  2.9936  1.7823  1.7265
 1006TIP3    H224434   0.075   6.541   5.353  0.4493 -2.5811 -0.6378
 1007TIP3   OH224435   2.263   0.836  14.607 -0.2267  0.2578  0.0766
 1007TIP3    H124436   2.204   0.799  14.672  1.5567 -0.4550  1.3631
 1007TIP3    H224437   2.271   0.929  14.632 -0.7504  0.3423 -0.0694
 1008TIP3   OH224438   2.588   5.956   3.870  0.2705  0.7963 -0.4358
 1008TIP3    H124439   2.584   5.871   3.914 -0.4297  0.5320 -1.0002
 1008TIP3    H224440   2.674   5.991   3.894 -0.4783  1.1609  2.0259
 1009TIP3   OH224441   1.426   4.589  14.724 -0.1573 -0.1625  0.1543
 1009TIP3    H124442   1.349   4.587  14.780 -1.2994 -0.8912 -1.3823
 1009TIP3    H224443   1.431   4.501  14.687 -0.0267  0.5506 -1.6403
 1010TIP3   OH224444   4.189   2.016   1.657  0.6932 -0.1187 -0.2531
 1010TIP3    H124445   4.150   1.973   1.733  1.5366  1.7927  1.3242
 1010TIP3    H224446   4.127   2.085   1.634  1.6678  0.9915  0.3725
 1011TIP3   OH224447   5.544   5.203   5.694  0.1646 -0.3906  0.3671
 1011TIP3    H124448   5.507   5.128   5.648 -3.3003  0.3187  1.6973
 1011TIP3    H224449   5.632   5.175   5.717  0.4444 -2.4719 -2.6068
 1012TIP3   OH224450   2.685   4.157   5.616 -0.5640 -0.5020 -0.2411
 1012TIP3    H124451   2.669   4.219   5.545  0.0449  0.3290  0.3327
 1012TIP3    H224452   2.632   4.188   5.689 -2.7985 -2.5082 -0.9045
 1013TIP3   OH224453   0.926   2.800   1.836  0.4964  0.7260  0.0071
 1013TIP3    H124454   0.932   2.782   1.742  0.7507 -0.4524  0.2342
 1013TIP3    H224455   1.010   2.839   1.858  0.2530  1.4557 -0.3460
 1014TIP3   OH224456   2.871   2.838   2.695 -0.5635 -0.4252 -0.3731
 1014TIP3    H124457   2.910   2.878   2.773 -0.3950 -0.9279 -0.2023
 1014TIP3    H224458   2.941   2.786   2.656 -1.5986 -3.1634  1.1586
 1015TIP3   OH224459   6.477   3.935  11.160 -0.1235 -0.0961 -0.4291
 1015TIP3    H124460   6.454   3.983  11.080 -0.3188 -3.6743 -2.7217
 1015TIP3    H224461   6.461   3.843  11.138 -0.5878 -1.2568  3.9256
 1016TIP3   OH224462   0.432   1.469  12.948  0.1446  0.2956  0.7978
 1016TIP3    H124463   0.345   1.504  12.965  0.8157  1.8605  1.1975
 1016TIP3    H224464   0.444   1.481  12.853 -0.1995 -0.2396  0.6843
 1017TIP3   OH224465   2.240   3.373   3.978 -0.5021 -0.3338 -0.5476
 1017TIP3    H124466   2.293   3.334   3.908 -0.9237 -0.4272 -0.8244
 1017TIP3    H224467   2.169   3.311   3.992 -1.6079  0.6472 -1.5184
 1018TIP3   OH224468   2.467   1.455   2.894  0.0743 -0.2205  0.0227
 1018TIP3    H124469   2.475   1.435   2.801  1.8830 -0.7373  0.2404
 1018TIP3    H224470   2.375   1.440   2.914 -0.5904  0.8956 -1.8847
 1019TIP3   OH224471   2.529   3.449  15.914 -0.4609 -0.8838 -0.3631
 1019TIP3    H124472   2.620   3.475  15.930 -0.0044 -0.5867 -3.0484
 1019TIP3    H224473   2.486   3.461  15.999  1.1305  2.6786  0.1268
 1020TIP3   OH224474   1.822   1.925   1.828 -0.7961  0.1703  0.1242
 1020TIP3    H124475   1.785   1.980   1.897 -0.1382 -1.4891  1.9078
 1020TIP3    H224476   1.899   1.884   1.869 -0.3179 -0.7915 -1.6411
 1021TIP3   OH224477   5.470   4.368  13.997 -0.1971 -0.3166 -0.0242
 1021TIP3    H124478   5.551   4.414  13.978 -0.2940  0.6404  1.6773
 1021TIP3    H224479   5.458   4.378  14.091 -2.6761  0.2527 -0.3272
 1022TIP3   OH224480   3.784   0.775  15.252  0.4472 -0.6826 -0.9392
 1022TIP3    H124481   3.707   0.821  15.218 -1.7190 -1.8431  2.0159
 1022TIP3    H224482   3.767   0.683  15.234  0.8174 -0.9975  0.2162
 1023TIP3   OH224483   5.234   2.854   2.913  0.2727 -0.5863 -0.3941
 1023TIP3    H124484   5.189   2.935   2.890 -1.2324 -0.5041  2.3557
 1023TIP3    H224485   5.187   2.785   2.866 -1.5115 -0.2700  0.8207
 1024TIP3   OH224486   5.492   6.068  16.115  0.4587  0.4109  0.2818
 1024TIP3    H124487   5.428   6.066  16.044  0.8054  0.3099 -0.0315
 1024TIP3    H224488   5.454   6.127  16.180 -0.4416 -0.4769  0.5781
 1025TIP3   OH224489   6.272   1.672   2.429  0.0684  0.0481  0.7199
 1025TIP3    H124490   6.194   1.651   2.481 -0.9743 -0.8728 -1.1041
 1025TIP3    H224491   6.304   1.755   2.465 -0.7266 -0.4254  2.6324
 1026TIP3   OH224492   4.579   1.425  13.460 -0.1410  0.4429 -0.0260
 1026TIP3    H124493   4.633   1.387  13.391 -0.9011  0.2479 -0.5218
 1026TIP3    H224494   4.539   1.502  13.421  0.4952  1.1232  0.6285
 1027TIP3   OH224495   2.638   1.420  14.026 -0.2918  0.3307  0.3823
 1027TIP3    H124496   2.657   1.457  13.940  1.1598  0.6358  0.8046
 1027TIP3    H224497   2.599   1.335  14.008  1.0943 -0.1321 -0.5888
 1028TIP3   OH224498   0.061   6.084  11.117 -0.0496  0.3858  0.0399
 1028TIP3    H124499   0.121   6.158  11.116 -0.1892  0.5103 -0.9935
 1028TIP3    H224500   0.116   6.007  11.101 -0.1224  0.4712 -0.6485
 1029TIP3   OH224501   5.478   2.444  13.911  0.3751 -0.3483 -0.1565
 1029TIP3    H124502   5.466   2.537  13.930  0.0271 -0.4246  0.0064
 1029TIP3    H224503   5.482   2.403  13.998 -0.1387 -0.5681 -0.2374
 1030TIP3   OH224504   5.506   0.202  13.096  0.3852  0.1761  0.2388
 1030TIP3    H124505   5.418   0.168  13.115 -0.1395  0.7705 -1.0151
 1030TIP3    H224506   5.548   0.210  13.182 -0.5417 -0.7628  0.7972
 1031TIP3   OH224507   4.929   3.393   4.809 -0.4597  0.0608 -0.6588
 1031TIP3    H124508   4.908   3.302   4.791  1.7210 -0.7336  0.4916
 1031TIP3    H224509   4.863   3.443   4.761 -2.3239 -2.1057 -0.4821
 1032TIP3   OH224510   4.319   3.022  11.397 -0.2512 -0.0697  0.5034
 1032TIP3    H124511   4.340   2.991  11.485 -0.4077  1.0638  0.9562
 1032TIP3    H224512   4.378   3.096  11.383 -0.4067 -0.0837 -0.2334
 1033TIP3   OH224513   5.973   0.388  14.130  0.3729  0.7990  0.0842
 1033TIP3    H124514   5.892   0.426  14.097  1.2678  0.6110 -2.5304
 1033TIP3    H224515   6.039   0.456  14.115  1.3726 -0.4643 -1.5228
 1034TIP3   OH224516   3.130   0.624   2.777 -0.1352  0.3897  0.4977
 1034TIP3    H124517   3.215   0.666   2.792 -0.8429  1.4737  1.5602
 1034TIP3    H224518   3.075   0.692   2.737 -0.2932 -0.5468 -0.9805
 1035TIP3   OH224519   2.925   1.736   0.353  0.1817  0.1325  0.8057
 1035TIP3    H124520   2.846   1.751   0.300  0.4653 -1.7320 -0.2525
 1035TIP3    H224521   2.902   1.662   0.409  0.7465  0.4550  1.4729
 1036TIP3   OH224522   3.511   5.177   0.335 -0.4654  0.0076 -0.4227
 1036TIP3    H124523   3.478   5.090   0.312 -1.6027  0.2614  0.1744
 1036TIP3    H224524   3.434   5.234   0.333 -0.0100  0.7057  0.6173
 1037TIP3   OH224525   1.051   5.070   3.365 -0.4478 -0.5649  0.7769
 1037TIP3    H124526   0.984   5.008   3.336  0.6400 -0.9970 -0.9157
 1037TIP3    H224527   1.075   5.039   3.453 -2.2283 -0.5546  1.3133
 1038TIP3   OH224528   2.197   4.606   3.418 -0.4158 -0.0259  0.3957
 1038TIP3    H124529   2.178   4.588   3.326 -1.3284  0.9756  0.3707
 1038TIP3    H224530   2.196   4.520   3.459 -1.9902 -0.3263 -0.1832
 1039TIP3   OH224531   6.671   2.957  13.175  0.2131  0.0643 -0.2603
 1039TIP3    H124532   6.690   2.887  13.112 -0.7053 -0.2335 -0.2156
 1039TIP3    H224533   6.751   3.010  13.177  1.7929 -2.2031  1.3520
 1040TIP3   OH224534   6.209   0.875   0.684 -0.8348 -0.0400 -0.5132
 1040TIP3    H124535   6.232   0.925   0.763  0.3549 -2.6598  0.9465
 1040TIP3    H224536   6.149   0.807   0.716 -1.3475 -0.3738 -2.1239
 1041TIP3   OH224537   3.279   3.058   4.196  0.0212 -0.2537 -0.0283
 1041TIP3    H124538   3.325   3.126   4.147  2.3555 -0.7916  1.2802
 1041TIP3    H224539   3.226   3.107   4.259  1.3392  0.3970  0.6128
 1042TIP3   OH224540   6.027   2.072  13.787 -0.5228 -0.1896 -0.6243
 1042TIP3    H124541   6.047   2.164  13.807  0.2591 -0.5739  0.4287
 1042TIP3    H224542   6.037   2.066  13.692  0.3165  0.6086 -0.6013
 1043TIP3   OH224543   6.352   6.362   4.462 -0.0104 -0.2143 -0.1097
 1043TIP3    H124544   6.384   6.346   4.550  1.1564  0.4817 -0.3828
 1043TIP3    H224545   6.406   6.306   4.406  1.1409  1.3451 -0.6270
 1044TIP3   OH224546   2.030   3.659  16.717  0.1200  0.2142  0.1092
 1044TIP3    H124547   1.981   3.597  16.771 -1.5216  1.2038 -0.1987
 1044TIP3    H224548   1.997   3.745  16.741 -0.7166  0.7074 -2.4498
 1045TIP3   OH224549   5.741   2.884   3.642 -0.0345 -0.2061  0.1366
 1045TIP3    H124550   5.739   2.892   3.738 -0.6150  1.8046  0.0107
 1045TIP3    H224551   5.651   2.865   3.618 -0.2612  1.0272 -0.0801
 1046TIP3   OH224552   5.408   6.500   3.833  0.0394  0.4557  0.0558
 1046TIP3    H124553   5.350   6.428   3.859  1.4260 -0.0851  1.8811
 1046TIP3    H224554   5.434   6.478   3.744  1.8112 -2.3973  1.1073
 1047TIP3   OH224555   1.399   1.734  15.041  0.1048 -0.2961 -0.2620
 1047TIP3    H124556   1.382   1.691  14.957  1.4395 -2.0189  0.2950
 1047TIP3    H224557   1.354   1.680  15.106  2.6865 -1.5961  0.5685
 1048TIP3   OH224558   0.063   2.071   2.640 -0.0949  0.5560  0.3030
 1048TIP3    H124559   0.080   1.976   2.636 -0.1672  0.5913 -1.3233
 1048TIP3    H224560   0.145   2.109   2.672  0.9500  0.1821 -1.7886
 1049TIP3   OH224561   2.256   0.050  15.735  0.0768  0.4546 -0.2951
 1049TIP3    H124562   2.261   0.056  15.830 -0.5764 -0.1857 -0.2082
 1049TIP3    H224563   2.344   0.023  15.708  1.4901  4.4383 -0.2637
 1050TIP3   OH224564   4.165   4.171   2.709 -0.2805 -0.2267 -0.2447
 1050TIP3    H124565   4.127   4.190   2.624  1.8049  0.8254 -1.0128
 1050TIP3    H224566   4.230   4.102   2.692  1.1592  0.9635  0.1665
 1051TIP3   OH224567   3.134   1.427   1.697  0.3206 -0.1497  0.2075
 1051TIP3    H124568   3.179   1.343   1.700 -0.1838 -0.4508  3.2030
 1051TIP3    H224569   3.205   1.491   1.686  1.0684 -0.8309  0.8845
 1052TIP3   OH224570   6.143   1.630   2.215  0.1649 -0.1805 -0.8420
 1052TIP3    H124571   6.149   1.716   2.175 -0.2245  0.2490 -0.0118
 1052TIP3    H224572   6.193   1.637   2.297 -0.0008 -0.6917 -0.6892
 1053TIP3   OH224573   5.475   5.229   1.434 -0.4178  0.3346  0.0241
 1053TIP3    H124574   5.527   5.286   1.376 -0.3907  0.4600  0.1730
 1053TIP3    H224575   5.407   5.193   1.377 -0.6653  0.8101  0.0152
 1054TIP3   OH224576   4.854   5.217   1.288  0.3316 -0.0408 -0.4932
 1054TIP3    H124577   4.865   5.139   1.343 -1.9647 -2.1681 -2.7738
 1054TIP3    H224578   4.861   5.290   1.349 -1.7580 -2.1917  2.6350
 1055TIP3   OH224579   6.492   2.579   4.300  0.5191  0.4325 -0.0085
 1055TIP3    H124580   6.532   2.551   4.218  0.6196 -0.7528  0.4265
 1055TIP3    H224581   6.429   2.510   4.321  2.3063 -0.6821  2.2152
 1056TIP3   OH224582   3.848   1.962  12.428 -0.4352 -0.5076  0.3818
 1056TIP3    H124583   3.836   2.028  12.498 -0.0367 -0.2360  0.1991
 1056TIP3    H224584   3.930   1.919  12.451 -0.2141 -0.2996 -0.0120
 1057TIP3   OH224585   4.884   2.682  12.387  0.4407  0.1440 -0.3115
 1057TIP3    H124586   4.857   2.761  12.433  0.8189 -0.3085  0.7019
 1057TIP3    H224587   4.821   2.616  12.414 -1.2906  0.5864 -2.9203
 1058TIP3   OH224588   5.881   0.564   1.855  0.0681  0.2864 -1.0070
 1058TIP3    H124589   5.893   0.619   1.778  2.2279 -2.1604 -2.5970
 1058TIP3    H224590   5.966   0.565   1.899 -0.6613  0.3419  0.4954
 1059TIP3   OH224591   4.848   3.531  13.019  0.1275 -0.0514 -0.2334
 1059TIP3    H124592   4.800   3.551  12.939 -0.6653  0.3885  0.3311
 1059TIP3    H224593   4.907   3.605  13.032  2.5992 -1.5384 -2.0596
 1060TIP3   OH224594   5.764   1.864  11.032 -0.1908  0.0456  0.2449
 1060TIP3    H124595   5.802   1.940  10.988 -1.0360  1.1472  1.3376
 1060TIP3    H224596   5.718   1.817  10.963 -1.4297  1.6988 -0.1289
 1061TIP3   OH224597   0.429   3.778   1.063 -0.5997 -1.0720  0.0635
 1061TIP3    H124598   0.364   3.836   1.024  0.7862  2.1212  2.0572
 1061TIP3    H224599   0.398   3.765   1.153  1.5053  0.8426  1.1842
 1062TIP3   OH224600   0.085   2.638   5.836  0.0389  0.3480  0.5337
 1062TIP3    H124601   0.045   2.725   5.824 -1.2632 -0.2799  0.1354
 1062TIP3    H224602   0.179   2.656   5.844 -0.1301  1.7293 -0.2542
 1063TIP3   OH224603   5.887   1.487  11.659  0.3897  0.0768 -1.0560
 1063TIP3    H124604   5.950   1.442  11.715  0.1266  1.3342  0.3218
 1063TIP3    H224605   5.895   1.445  11.573  0.5820 -2.1330 -0.0054
 1064TIP3   OH224606   4.300   0.646  14.102  0.1823  0.0243  0.1255
 1064TIP3    H124607   4.250   0.717  14.143 -1.8991 -1.5525  0.4935
 1064TIP3    H224608   4.279   0.652  14.009  0.5430  0.3088  0.0646
 1065TIP3   OH224609   6.363   4.507  16.656  0.6120  0.0660 -0.1168
 1065TIP3    H124610   6.295   4.561  16.614  0.9615 -0.3320 -1.2226
 1065TIP3    H224611   6.440   4.563  16.660  0.2827  0.4582  0.9785
 1066TIP3   OH224612   3.616   4.395   5.141  0.2740 -0.0302  0.0967
 1066TIP3    H124613   3.673   4.321   5.163  1.7791  0.7353 -1.0681
 1066TIP3    H224614   3.564   4.409   5.221 -0.0581 -2.3000  0.3572
 1067TIP3   OH224615   3.292   0.900   2.329 -0.2832  0.2311 -0.2201
 1067TIP3    H124616   3.237   0.926   2.256 -1.4096 -1.1224  0.0981
 1067TIP3    H224617   3.238   0.915   2.407  0.4822  0.6027  0.2497
 1068TIP3   OH224618   3.406   3.381  11.055  0.3882 -0.0020  0.2155
 1068TIP3    H124619   3.455   3.437  10.995  0.8384 -0.6732 -0.0641
 1068TIP3    H224620   3.321   3.423  11.064  0.2848  0.0823 -0.9527
 1069TIP3   OH224621   5.834   1.215  14.928 -0.1479  0.4960  0.1399
 1069TIP3    H124622   5.922   1.187  14.902 -0.2589  1.2088 -1.1006
 1069TIP3    H224623   5.824   1.301  14.886 -1.2705  0.6062  0.6237
 1070TIP3   OH224624   4.779   0.767  12.986 -0.5743 -0.3446  0.1817
 1070TIP3    H124625   4.844   0.738  13.050 -1.0843 -1.9011  0.0527
 1070TIP3    H224626   4.831   0.801  12.913  0.0458 -0.0402  0.7500
 1071TIP3   OH224627   4.246   6.456  14.685  0.4942  0.0331  0.0653
 1071TIP3    H124628   4.323   6.491  14.640  0.3613 -0.5518 -0.6344
 1071TIP3    H224629   4.178   6.522  14.671  0.4337 -0.1781 -0.6622
 1072TIP3   OH224630   6.484   4.022  13.727 -0.4313 -0.0288 -0.5041
 1072TIP3    H124631   6.443   3.992  13.808 -1.0971  1.6527 -0.1689
 1072TIP3    H224632   6.498   3.942  13.676  0.8171 -1.2574  1.6025
 1073TIP3   OH224633   0.460   3.536  15.391  0.1956 -0.4039  0.9059
 1073TIP3    H124634   0.421   3.591  15.323 -1.9013  1.0239  3.1045
 1073TIP3    H224635   0.424   3.448  15.376  0.9005 -0.4531 -0.6247
 1074TIP3   OH224636   0.687   2.406   5.220 -0.0972  0.5451 -0.0537
 1074TIP3    H124637   0.700   2.313   5.203  0.6292  0.9655 -2.1603
 1074TIP3    H224638   0.610   2.429   5.168 -0.1043  1.1683  0.2233
 1075TIP3   OH224639   3.571   1.555  16.444  0.3827 -0.0155  0.0670
 1075TIP3    H124640   3.629   1.492  16.487  0.8029 -0.0228 -0.5022
 1075TIP3    H224641   3.622   1.590  16.372 -0.4016 -0.1965 -0.5923
 1076TIP3   OH224642   4.166   5.281   5.911  0.3765  0.1558  0.2207
 1076TIP3    H124643   4.134   5.197   5.942 -0.5404  0.7342  0.9135
 1076TIP3    H224644   4.258   5.284   5.939  0.4875 -0.7065 -0.0369
 1077TIP3   OH224645   3.175   1.056  15.309 -0.3556  0.3671 -1.0106
 1077TIP3    H124646   3.080   1.055  15.298 -0.4095 -0.4756 -0.5536
 1077TIP3    H224647   3.210   1.055  15.220 -0.7672  1.5645 -1.2018
 1078TIP3   OH224648   4.160   3.183   4.737 -0.4494  0.1592  0.0231
 1078TIP3    H124649   4.213   3.261   4.752 -0.1248 -0.3595  1.8799
 1078TIP3    H224650   4.078   3.201   4.784 -0.1128 -0.8516  1.0375
 1079TIP3   OH224651   2.565   6.406   5.219 -0.1131  0.2042 -0.6522
 1079TIP3    H124652   2.565   6.502   5.213  0.3367  0.1584 -1.6013
 1079TIP3    H224653   2.500   6.378   5.155 -1.0967 -0.0983  0.4667
 1080TIP3   OH224654   2.511   2.121  16.736 -0.5040 -0.1838 -0.2327
 1080TIP3    H124655   2.480   2.174  16.663  1.1843 -0.7766 -1.4483
 1080TIP3    H224656   2.453   2.045  16.737 -0.8080  0.0426 -0.6800
 1081TIP3   OH224657   0.321   1.471   5.627 -0.7319 -0.1893 -0.2249
 1081TIP3    H124658   0.334   1.383   5.662  0.4607  0.5405  1.3107
 1081TIP3    H224659   0.281   1.520   5.699  0.8554  1.1175 -0.1619
 1082TIP3   OH224660   1.398   6.466   0.819  0.1620  0.1006 -0.2436
 1082TIP3    H124661   1.395   6.556   0.853 -1.3618  0.1522 -0.4403
 1082TIP3    H224662   1.325   6.422   0.863  0.7566 -0.9837 -0.3251
 1083TIP3   OH224663   2.870   4.178  14.168  0.0499  0.0165  0.1658
 1083TIP3    H124664   2.779   4.153  14.155 -0.0467 -0.4602  1.5631
 1083TIP3    H224665   2.901   4.120  14.237  2.4589 -2.1829 -2.5193
 1084TIP3   OH224666   3.544   2.921  16.931 -0.1867 -0.4827  0.2612
 1084TIP3    H124667   3.463   2.884  16.966  0.6755 -0.3555  2.5354
 1084TIP3    H224668   3.557   3.002  16.979  0.9313 -0.1355 -0.5783
 1085TIP3   OH224669   6.576   3.331   5.336  0.3271 -0.2204 -0.0094
 1085TIP3    H124670   6.643   3.265   5.320  2.1669  1.1719  1.3222
 1085TIP3    H224671   6.600   3.404   5.279 -1.0552 -0.2913 -0.7161
 1086TIP3   OH224672   5.599   2.915  14.625 -0.3984  0.3753  0.1627
 1086TIP3    H124673   5.658   2.961  14.685 -0.0529  0.7174 -0.4226
 1086TIP3    H224674   5.513   2.954  14.640 -0.6696 -0.7055  1.6259
 1087TIP3   OH224675   6.672   1.709  13.959 -0.5406  0.3202  0.5325
 1087TIP3    H124676   6.690   1.778  14.024 -1.0343 -0.7101  1.8036
 1087TIP3    H224677   6.635   1.637  14.010  0.6810 -1.2156 -0.6284
 1088TIP3   OH224678   6.682   5.126   0.243  0.1311 -0.3043  0.2973
 1088TIP3    H124679   6.766   5.131   0.197 -0.0064  0.3907  0.1056
 1088TIP3    H224680   6.706   5.127   0.336  0.3096  1.1228  0.2660
 1089TIP3   OH224681   1.158   4.409   3.542  0.2070  0.0531  0.6501
 1089TIP3    H124682   1.079   4.364   3.512 -0.1892  0.3013  1.2957
 1089TIP3    H224683   1.227   4.344   3.535  0.4145  0.4309 -1.9490
 1090TIP3   OH224684   3.141   2.146   4.744 -0.0231  0.4218 -0.6431
 1090TIP3    H124685   3.216   2.131   4.801  0.7129  2.8690 -0.8408
 1090TIP3    H224686   3.065   2.141   4.802  0.4639 -0.0498 -0.0373
 1091TIP3   OH224687   5.006   5.669  15.032  0.2706 -0.5163  0.5578
 1091TIP3    H124688   5.036   5.587  15.072  0.5082 -0.0156  1.4379
 1091TIP3    H224689   5.062   5.682  14.956 -0.1405 -1.4537  0.0838
 1092TIP3   OH224690   5.414   1.621   4.114 -0.4344  0.3157 -0.1627
 1092TIP3    H124691   5.422   1.667   4.031  1.6749 -0.6469 -0.5576
 1092TIP3    H224692   5.324   1.588   4.114 -0.4167  0.1139 -2.1985
 1093TIP3   OH224693   0.683   1.235   4.443 -0.3216  0.0898 -0.1845
 1093TIP3    H124694   0.727   1.298   4.500  1.2987  0.2727 -1.5299
 1093TIP3    H224695   0.590   1.253   4.454  0.0148  1.1912  1.1423
 1094TIP3   OH224696   5.274   0.549   4.059  0.0963 -0.4891 -0.1702
 1094TIP3    H124697   5.306   0.552   3.969 -0.1512  0.4380 -0.2390
 1094TIP3    H224698   5.214   0.474   4.061  0.6048 -0.9151 -0.5959
 1095TIP3   OH224699   0.642   2.036   2.976 -0.1228  0.6353  0.0900
 1095TIP3    H124700   0.547   2.032   2.991 -0.1568 -3.1008 -0.0095
 1095TIP3    H224701   0.679   2.054   3.063 -0.8888  0.7398  0.4030
 1096TIP3   OH224702   6.708   3.786   5.162 -0.8333  0.7150 -0.0899
 1096TIP3    H124703   6.621   3.764   5.129 -1.1947  2.6500 -0.5482
 1096TIP3    H224704   6.741   3.705   5.199 -1.6385 -0.8149 -2.5089
 1097TIP3   OH224705   0.733   2.321   0.432  0.2479  0.1827  0.1671
 1097TIP3    H124706   0.785   2.268   0.492 -0.9897 -0.2208  0.9108
 1097TIP3    H224707   0.709   2.262   0.361  2.8466  0.9873 -1.5279
 1098TIP3   OH224708   5.937   4.647   2.843  0.3855 -0.1680 -0.1044
 1098TIP3    H124709   5.858   4.696   2.820  2.5000  2.3581 -2.6486
 1098TIP3    H224710   5.949   4.665   2.937 -1.7108 -0.2081  0.2272
 1099TIP3   OH224711   1.660   6.179   1.124 -0.6056 -0.1977 -0.3957
 1099TIP3    H124712   1.701   6.104   1.081  0.1242  0.3952 -0.7576
 1099TIP3    H224713   1.568   6.153   1.134 -0.5832 -0.7368 -1.4320
 1100TIP3   OH224714   5.043   4.591   0.630  0.3104 -0.3601  0.1654
 1100TIP3    H124715   5.010   4.659   0.689  0.4147  0.1688 -0.3795
 1100TIP3    H224716   4.981   4.590   0.557 -0.4498 -1.7877  0.7969
 1101TIP3   OH224717   1.563   3.549   0.680  0.0832 -0.0565 -0.2832
 1101TIP3    H124718   1.598   3.499   0.753 -0.2867  1.0219  0.6591
 1101TIP3    H224719   1.473   3.518   0.670 -0.0350  0.1727  0.0694
 1102TIP3   OH224720   0.888   0.407  14.708  0.5182 -0.1737  0.2095
 1102TIP3    H124721   0.838   0.468  14.762 -0.5492 -3.6782  3.6335
 1102TIP3    H224722   0.966   0.388  14.760  1.0641 -1.3551 -0.9910
 1103TIP3   OH224723   4.622   4.273   4.630 -0.3713 -0.0976  0.9004
 1103TIP3    H124724   4.635   4.363   4.603 -2.7182  0.5602  1.6913
 1103TIP3    H224725   4.696   4.225   4.593  0.3484  1.9499 -0.4450
 1104TIP3   OH224726   2.145   0.427   1.857 -0.8383  0.1038 -0.4215
 1104TIP3    H124727   2.139   0.486   1.782 -0.9691  2.2698  1.1890
 1104TIP3    H224728   2.054   0.412   1.882 -0.7708 -0.0140 -0.2458
 1105TIP3   OH224729   0.874   3.733   2.639  0.1938  0.7132 -1.2017
 1105TIP3    H124730   0.929   3.809   2.618  0.3830  0.2611 -2.3963
 1105TIP3    H224731   0.846   3.700   2.554 -0.3914 -0.1988 -0.6636
 1106TIP3   OH224732   5.100   0.267   5.546  0.1348  0.1692 -0.2194
 1106TIP3    H124733   5.191   0.286   5.524  0.4022 -1.3588 -0.5115
 1106TIP3    H224734   5.048   0.321   5.486  0.8135  1.6726  0.4899
 1107TIP3   OH224735   3.080   0.034  11.489  0.0444  0.0479 -0.5248
 1107TIP3    H124736   3.087  -0.002  11.577  2.2963  0.4552 -0.4585
 1107TIP3    H224737   3.092  -0.041  11.430  2.2101  0.2129 -0.3989
 1108TIP3   OH224738   1.777   3.247   1.166 -0.2281  0.4883 -0.4640
 1108TIP3    H124739   1.697   3.278   1.122  0.0390 -1.4009 -2.4569
 1108TIP3    H224740   1.848   3.295   1.123 -0.2153  2.5129  1.6244
 1109TIP3   OH224741   4.187   0.472   1.403  0.2664  0.3216 -0.6130
 1109TIP3    H124742   4.092   0.464   1.402  0.3544 -1.3451  0.1763
 1109TIP3    H224743   4.206   0.527   1.479 -0.0090 -1.7009  1.0176
 1110TIP3   OH224744   2.588   1.721   2.490 -0.0986 -0.2398  0.9814
 1110TIP3    H124745   2.599   1.814   2.470  0.9090 -0.7652 -1.3183
 1110TIP3    H224746   2.677   1.687   2.494 -0.4603 -1.1531  1.5978
 1111TIP3   OH224747   0.131   2.023  13.231  0.0905 -0.2666  0.4964
 1111TIP3    H124748   0.065   1.980  13.286 -0.5221 -1.3766 -1.0246
 1111TIP3    H224749   0.145   1.962  13.159  2.0351  0.4302  0.2243
 1112TIP3   OH224750   3.228   3.496   2.717  0.2496 -0.1538  0.2850
 1112TIP3    H124751   3.191   3.514   2.803 -0.0190  0.9318 -0.0395
 1112TIP3    H224752   3.155   3.508   2.657  0.8892  1.0923 -0.2762
 1113TIP3   OH224753   2.001   5.672   5.193 -0.0433 -0.1077 -0.2028
 1113TIP3    H124754   2.085   5.647   5.155 -0.2484 -1.7542  0.3330
 1113TIP3    H224755   2.008   5.645   5.285 -0.4073  1.6780  0.4051
 1114TIP3   OH224756   4.276   3.577   4.541  0.3810  0.0866  0.2774
 1114TIP3    H124757   4.217   3.571   4.465  0.0760 -0.9238  0.5771
 1114TIP3    H224758   4.357   3.537   4.512 -0.2011 -1.6258  0.9047
 1115TIP3   OH224759   5.209   1.661  14.303  0.3010 -0.2997  0.2542
 1115TIP3    H124760   5.272   1.696  14.239  2.3340  0.8791  2.7206
 1115TIP3    H224761   5.250   1.581  14.335  1.2305  1.0347  2.6673
 1116TIP3   OH224762   0.753   0.762   1.872 -0.2226  0.5385 -0.4069
 1116TIP3    H124763   0.741   0.838   1.928 -0.0201  2.1358 -2.4335
 1116TIP3    H224764   0.815   0.706   1.920  1.1794  2.5680  0.2895
 1117TIP3   OH224765   6.413   0.667  14.781  0.3611 -0.0362  0.3448
 1117TIP3    H124766   6.328   0.708  14.768  0.5822 -0.0417 -1.2692
 1117TIP3    H224767   6.416   0.648  14.875 -1.9793 -1.2809  0.2448
 1118TIP3   OH224768   1.666   6.434  16.139  0.1412 -0.2426 -0.3527
 1118TIP3    H124769   1.744   6.378  16.133  0.2343  0.0089 -2.0840
 1118TIP3    H224770   1.595   6.373  16.159  0.2771 -1.0029 -2.0266
 1119TIP3   OH224771   1.283   4.918   0.821  0.3492 -0.7569 -0.2353
 1119TIP3    H124772   1.336   4.848   0.782 -0.3547 -1.1180 -0.5483
 1119TIP3    H224773   1.246   4.879   0.900 -0.4937 -0.9270 -0.7020
 1120TIP3   OH224774   2.966   3.960  12.347  0.1370 -0.0724 -0.2311
 1120TIP3    H124775   2.887   3.961  12.293  0.2349  1.2592 -0.3743
 1120TIP3    H224776   3.029   3.910  12.295  0.2421  1.2023 -1.3891
 1121TIP3   OH224777   5.912   4.780   3.703 -0.2683  0.1907 -0.0284
 1121TIP3    H124778   5.992   4.813   3.743 -0.8854  0.3352  1.1366
 1121TIP3    H224779   5.869   4.730   3.772 -0.6462 -0.8361 -0.9704
 1122TIP3   OH224780   2.938   4.842  16.999 -0.2684  0.6113 -0.3121
 1122TIP3    H124781   2.994   4.766  16.983 -0.0374  0.6507  0.2720
 1122TIP3    H224782   2.896   4.823  17.083 -2.2966 -0.1172 -1.4236
 1123TIP3   OH224783   5.920   3.441  14.723 -0.3781 -0.3464  0.2026
 1123TIP3    H124784   5.932   3.349  14.700 -0.3309 -0.5316  0.9449
 1123TIP3    H224785   5.900   3.440  14.817  3.4463  0.6549  1.1709
 1124TIP3   OH224786   2.798   0.531   3.133  0.0977  0.1812 -0.1513
 1124TIP3    H124787   2.828   0.520   3.223  0.9957 -0.4252 -0.5128
 1124TIP3    H224788   2.821   0.449   3.090  0.3548  0.7537 -1.1240
 1125TIP3   OH224789   4.438   5.543   5.217 -0.7305 -0.1780 -0.0137
 1125TIP3    H124790   4.434   5.635   5.192  0.3097 -0.0915  0.0832
 1125TIP3    H224791   4.454   5.496   5.135 -2.3476 -0.4023 -0.2355
 1126TIP3   OH224792   4.457   3.852  10.857  0.1527 -0.4910  0.3592
 1126TIP3    H124793   4.366   3.850  10.827  0.0730 -0.5276  0.5997
 1126TIP3    H224794   4.479   3.945  10.860 -0.1306 -0.4379  1.0463
 1127TIP3   OH224795   5.259   5.626   3.267 -0.1198 -0.0581 -0.6620
 1127TIP3    H124796   5.185   5.650   3.211  0.1467  1.5589 -0.3729
 1127TIP3    H224797   5.317   5.576   3.211 -1.4194 -1.3853 -0.8926
 1128TIP3   OH224798   4.290   2.611  15.232 -0.3297  0.1217 -0.6051
 1128TIP3    H124799   4.375   2.653  15.228 -0.4505  0.6137  1.2777
 1128TIP3    H224800   4.236   2.660  15.170  0.1960  1.1441 -0.2681
 1129TIP3   OH224801   1.528   2.309   2.942 -0.3102  0.3131 -0.2395
 1129TIP3    H124802   1.590   2.236   2.940 -0.6174  0.0518 -1.4569
 1129TIP3    H224803   1.582   2.386   2.957 -0.0334 -0.1977  1.5855
 1130TIP3   OH224804   0.404   6.636   3.245 -0.7602  0.0432  0.0800
 1130TIP3    H124805   0.340   6.706   3.255 -1.2357 -0.5233  1.2616
 1130TIP3    H224806   0.385   6.576   3.317  1.2753 -0.0017  0.6395
 1131TIP3   OH224807   5.945   3.307   5.330 -0.3392 -1.0902  0.4482
 1131TIP3    H124808   5.916   3.335   5.243 -0.6672 -1.6384  0.3743
 1131TIP3    H224809   5.893   3.359   5.391  0.5343 -0.0398  0.3363
 1132TIP3   OH224810   1.438   3.334   4.428  0.6739 -0.4243 -0.4271
 1132TIP3    H124811   1.451   3.407   4.489 -0.3918  0.2934 -1.0327
 1132TIP3    H224812   1.487   3.358   4.350 -1.5930  0.8189 -1.5363
 1133TIP3   OH224813   4.269   3.080   2.737 -0.8985 -0.0063  0.7835
 1133TIP3    H124814   4.346   3.029   2.712  0.2719  1.4042  1.4304
 1133TIP3    H224815   4.205   3.061   2.668 -0.1361 -1.4953  0.4380
 1134TIP3   OH224816   2.247   3.393   5.223  0.1373  0.3027 -0.0121
 1134TIP3    H124817   2.292   3.464   5.268 -2.7835  2.8337 -0.7677
 1134TIP3    H224818   2.260   3.410   5.130 -0.8579  0.0980 -0.2107
 1135TIP3   OH224819   0.213   1.930   2.271 -0.0375  0.2577 -0.3628
 1135TIP3    H124820   0.133   1.918   2.322  1.3136 -0.6797  1.6860
 1135TIP3    H224821   0.265   1.991   2.322 -0.3744  2.8711 -2.9198
 1136TIP3   OH224822   0.854   0.668  13.020  0.2946  0.3354 -0.0475
 1136TIP3    H124823   0.898   0.609  13.081 -0.4743 -0.1239  0.0755
 1136TIP3    H224824   0.769   0.686  13.062 -0.2187  0.0615 -0.9476
 1137TIP3   OH224825   1.466   2.857  13.312  0.3611  0.2498  0.1124
 1137TIP3    H124826   1.499   2.802  13.241  2.4338  1.7358 -0.1667
 1137TIP3    H224827   1.371   2.853  13.303  0.4656 -2.4261 -0.5050
 1138TIP3   OH224828   2.685   1.120   4.878  0.0198 -0.5411  0.0338
 1138TIP3    H124829   2.740   1.153   4.949  0.3328 -0.0983 -0.4131
 1138TIP3    H224830   2.746   1.083   4.814 -0.1154  0.8638 -0.9409
 1139TIP3   OH224831   6.640   6.113   2.332 -0.1121 -0.3297  0.0296
 1139TIP3    H124832   6.680   6.027   2.328  0.1687 -0.1993  0.0517
 1139TIP3    H224833   6.610   6.130   2.242 -1.4206 -1.0432  0.3066
 1140TIP3   OH224834   2.190   6.729  16.613 -0.1925  0.1491  0.2287
 1140TIP3    H124835   2.213   6.638  16.632  1.5242  0.8658  1.8732
 1140TIP3    H224836   2.273   6.771  16.591 -1.0079  1.2901 -0.7832
 1141TIP3   OH224837   5.732   5.163  13.398 -0.0705  0.1992 -0.0529
 1141TIP3    H124838   5.638   5.169  13.415  0.2293  0.7247  1.6484
 1141TIP3    H224839   5.751   5.069  13.404 -0.4084  0.1369  0.0934
 1142TIP3   OH224840   4.050   1.999   1.326 -0.2790  0.0696  1.1253
 1142TIP3    H124841   3.992   1.941   1.275  0.9469 -0.8348  0.7139
 1142TIP3    H224842   4.121   2.020   1.266 -0.2686  1.3378  1.5612
 1143TIP3   OH224843   1.951   1.532   5.273 -0.0070 -0.2250 -0.5209
 1143TIP3    H124844   1.953   1.447   5.230  0.4726 -0.3799 -0.1975
 1143TIP3    H224845   1.963   1.513   5.366 -1.1039  0.1019 -0.2991
 1144TIP3   OH224846   1.941   3.654  15.142  0.3714 -0.0699  0.0032
 1144TIP3    H124847   1.946   3.561  15.164 -0.5539 -0.3435 -0.8832
 1144TIP3    H224848   2.001   3.664  15.068  0.1490 -0.0526 -0.1758
 1145TIP3   OH224849   3.621   5.430  11.070  0.3109  0.0248  0.0017
 1145TIP3    H124850   3.561   5.483  11.124  1.4141  0.9280  0.3884
 1145TIP3    H224851   3.707   5.442  11.111  0.8837 -0.6595 -0.9595
 1146TIP3   OH224852   1.657   4.881   0.757 -0.3138  0.3924  0.3135
 1146TIP3    H124853   1.716   4.860   0.829 -0.2378 -0.0335  0.1281
 1146TIP3    H224854   1.659   4.977   0.752  0.2421  0.3878  0.4091
 1147TIP3   OH224855   6.550   4.285   5.471  0.4979  0.1429 -0.2795
 1147TIP3    H124856   6.476   4.330   5.513 -0.4046 -0.2908 -1.3599
 1147TIP3    H224857   6.516   4.198   5.449  1.3242 -0.0531 -0.8246
 1148TIP3   OH224858   1.017   2.055  10.639 -0.0058  0.0373 -0.4915
 1148TIP3    H124859   0.924   2.049  10.662 -0.2936 -1.2672 -1.8583
 1148TIP3    H224860   1.047   1.964  10.635  1.3150  0.4388 -0.1798
 1149TIP3   OH224861   0.158   5.192   3.733 -0.0414 -0.0408 -0.5271
 1149TIP3    H124862   0.140   5.107   3.773 -1.8938  1.4065  2.0111
 1149TIP3    H224863   0.193   5.246   3.804 -0.3822  1.7720 -1.6471
 1150TIP3   OH224864   1.856   4.572  13.348 -0.1682  0.1714  0.0928
 1150TIP3    H124865   1.931   4.578  13.289  0.5415 -0.5159  0.9046
 1150TIP3    H224866   1.789   4.626  13.306  0.0764 -0.8436 -1.7034
 1151TIP3   OH224867   5.315   2.584  14.804  0.5718 -0.5139  0.3916
 1151TIP3    H124868   5.374   2.637  14.858 -0.4980 -0.0196  1.1124
 1151TIP3    H224869   5.228   2.621  14.820 -0.2872 -2.7500  1.2784
 1152TIP3   OH224870   1.450   6.661   3.045  0.3524  0.1280  0.1282
 1152TIP3    H124871   1.428   6.579   3.002  2.0234 -0.9785  1.3027
 1152TIP3    H224872   1.365   6.700   3.066 -0.4749 -1.5855  0.1280
 1153TIP3   OH224873   2.163   1.721  12.023  0.0818  0.2406  0.0889
 1153TIP3    H124874   2.218   1.799  12.021 -0.2915  0.5447  1.1085
 1153TIP3    H224875   2.087   1.744  11.968  0.9983 -0.2229 -1.4140
 1154TIP3   OH224876   0.387   0.908   1.723  0.0896  0.1389  0.1240
 1154TIP3    H124877   0.443   0.970   1.770 -1.1050 -0.6078  2.7500
 1154TIP3    H224878   0.443   0.832   1.708  0.4004  0.2224  0.7817
 1155TIP3   OH224879   0.922   2.020  14.850  0.3188  0.4487 -0.5069
 1155TIP3    H124880   0.979   2.091  14.881 -1.0933  0.5928  1.9804
 1155TIP3    H224881   0.982   1.946  14.835  1.4523  1.3164 -0.4503
 1156TIP3   OH224882   3.976   1.596   1.851  0.5977 -0.3452 -0.3268
 1156TIP3    H124883   4.018   1.529   1.797  0.7268  0.1236 -0.8247
 1156TIP3    H224884   3.909   1.634   1.794  0.2792 -0.2983  0.0760
 1157TIP3   OH224885   1.401   3.290  16.273 -0.0605  0.7154  0.2552
 1157TIP3    H124886   1.315   3.260  16.245  0.4881 -0.3398 -0.3801
 1157TIP3    H224887   1.402   3.384  16.252 -1.1782  0.8188  0.6226
 1158TIP3   OH224888   5.272   3.017   0.317 -0.5048 -0.6250 -0.0933
 1158TIP3    H124889   5.324   2.946   0.280 -0.9821 -0.6799 -0.6774
 1158TIP3    H224890   5.245   3.069   0.242  1.6669  1.4874  0.4601
 1159TIP3   OH224891   0.798   0.090  13.148 -0.3605 -0.0827  0.2150
 1159TIP3    H124892   0.740   0.151  13.194  0.2753  0.6142  0.0981
 1159TIP3    H224893   0.754   0.073  13.065 -0.3705  0.4836  0.1054
 1160TIP3   OH224894   1.930   2.461   6.129  0.3297 -0.0271  0.7940
 1160TIP3    H124895   1.924   2.470   6.034  0.8698 -1.8775  0.5463
 1160TIP3    H224896   1.843   2.430   6.156  0.0459  0.8880  0.9898
 1161TIP3   OH224897   5.553   1.993  16.836  0.3677  0.0601 -0.3599
 1161TIP3    H124898   5.576   1.924  16.899 -1.4435 -1.2517 -1.0527
 1161TIP3    H224899   5.459   2.007  16.849  0.2944  0.9393 -1.6618
 1162TIP3   OH224900   0.447   5.247  14.143 -0.1294 -0.0855  0.0806
 1162TIP3    H124901   0.470   5.207  14.059 -1.0960 -1.7410  0.5572
 1162TIP3    H224902   0.372   5.303  14.122  0.0661  0.0486 -0.2785
 1163TIP3   OH224903   3.433   5.450  15.172  0.0136  0.2945 -0.1478
 1163TIP3    H124904   3.351   5.401  15.173 -0.2025  0.5905 -1.3993
 1163TIP3    H224905   3.410   5.535  15.133  0.5590  1.0775  1.1714
 1164TIP3   OH224906   5.289   5.753   1.668  0.5785  1.3057 -0.0189
 1164TIP3    H124907   5.293   5.660   1.644 -0.9176  1.6589 -1.8441
 1164TIP3    H224908   5.330   5.798   1.594  0.9621  2.1487  0.6905
 1165TIP3   OH224909   5.079   6.615  16.677  0.3343 -0.1391 -0.4087
 1165TIP3    H124910   5.041   6.606  16.589 -0.4854 -1.8431  0.0872
 1165TIP3    H224911   5.004   6.638  16.733  0.7805  0.5477 -0.0766
 1166TIP3   OH224912   6.030   6.471   1.318  0.0360  0.0668  0.1990
 1166TIP3    H124913   6.016   6.377   1.327 -0.1153  0.0933  0.2309
 1166TIP3    H224914   6.125   6.481   1.322  0.0477 -0.0750  0.2917
 1167TIP3   OH224915   2.238   5.170   4.150  0.0131  0.0719  0.0764
 1167TIP3    H124916   2.291   5.093   4.171 -1.9276 -0.5815  3.4611
 1167TIP3    H224917   2.156   5.134   4.115  0.9626  0.9651 -3.3485
 1168TIP3   OH224918   2.219   4.363   1.170 -0.3618  0.6716  0.2035
 1168TIP3    H124919   2.155   4.425   1.134  0.1973  1.9858  1.3695
 1168TIP3    H224920   2.304   4.404   1.156 -0.0212  0.4556  1.5138
 1169TIP3   OH224921   0.173   3.674  13.600 -0.2512 -0.0596  0.6683
 1169TIP3    H124922   0.159   3.624  13.520  1.4083 -1.1648  1.0190
 1169TIP3    H224923   0.184   3.607  13.668 -1.9903  0.8509  1.9180
 1170TIP3   OH224924   0.334   3.724  14.725 -0.6304 -0.6006 -0.2286
 1170TIP3    H124925   0.260   3.666  14.705 -1.4747  1.0155 -2.0622
 1170TIP3    H224926   0.355   3.767  14.642 -0.3160  2.0228  1.0975
 1171TIP3   OH224927   0.082   2.273  15.693 -0.0626  0.5259  0.8285
 1171TIP3    H124928   0.056   2.186  15.721  2.1482 -0.4278  0.1206
 1171TIP3    H224929   0.083   2.269  15.597  2.3479  0.5317  0.7969
 1172TIP3   OH224930   0.096   0.498   4.338  0.2446 -0.9870 -0.8548
 1172TIP3    H124931   0.130   0.538   4.418  0.9437 -2.0633 -0.6024
 1172TIP3    H224932   0.159   0.429   4.316 -0.1043 -0.9246 -2.1549
 1173TIP3   OH224933   0.655   5.200  14.848 -0.2569  0.7128 -0.3541
 1173TIP3    H124934   0.579   5.256  14.831 -0.6790 -0.0029 -0.8385
 1173TIP3    H224935   0.620   5.111  14.851  0.6600  0.2970 -1.2983
 1174TIP3   OH224936   1.945   2.111   6.062 -0.3445 -0.1230 -0.3463
 1174TIP3    H124937   2.021   2.054   6.073  0.1417  0.1772 -1.8237
 1174TIP3    H224938   1.940   2.162   6.142  0.2302 -1.0472  0.2956
 1175TIP3   OH224939   2.494   0.549  12.865  0.1105  0.1004 -0.3333
 1175TIP3    H124940   2.457   0.595  12.940  0.5536 -0.5668  0.3069
 1175TIP3    H224941   2.538   0.473  12.902 -0.1462 -0.5545 -1.3243
 1176TIP3   OH224942   5.962   4.084  15.158 -0.5724 -0.2141 -0.2529
 1176TIP3    H124943   5.968   4.084  15.062  0.3362  1.3962 -0.2274
 1176TIP3    H224944   6.052   4.073  15.188 -0.7098  0.3605  0.3969
 1177TIP3   OH224945   0.599   1.064  11.416  0.2761 -0.2100  0.4864
 1177TIP3    H124946   0.598   0.969  11.412 -1.2250 -0.2858  1.7414
 1177TIP3    H224947   0.691   1.088  11.404  0.4572 -1.6784 -1.7397
 1178TIP3   OH224948   5.389   3.679   0.423  0.2078 -0.1498 -0.1416
 1178TIP3    H124949   5.346   3.700   0.506 -1.0368 -1.0302 -0.5319
 1178TIP3    H224950   5.482   3.690   0.441 -0.0892  0.4000  1.1605
 1179TIP3   OH224951   5.107   5.484  16.574 -0.8516  0.1126 -0.4826
 1179TIP3    H124952   5.200   5.493  16.555 -0.8153  2.2679  0.4657
 1179TIP3    H224953   5.087   5.393  16.553  1.2760 -0.1876 -1.4611
 1180TIP3   OH224954   2.544   2.646   2.112  0.0431  0.1954  0.0284
 1180TIP3    H124955   2.602   2.617   2.042  0.8939  0.5430  0.5734
 1180TIP3    H224956   2.483   2.574   2.125  0.4334 -0.2268 -0.4631
 1181TIP3   OH224957   3.091   5.382   2.091  0.3141 -0.3976  0.0729
 1181TIP3    H124958   3.079   5.472   2.124  1.8823 -0.0246 -0.2658
 1181TIP3    H224959   3.079   5.389   1.997 -0.3368 -0.7050  0.1306
 1182TIP3   OH224960   6.326   4.844  13.872 -0.4876 -0.5914 -0.3320
 1182TIP3    H124961   6.417   4.843  13.842 -0.8771 -1.0187 -1.6069
 1182TIP3    H224962   6.322   4.913  13.937  0.8352 -0.8315  0.0281
 1183TIP3   OH224963   2.767   0.339  12.221  0.0472  0.2832 -0.5862
 1183TIP3    H124964   2.735   0.260  12.265  0.0384 -0.8948 -2.6040
 1183TIP3    H224965   2.750   0.410  12.284 -0.3137 -1.2444  1.1121
 1184TIP3   OH224966   3.694   2.535   1.736  0.4573 -0.0680  0.5590
 1184TIP3    H124967   3.744   2.614   1.715 -0.6166  0.6267  0.5742
 1184TIP3    H224968   3.609   2.567   1.765 -0.6202 -1.2636 -1.0795
 1185TIP3   OH224969   6.299   1.567   5.459  0.2615  0.1061 -0.0983
 1185TIP3    H124970   6.342   1.652   5.468  2.1245 -0.5127 -2.3051
 1185TIP3    H224971   6.227   1.583   5.398  1.6438 -0.1516 -1.8765
 1186TIP3   OH224972   1.312   3.580   3.813  0.6794  0.5454  0.2283
 1186TIP3    H124973   1.269   3.517   3.872  0.1812 -0.1897 -0.8896
 1186TIP3    H224974   1.298   3.665   3.854  0.2897  0.0583  1.1390
 1187TIP3   OH224975   5.501   2.402   0.807 -0.2807  0.5330  0.3109
 1187TIP3    H124976   5.462   2.347   0.739 -0.1525  0.4767  0.2835
 1187TIP3    H224977   5.486   2.492   0.777  0.2150  0.5001 -0.0346
 1188TIP3   OH224978   5.100   2.223   2.629 -0.1982  0.1415  0.1559
 1188TIP3    H124979   5.117   2.141   2.583  0.0787  0.5001 -0.3874
 1188TIP3    H224980   5.183   2.270   2.625 -0.4326  0.5652  0.2422
 1189TIP3   OH224981   4.089   0.524  15.255  0.5125 -0.4828  0.5441
 1189TIP3    H124982   4.156   0.592  15.265 -0.2587  0.1997  1.2276
 1189TIP3    H224983   4.138   0.441  15.265  1.7306 -0.1459 -1.8919
 1190TIP3   OH224984   2.803   4.048   4.359 -0.2253  0.6305 -0.2178
 1190TIP3    H124985   2.807   4.035   4.264 -0.5951  1.4184 -0.3485
 1190TIP3    H224986   2.752   3.973   4.390  0.2923  0.1171 -0.5816
 1191TIP3   OH224987   5.916   1.418   5.481  0.5799  0.2433 -0.1649
 1191TIP3    H124988   5.986   1.481   5.465  1.6983 -0.4648  1.6443
 1191TIP3    H224989   5.939   1.376   5.565 -1.4829 -0.7223 -0.0044
 1192TIP3   OH224990   2.342   2.758  14.757  0.0476 -0.6277  0.6803
 1192TIP3    H124991   2.317   2.678  14.711  2.8656 -1.3844  0.2723
 1192TIP3    H224992   2.360   2.821  14.688  0.8339 -0.6453  0.8576
 1193TIP3   OH224993   2.738   2.117   4.733  0.5255 -0.1726  0.1876
 1193TIP3    H124994   2.788   2.166   4.669  1.7152 -0.9115  0.5262
 1193TIP3    H224995   2.668   2.075   4.682 -0.1433  1.3320 -0.1907
 1194TIP3   OH224996   0.443   1.532   5.197 -0.1615  0.0693  0.3549
 1194TIP3    H124997   0.510   1.575   5.249  1.3240 -1.6751  0.0064
 1194TIP3    H224998   0.362   1.546   5.245  0.7619  0.5971  1.8199
 1195TIP3   OH224999   5.035   1.614   0.345  0.7700 -0.1332 -1.1926
 1195TIP3    H125000   4.946   1.618   0.381  0.4624 -0.1289 -1.9262
 1195TIP3    H225001   5.022   1.611   0.250  1.4560 -2.4422 -1.2891
 1196TIP3   OH225002   2.329   0.028  15.226 -0.6380  0.0298  0.1619
 1196TIP3    H125003   2.283   0.013  15.144 -0.9256  0.3663  0.2630
 1196TIP3    H225004   2.401  -0.035  15.224 -1.0467 -0.4343 -0.0338
 1197TIP3   OH225005   1.387   4.181  11.282 -0.1639 -0.0725 -0.4176
 1197TIP3    H125006   1.327   4.254  11.298  2.1582  2.3262 -1.8873
 1197TIP3    H225007   1.443   4.178  11.359  0.3818  0.4043 -0.7867
 1198TIP3   OH225008   1.414   6.290   3.092  0.3358 -0.2650 -1.1425
 1198TIP3    H125009   1.397   6.232   3.166 -1.6170  0.1440 -1.2112
 1198TIP3    H225010   1.443   6.372   3.132  0.6854 -0.4981 -0.9129
 1199TIP3   OH225011   5.846   1.617   6.438 -0.1268 -0.0123  0.2114
 1199TIP3    H125012   5.881   1.581   6.356 -2.1980  0.5076 -0.9948
 1199TIP3    H225013   5.859   1.712   6.430  1.4681 -0.0893  1.4434
 1200TIP3   OH225014   3.847   1.096  11.820  0.1917 -0.3323 -0.2284
 1200TIP3    H125015   3.884   1.054  11.743 -0.8109  0.1854 -1.0092
 1200TIP3    H225016   3.764   1.132  11.791  0.3978  1.0420  0.7530
 1201TIP3   OH225017   0.831   6.578  13.199 -0.1840 -0.0160  0.4257
 1201TIP3    H125018   0.793   6.666  13.199  0.7608  0.4226  1.5044
 1201TIP3    H225019   0.880   6.573  13.282  1.1890 -0.9475 -0.4022
 1202TIP3   OH225020   5.220   2.436  17.199  0.1160  0.2269  0.4324
 1202TIP3    H125021   5.213   2.530  17.213  0.2732  0.0753  1.5652
 1202TIP3    H225022   5.152   2.417  17.133  0.4523  1.1980 -0.2139
 1203TIP3   OH225023   5.402   3.043  17.241  0.2474 -0.1801  0.3366
 1203TIP3    H125024   5.479   3.096  17.220  0.6598 -1.4171 -1.4868
 1203TIP3    H225025   5.437   2.968  17.290 -0.0245  0.0224  0.8524
 1204TIP3   OH225026   3.695   5.675   5.744 -0.5255 -0.1519 -0.2043
 1204TIP3    H125027   3.616   5.727   5.761 -0.0809  0.0175  1.5419
 1204TIP3    H225028   3.765   5.723   5.787  0.2998 -0.9972 -0.5811
 1205TIP3   OH225029   5.462   2.468  11.516  0.0817  0.2472  0.1559
 1205TIP3    H125030   5.410   2.416  11.576 -0.7451  0.7750 -0.0860
 1205TIP3    H225031   5.528   2.407  11.482  1.1562  0.1593  2.2472
 1206TIP3   OH225032   3.096   0.130   3.298  0.1743  0.6866  0.0930
 1206TIP3    H125033   3.102   0.141   3.393 -0.4028  1.8272  0.0062
 1206TIP3    H225034   3.177   0.085   3.274 -0.3268 -0.9736  1.3051
 1207TIP3   OH225035   3.179   3.290   3.362 -0.2237  0.0803  0.1391
 1207TIP3    H125036   3.217   3.378   3.362  0.3915 -0.1205  2.5186
 1207TIP3    H225037   3.085   3.304   3.376 -0.0270  0.3748  1.2897
 1208TIP3   OH225038   4.982   6.497  11.692  0.0002 -0.7367  0.5618
 1208TIP3    H125039   4.910   6.547  11.654 -0.0749 -0.1097  1.4946
 1208TIP3    H225040   4.946   6.459  11.772  1.2636  1.4013  2.2468
 1209TIP3   OH225041   2.023   3.918  13.199 -0.2582 -0.1761 -0.0626
 1209TIP3    H125042   2.107   3.895  13.158 -0.0091  0.4811  0.0689
 1209TIP3    H225043   1.995   3.998  13.154 -0.2591  0.2394  0.6586
 1210TIP3   OH225044   4.638   3.052  11.978  0.2875  0.6888  0.3143
 1210TIP3    H125045   4.583   2.975  11.969  1.0671 -0.0348  1.5701
 1210TIP3    H225046   4.682   3.060  11.893 -0.4905  0.3047 -0.1313
 1211TIP3   OH225047   4.898   2.880  14.659 -0.0477  0.1129  0.2892
 1211TIP3    H125048   4.876   2.972  14.668 -0.4389  0.2265 -1.4409
 1211TIP3    H225049   4.969   2.879  14.595  0.4498 -0.7435  0.8337
 1212TIP3   OH225050   0.396   6.152   1.969  0.3253  0.1206 -0.1716
 1212TIP3    H125051   0.372   6.142   1.877 -2.0117 -0.6105  0.4371
 1212TIP3    H225052   0.314   6.177   2.013  1.4185  0.6841  1.6914
 1213TIP3   OH225053   5.872   5.484  17.122 -0.7207 -0.0989 -0.1307
 1213TIP3    H125054   5.869   5.405  17.175  0.5579 -0.8710 -1.1355
 1213TIP3    H225055   5.925   5.459  17.045 -0.8394  1.5364 -0.7849
 1214TIP3   OH225056   4.370   5.053  14.799  0.5559 -0.0918  0.0799
 1214TIP3    H125057   4.316   5.131  14.803  0.8707  0.1428 -0.1451
 1214TIP3    H225058   4.340   5.006  14.721 -0.3907 -0.7700  0.8326
 1215TIP3   OH225059   5.011   3.903  17.381  0.0088  0.0011  0.0218
 1215TIP3    H125060   4.979   3.813  17.380  1.6111 -0.6253  1.1549
 1215TIP3    H225061   5.060   3.911  17.299 -0.1251 -0.1707 -0.0765
 1216TIP3   OH225062   6.305   3.710  10.399 -0.0545  0.3334  0.2101
 1216TIP3    H125063   6.333   3.801  10.389 -0.5301  0.5715  0.9692
 1216TIP3    H225064   6.234   3.714  10.462 -0.0481 -0.5755  0.2832
 1217TIP3   OH225065   0.523   1.814  11.062  0.2837 -0.1113  0.6780
 1217TIP3    H125066   0.541   1.862  11.143  1.2550  0.9025 -0.1185
 1217TIP3    H225067   0.432   1.786  11.072  0.1957  0.5031  1.8707
 1218TIP3   OH225068   2.945   2.733   1.135  0.2624 -0.1523 -0.6840
 1218TIP3    H125069   3.020   2.685   1.100  0.2163 -0.5018 -0.3159
 1218TIP3    H225070   2.939   2.811   1.081  2.6074  1.3111  0.9461
 1219TIP3   OH225071   2.544   4.988  17.206 -0.1039  0.8289 -0.3326
 1219TIP3    H125072   2.572   5.038  17.282 -0.5355  0.4201  0.1010
 1219TIP3    H225073   2.619   4.935  17.182 -0.3813 -0.0284  0.6272
 1220TIP3   OH225074   5.053   4.914  12.844  0.0384  0.7159  0.0144
 1220TIP3    H125075   5.073   4.824  12.873  0.3677  0.6370 -0.4309
 1220TIP3    H225076   4.958   4.922  12.853  0.0641  0.4952  0.5361
 1221TIP3   OH225077   1.381   0.801   2.434 -0.0752  0.7421  0.0186
 1221TIP3    H125078   1.445   0.835   2.498 -0.1731  0.3189  0.3464
 1221TIP3    H225079   1.372   0.871   2.370 -0.5286  1.4806  0.8724
 1222TIP3   OH225080   6.611   3.590  13.169  0.0084  0.0762  0.5206
 1222TIP3    H125081   6.523   3.622  13.149 -0.1893 -0.1861  0.9543
 1222TIP3    H225082   6.608   3.496  13.150 -0.0555 -0.0937  1.3233
 1223TIP3   OH225083   4.260   1.089   2.317 -0.8779 -0.0578  0.1860
 1223TIP3    H125084   4.281   0.995   2.320 -1.3067 -0.1485  0.6051
 1223TIP3    H225085   4.264   1.111   2.225  1.0599 -0.0464  0.2492
 1224TIP3   OH225086   5.956   3.007   2.785 -0.4006 -0.3368  0.0410
 1224TIP3    H125087   6.021   3.024   2.718  0.6804  1.1078  1.3698
 1224TIP3    H225088   5.902   2.936   2.750  0.2287  0.2470 -2.2261
 1225TIP3   OH225089   0.738   5.997   5.091  0.2928 -0.4034 -0.0975
 1225TIP3    H125090   0.670   5.964   5.033 -0.2295  0.3655  0.0581
 1225TIP3    H225091   0.814   6.010   5.033 -0.6559  1.7588 -0.9575
 1226TIP3   OH225092   1.698   3.575  14.779 -0.1025  0.4645  0.0909
 1226TIP3    H125093   1.790   3.562  14.801 -0.0962  1.0605  0.4407
 1226TIP3    H225094   1.651   3.517  14.840  0.0635 -0.4967 -0.6629
 1227TIP3   OH225095   0.206   5.853   2.138 -0.0460 -0.7201  0.1637
 1227TIP3    H125096   0.174   5.858   2.228  0.9181 -2.0588  0.6182
 1227TIP3    H225097   0.266   5.777   2.138  1.9902  0.7850 -0.9648
 1228TIP3   OH225098   0.995   0.121  12.078  0.2503 -0.2614 -0.0960
 1228TIP3    H125099   1.081   0.141  12.115 -0.5297 -0.2412  1.8017
 1228TIP3    H225100   0.955   0.062  12.141 -1.1542 -0.2608 -0.9481
 1229TIP3   OH225101   3.579   0.297   1.177  0.0203 -0.2508 -0.0274
 1229TIP3    H125102   3.624   0.281   1.094  0.6752 -0.4978  0.3605
 1229TIP3    H225103   3.520   0.370   1.159  1.2070  0.6553 -0.3401
 1230TIP3   OH225104   0.822   5.928   1.584 -0.1888 -0.2369 -0.3171
 1230TIP3    H125105   0.745   5.983   1.570 -0.2405 -0.3012 -0.2885
 1230TIP3    H225106   0.801   5.879   1.664  0.1048  0.1389 -0.0106
 1231TIP3   OH225107   3.582   3.762  15.001  0.4794  0.0403  0.3467
 1231TIP3    H125108   3.526   3.791  15.073  0.1159  0.2745 -0.0292
 1231TIP3    H225109   3.630   3.841  14.976  0.5565 -0.0261  0.2836
 1232TIP3   OH225110   6.206   4.100   3.645  0.0323  0.8109 -0.3051
 1232TIP3    H125111   6.286   4.127   3.600  0.3702  0.7650  0.2538
 1232TIP3    H225112   6.214   4.138   3.733 -1.0153  1.6178 -0.5421
 1233TIP3   OH225113   2.338   6.312   0.167 -0.0366 -0.2234  0.3658
 1233TIP3    H125114   2.359   6.367   0.242 -2.5880 -1.1292  1.8285
 1233TIP3    H225115   2.415   6.255   0.157  1.6729  1.9694  0.2313
 1234TIP3   OH225116   4.195   0.758  13.596 -0.1485  0.3707  0.6349
 1234TIP3    H125117   4.174   0.725  13.683 -1.0203  0.1281  0.3434
 1234TIP3    H225118   4.161   0.847  13.595 -0.9284  0.0748  0.2557
 1235TIP3   OH225119   1.649   0.611  12.937 -0.7084 -0.1143 -0.3501
 1235TIP3    H125120   1.635   0.679  13.002 -0.7231 -1.4637  1.1368
 1235TIP3    H225121   1.665   0.658  12.856  0.0404  1.6608  0.7634
 1236TIP3   OH225122   3.374   0.214  11.650  0.0403 -0.1298 -0.7684
 1236TIP3    H125123   3.313   0.242  11.718 -0.5283 -2.1558 -0.3534
 1236TIP3    H225124   3.417   0.137  11.686 -0.0684 -1.0998 -2.5607
 1237TIP3   OH225125   5.402   5.977   4.493  0.1602 -0.0472 -0.1835
 1237TIP3    H125126   5.451   6.039   4.438  0.9362 -0.8435 -0.4009
 1237TIP3    H225127   5.430   5.998   4.582  0.8632 -0.4609 -0.3013
 1238TIP3   OH225128   6.157   5.702  11.864 -0.2962  0.0038  0.4912
 1238TIP3    H125129   6.227   5.748  11.910 -1.0982  0.1050  1.6351
 1238TIP3    H225130   6.194   5.616  11.845 -0.0229 -0.1169  1.5229
 1239TIP3   OH225131   4.551   0.019   3.761  0.4432  0.1734  0.9295
 1239TIP3    H125132   4.590  -0.059   3.722  1.2416  0.7743  0.5081
 1239TIP3    H225133   4.528   0.074   3.687  1.0448  0.8909  1.2755
 1240TIP3   OH225134   0.247   6.727  14.509 -0.2887  0.2222  0.0235
 1240TIP3    H125135   0.334   6.723  14.549 -0.0333 -0.2200 -0.5582
 1240TIP3    H225136   0.186   6.723  14.583  0.1853  1.1748  0.4704
 1241TIP3   OH225137   1.902   1.296   5.154  0.0404  0.3645  0.8465
 1241TIP3    H125138   1.843   1.306   5.080  1.2187 -1.7522 -0.4827
 1241TIP3    H225139   1.865   1.222   5.203  0.6395  0.1573  0.9844
 1242TIP3   OH225140   5.509   6.710   0.812  0.1453  0.5468  0.4449
 1242TIP3    H125141   5.554   6.626   0.812 -2.9316 -1.2818  1.1414
 1242TIP3    H225142   5.476   6.720   0.723  0.8607  1.2892  0.2473
 1243TIP3   OH225143   0.062   5.911  16.670  0.2612  0.5043  0.1078
 1243TIP3    H125144   0.071   5.987  16.728 -2.1605  0.4204  0.7271
 1243TIP3    H225145   0.007   5.942  16.598  0.3937 -0.2993 -0.3509
 1244TIP3   OH225146   2.137   2.606  14.359  0.2413  0.2110  0.3313
 1244TIP3    H125147   2.182   2.690  14.346  0.8604 -0.1265  0.2602
 1244TIP3    H225148   2.062   2.610  14.300  0.9422  0.2236 -0.5796
 1245TIP3   OH225149   3.382   0.802   0.991 -0.1055 -0.2914  1.1267
 1245TIP3    H125150   3.410   0.796   1.082  1.5924 -0.4085  0.6182
 1245TIP3    H225151   3.453   0.764   0.940 -0.4885  0.8399 -0.3508
 1246TIP3   OH225152   1.174   0.563  13.663 -0.3058 -0.3263  0.2002
 1246TIP3    H125153   1.139   0.488  13.615 -0.2403  0.2291 -0.7445
 1246TIP3    H225154   1.100   0.623  13.673 -0.3120 -0.4272  0.7803
 1247TIP3   OH225155   3.830   1.012  15.073 -0.2383  0.0164  0.0067
 1247TIP3    H125156   3.920   0.978  15.074 -0.9850 -2.0726  0.7828
 1247TIP3    H225157   3.823   1.062  15.154  0.3770  0.6933 -0.3426
 1248TIP3   OH225158   2.610   0.133  14.559 -0.9868 -0.3837 -0.6395
 1248TIP3    H125159   2.545   0.063  14.555 -2.1960  0.6528  0.1772
 1248TIP3    H225160   2.606   0.174  14.472 -1.6022 -0.1902 -0.5262
 1249TIP3   OH225161   2.964   0.044   0.859 -0.2477  0.4794 -0.8145
 1249TIP3    H125162   3.028  -0.003   0.805  1.2135  2.4149 -0.8421
 1249TIP3    H225163   2.906   0.087   0.796 -0.9578 -0.3727 -0.7799
 1250TIP3   OH225164   1.821   0.557   2.618  1.0172  0.8678  0.0487
 1250TIP3    H125165   1.908   0.599   2.622  1.1743  0.5889 -0.3598
 1250TIP3    H225166   1.769   0.605   2.682  1.7808  0.3208  1.1256
 1251TIP3   OH225167   4.589   0.684   0.625 -0.3946  0.5709  0.2715
 1251TIP3    H125168   4.660   0.630   0.657 -0.7134 -0.0099  0.0062
 1251TIP3    H225169   4.627   0.733   0.552 -0.7164 -1.0614 -1.0454
 1252TIP3   OH225170   0.147   6.178  13.995 -0.1917  0.3038  0.1323
 1252TIP3    H125171   0.206   6.112  14.033  0.7961  1.2118  0.2266
 1252TIP3    H225172   0.137   6.243  14.063 -1.5013  0.0661  0.1836
 1253TIP3   OH225173   6.266   6.130  12.285 -0.6343  0.4122 -0.4966
 1253TIP3    H125174   6.285   6.078  12.364  0.0699 -0.3359 -1.1472
 1253TIP3    H225175   6.206   6.198  12.316  0.8218  1.0887  1.0191
 1254TIP3   OH225176   2.178   1.665   1.646  0.7301  0.0077 -0.1991
 1254TIP3    H125177   2.259   1.708   1.673 -0.4241  0.7182  2.5734
 1254TIP3    H225178   2.199   1.571   1.645  1.4719  0.1327  1.1494
 1255TIP3   OH225179   1.629   0.055  14.355 -0.3600 -0.0218 -0.1514
 1255TIP3    H125180   1.628   0.141  14.313  0.0531  0.2786  0.4418
 1255TIP3    H225181   1.569   0.002  14.302  0.4282  0.2369 -1.3385
 1256TIP3   OH225182   1.196   5.520   0.519  0.1902  0.0310 -0.1827
 1256TIP3    H125183   1.120   5.576   0.536 -1.1635 -2.0852  1.3521
 1256TIP3    H225184   1.270   5.581   0.513 -1.0095  1.9519  2.3710
 1257TIP3   OH225185   1.791   2.582   0.339 -0.2371 -0.4839  0.4615
 1257TIP3    H125186   1.863   2.583   0.402 -0.6312  0.8870  0.9280
 1257TIP3    H225187   1.754   2.670   0.343  0.5399  0.1095 -2.6956
 1258TIP3   OH225188   4.096   3.958  17.290  0.2304  0.2207  0.1567
 1258TIP3    H125189   4.111   3.890  17.356 -0.3723  0.8365  0.9468
 1258TIP3    H225190   4.029   4.014  17.329  1.0818  1.5610 -0.2453
 1259TIP3   OH225191   5.121   3.566   4.892  0.0295 -0.0326 -0.2765
 1259TIP3    H125192   5.205   3.531   4.864 -0.8040 -0.9894 -1.7068
 1259TIP3    H225193   5.056   3.510   4.850 -1.3940 -1.5069  3.4809
 1260TIP3   OH225194   4.205   1.446  15.507  0.4635 -0.2112 -0.1147
 1260TIP3    H125195   4.271   1.410  15.567  0.6459 -0.5833 -0.5330
 1260TIP3    H225196   4.222   1.402  15.424 -1.1251 -1.2883  0.0787
 1261TIP3   OH225197   1.111   6.657  11.833 -0.7538  0.2840 -0.1847
 1261TIP3    H125198   1.196   6.654  11.878 -0.1805 -1.6748 -1.2527
 1261TIP3    H225199   1.053   6.604  11.888 -0.0333 -2.1730 -1.6364
 1262TIP3   OH225200   2.776   2.541   3.941 -0.2470  0.3749 -0.6839
 1262TIP3    H125201   2.805   2.455   3.910  0.8000  0.7352 -0.7395
 1262TIP3    H225202   2.856   2.592   3.949 -0.6629  0.8029  1.0997
 1263TIP3   OH225203   0.853   5.033   0.205 -0.4625  0.0394 -0.1792
 1263TIP3    H125204   0.788   5.040   0.136  0.8515  0.9637 -1.3704
 1263TIP3    H225205   0.888   5.121   0.214  2.4169 -0.8681 -1.4002
 1264TIP3   OH225206   3.017   4.105   2.697  0.3523  0.0776 -0.2228
 1264TIP3    H125207   2.957   4.169   2.733  0.7212 -0.7152  1.9479
 1264TIP3    H225208   2.977   4.079   2.614 -1.3175  0.9514  0.2578
 1265TIP3   OH225209   1.794   6.266   2.915  0.0471  0.5928  0.1937
 1265TIP3    H125210   1.845   6.248   2.836 -0.3901  0.3130 -0.0253
 1265TIP3    H225211   1.713   6.217   2.903 -0.2059  0.9063  0.6159
 1266TIP3   OH225212   6.346   0.116  11.376 -0.2421 -0.5151  0.5169
 1266TIP3    H125213   6.254   0.140  11.370  0.0769  0.4800 -1.0412
 1266TIP3    H225214   6.352   0.032  11.330 -0.6763 -1.6186  2.3938
 1267TIP3   OH225215   1.255   2.898   2.647  0.1538 -0.1573 -0.0734
 1267TIP3    H125216   1.303   2.836   2.593  0.3258 -0.8059  0.7936
 1267TIP3    H225217   1.306   2.903   2.728 -0.2259  0.6024  0.1326
 1268TIP3   OH225218   4.428   6.058  13.172  0.1734 -0.1128  0.1880
 1268TIP3    H125219   4.451   6.041  13.080  0.7599  0.9128  0.1313
 1268TIP3    H225220   4.512   6.061  13.217 -0.1222 -0.7436  0.7925
 1269TIP3   OH225221   2.816   2.083   3.721 -0.0786 -0.1817  0.5062
 1269TIP3    H125222   2.848   2.173   3.732  0.6648 -0.4414  0.5373
 1269TIP3    H225223   2.857   2.053   3.640 -2.1219  0.2581 -0.7596
 1270TIP3   OH225224   4.137   2.238   3.523 -0.7113  0.5373  0.0153
 1270TIP3    H125225   4.146   2.144   3.504 -0.2070  0.2038  1.7447
 1270TIP3    H225226   4.045   2.248   3.549 -0.2729  0.0886  1.8638
 1271TIP3   OH225227   3.278   3.711   2.065 -0.2301 -0.5619  0.3387
 1271TIP3    H125228   3.278   3.803   2.040  0.1525 -0.7361 -0.3335
 1271TIP3    H225229   3.185   3.688   2.071 -0.3839  0.3194  2.3226
 1272TIP3   OH225230   3.028   0.129  17.247 -0.1983  0.2539  0.5328
 1272TIP3    H125231   3.071   0.210  17.274  0.7605  0.4922 -1.5330
 1272TIP3    H225232   3.005   0.143  17.155 -2.9630 -0.6258  0.9711
 1273TIP3   OH225233   2.199   4.835  16.120 -0.0661 -0.3576 -0.0811
 1273TIP3    H125234   2.213   4.840  16.215 -0.8743 -2.6609  0.2121
 1273TIP3    H225235   2.142   4.910  16.101 -2.8909 -1.8049  1.9255
 1274TIP3   OH225236   6.612   5.963   0.224 -0.0281  0.1262 -0.1338
 1274TIP3    H125237   6.577   6.028   0.163 -1.5550 -0.8374 -0.3320
 1274TIP3    H225238   6.542   5.898   0.233  0.0869  0.2562  2.6764
 1275TIP3   OH225239   3.743   0.613  14.048  0.3361  0.0737 -0.1576
 1275TIP3    H125240   3.726   0.677  13.979  2.8788  0.3678 -0.6123
 1275TIP3    H225241   3.780   0.665  14.120  2.9229 -0.8267 -0.7188
 1276TIP3   OH225242   5.482   3.678  14.021  0.4836  0.9258  0.2682
 1276TIP3    H125243   5.452   3.730  14.096 -0.1539 -0.0543  0.7163
 1276TIP3    H225244   5.448   3.590  14.038  0.3539  0.6785 -1.1634
 1277TIP3   OH225245   4.201   2.633  12.396 -0.4334  0.9370  0.3862
 1277TIP3    H125246   4.127   2.574  12.379  1.1488 -1.0051 -0.1557
 1277TIP3    H225247   4.215   2.628  12.490 -0.0915  0.1178  0.3031
 1278TIP3   OH225248   3.108   3.018  12.958 -0.2299 -0.2271 -1.0541
 1278TIP3    H125249   3.041   3.037  13.024  0.9476 -1.4834  0.5572
 1278TIP3    H225250   3.071   2.946  12.907  0.0171 -1.1582  0.0561
 1279TIP3   OH225251   3.449   3.895  14.487  0.2992  0.5956  0.1402
 1279TIP3    H125252   3.414   3.889  14.576  0.4972  0.5080  0.2148
 1279TIP3    H225253   3.438   3.807  14.450 -2.6160  1.3416 -1.0303
 1280TIP3   OH225254   2.635   5.621  15.178 -0.2689 -0.2940  0.0800
 1280TIP3    H125255   2.722   5.628  15.138 -0.1149 -2.7811 -0.1817
 1280TIP3    H225256   2.645   5.658  15.265 -0.0178  3.1055 -1.2371
 1281TIP3   OH225257   5.594   1.789   2.726  0.6308  0.4829 -0.3803
 1281TIP3    H125258   5.560   1.725   2.663  1.6679 -1.6569  1.1215
 1281TIP3    H225259   5.530   1.789   2.797  0.9370  0.7025 -0.1055
 1282TIP3   OH225260   0.363   3.566   2.514  0.0089 -0.0591  0.2945
 1282TIP3    H125261   0.268   3.565   2.521 -0.0625 -0.9976 -0.5163
 1282TIP3    H225262   0.386   3.475   2.491  0.9763  0.4446 -0.8408
 1283TIP3   OH225263   2.012   6.396  10.867  0.1598  0.4624 -0.7143
 1283TIP3    H125264   1.966   6.478  10.883  1.0209  0.8505 -0.1392
 1283TIP3    H225265   2.104   6.417  10.883  0.5687 -0.2431 -1.9961
 1284TIP3   OH225266   6.723   4.326  11.538 -0.1095  0.3849  0.2702
 1284TIP3    H125267   6.638   4.369  11.547  0.3463  1.4804 -0.4350
 1284TIP3    H225268   6.743   4.294  11.625 -1.0275  0.5235  0.5478
 1285TIP3   OH225269   6.366   3.958  14.634  0.1681  0.2168 -0.0973
 1285TIP3    H125270   6.331   3.930  14.719 -0.6472  0.5853 -0.3009
 1285TIP3    H225271   6.453   3.993  14.654  0.2330 -0.2660  0.4924
 1286TIP3   OH225272   1.655   1.401  13.885  0.5122  0.3680  0.5490
 1286TIP3    H125273   1.596   1.406  13.960 -0.0202 -2.0693  0.3600
 1286TIP3    H225274   1.731   1.453  13.912 -0.5929  1.4119  1.8310
 1287TIP3   OH225275   0.646   2.112   5.297 -0.0437 -0.3921  0.2397
 1287TIP3    H125276   0.691   2.045   5.349  0.6589  0.6607  1.0408
 1287TIP3    H225277   0.571   2.138   5.351 -1.3593 -1.7496 -0.8520
 1288TIP3   OH225278   1.682   3.172  13.126  0.3844 -0.3913 -0.6979
 1288TIP3    H125279   1.652   3.117  13.199  1.3544  0.6722  0.5559
 1288TIP3    H225280   1.606   3.179  13.068 -0.6472 -0.6722  0.5746
 1289TIP3   OH225281   0.993   0.732   5.530  0.0260 -0.2135  0.3356
 1289TIP3    H125282   0.960   0.647   5.501  2.5050 -1.2916  0.4529
 1289TIP3    H225283   1.015   0.778   5.448 -3.3897  1.3478  0.1286
 1290TIP3   OH225284   3.308   4.862   2.175  0.0644 -0.2072  0.0351
 1290TIP3    H125285   3.308   4.946   2.221  0.2470 -0.9959  1.5446
 1290TIP3    H225286   3.346   4.801   2.238  0.2336 -1.3607 -1.1556
 1291TIP3   OH225287   2.466   0.696  13.385  0.2354  0.0799  0.2108
 1291TIP3    H125288   2.493   0.687  13.477 -0.3658  0.6579  0.4571
 1291TIP3    H225289   2.453   0.791  13.373  1.2626  0.1100 -0.7568
 1292TIP3   OH225290   3.815   2.496   4.120 -0.0984 -0.3971  0.2928
 1292TIP3    H125291   3.834   2.585   4.091  1.2883 -1.5224 -2.8047
 1292TIP3    H225292   3.883   2.476   4.184  1.6729 -0.2097 -1.4207
 1293TIP3   OH225293   5.123   2.690   0.390  0.3688  0.2019 -0.1488
 1293TIP3    H125294   5.204   2.719   0.433  0.3079 -0.7866  0.6661
 1293TIP3    H225295   5.150   2.668   0.301  1.1833 -0.8737  0.3415
 1294TIP3   OH225296   5.578   6.442  13.556  0.8199  0.2911  0.8413
 1294TIP3    H125297   5.523   6.446  13.478  1.5149 -0.1029  0.3243
 1294TIP3    H225298   5.637   6.517  13.548  1.4445 -0.2285  0.5695
 1295TIP3   OH225299   1.402   1.963   5.988 -0.1431  0.7467 -0.4356
 1295TIP3    H125300   1.324   2.003   6.026 -0.3716 -1.2510  1.3508
 1295TIP3    H225301   1.475   1.999   6.039 -0.3427 -0.9405  1.1225
 1296TIP3   OH225302   4.556   4.909   3.849  0.0627  0.3234  0.0704
 1296TIP3    H125303   4.516   4.825   3.825  0.6079 -0.3866  1.5095
 1296TIP3    H225304   4.490   4.954   3.900 -0.0649  0.5603 -0.3073
 1297TIP3   OH225305   3.681   6.221  17.364 -0.0800 -0.1754 -0.3856
 1297TIP3    H125306   3.633   6.150  17.320 -1.3225 -1.3129  2.5704
 1297TIP3    H225307   3.753   6.178  17.409  1.8187  1.1103 -2.0120
 1298TIP3   OH225308   3.966   3.825  13.286  0.1510  0.7339  0.4726
 1298TIP3    H125309   4.020   3.839  13.208 -3.4995  1.6038 -2.2096
 1298TIP3    H225310   4.025   3.788  13.350  4.1019  2.6226 -1.7038
 1299TIP3   OH225311   0.185   1.518  16.543  0.4083  0.5362 -0.6302
 1299TIP3    H125312   0.136   1.523  16.461  0.8419 -1.3044 -1.0655
 1299TIP3    H225313   0.236   1.598  16.546  1.3270  0.1053 -2.8110
 1300TIP3   OH225314   4.541   3.220   5.410 -0.3345 -0.0160 -0.6860
 1300TIP3    H125315   4.519   3.252   5.498 -0.8320 -0.1992 -0.7390
 1300TIP3    H225316   4.476   3.152   5.392 -0.0508 -0.1901 -1.0781
 1301TIP3   OH225317   3.109   1.482   5.128 -0.0943  0.0761 -0.4343
 1301TIP3    H125318   3.142   1.397   5.097  1.6170 -0.1682  1.8097
 1301TIP3    H225319   3.106   1.536   5.049  1.3701 -1.2893 -1.5058
 1302TIP3   OH225320   2.116   0.172   4.063  0.4454 -0.6411 -0.6950
 1302TIP3    H125321   2.147   0.116   4.134  1.8486 -1.0528 -1.5949
 1302TIP3    H225322   2.176   0.247   4.063 -1.3004  0.8175  0.3771
 1303TIP3   OH225323   0.693   1.830   0.067  0.2110 -0.2923  0.4300
 1303TIP3    H125324   0.777   1.812   0.025 -0.0873 -1.9710  0.4889
 1303TIP3    H225325   0.627   1.803   0.003 -0.2905  0.6496  0.5360
 1304TIP3   OH225326   0.111   5.225   4.117  0.4860 -0.2794 -0.1386
 1304TIP3    H125327   0.131   5.139   4.155  1.0476 -0.1135 -0.0572
 1304TIP3    H225328   0.184   5.244   4.059 -0.7191 -0.8633 -1.9394
 1305TIP3   OH225329   2.079   0.080   2.214  0.1737  0.0896  0.0471
 1305TIP3    H125330   1.991   0.044   2.207  0.2160  0.3265 -2.3978
 1305TIP3    H225331   2.111   0.084   2.124  2.0690  1.5460  0.7196
 1306TIP3   OH225332   6.478   1.592  13.771 -0.3460 -0.1904  0.6025
 1306TIP3    H125333   6.537   1.622  13.840  1.3525 -2.9779  0.5595
 1306TIP3    H225334   6.403   1.651  13.775  1.7254  2.5873  1.7254
 1307TIP3   OH225335   0.318   0.292  11.849  0.7744  0.0240  0.5096
 1307TIP3    H125336   0.414   0.289  11.850  0.7746  0.1006  1.3336
 1307TIP3    H225337   0.295   0.339  11.929  0.0050 -1.3763  1.1383
 1308TIP3   OH225338   3.596   6.498   5.157  0.4766  0.4017  0.3600
 1308TIP3    H125339   3.503   6.505   5.177  0.5124 -0.6496  0.9931
 1308TIP3    H225340   3.598   6.466   5.067  0.2340  1.0876  0.1116
 1309TIP3   OH225341   0.127   2.643  12.469  0.3949 -0.5847  0.3267
 1309TIP3    H125342   0.037   2.639  12.503  0.3775 -1.3843  0.1996
 1309TIP3    H225343   0.143   2.556  12.432  0.7378 -0.0322 -0.8913
 1310TIP3   OH225344   4.876   5.670  11.066 -0.3297  0.0127 -0.0962
 1310TIP3    H125345   4.855   5.578  11.083  0.4426 -0.0478  0.6394
 1310TIP3    H225346   4.860   5.682  10.973 -1.3919 -0.6015 -0.0043
 1311TIP3   OH225347   3.545   4.071   5.327 -0.1243 -0.2268  0.9898
 1311TIP3    H125348   3.638   4.071   5.307 -0.3263  0.8482 -0.0737
 1311TIP3    H225349   3.502   4.078   5.241 -1.1874 -0.7892  1.4525
 1312TIP3   OH225350   3.153   4.311  11.726  0.2653 -0.2911 -0.3795
 1312TIP3    H125351   3.080   4.257  11.754  0.6203 -0.3237  0.4987
 1312TIP3    H225352   3.178   4.361  11.804  0.4487  0.5635 -0.9629
 1313TIP3   OH225353   3.064   3.925  16.605 -0.4996 -0.5748 -0.2528
 1313TIP3    H125354   2.973   3.900  16.623 -0.9959  1.6079  0.6406
 1313TIP3    H225355   3.116   3.878  16.670 -1.0367 -1.4373 -0.4367
 1314TIP3   OH225356   6.253   0.243  15.063 -0.1931  0.1462  0.0238
 1314TIP3    H125357   6.301   0.164  15.086  1.3621  0.9927 -0.0973
 1314TIP3    H225358   6.167   0.233  15.103 -0.7867 -2.4895 -1.7083
 1315TIP3   OH225359   1.688   0.188   5.682  0.2953  0.2361 -0.6583
 1315TIP3    H125360   1.628   0.141   5.740 -1.1659  1.8421 -0.7967
 1315TIP3    H225361   1.702   0.273   5.724  1.3604  0.4206 -1.3331
 1316TIP3   OH225362   6.568   2.808  12.338  0.4066 -0.1735 -0.0051
 1316TIP3    H125363   6.487   2.760  12.356 -0.2869  0.6854 -0.7562
 1316TIP3    H225364   6.634   2.766  12.393 -0.7656 -0.1993  1.4143
 1317TIP3   OH225365   4.778   2.710   2.471  0.0122 -0.1585  0.0084
 1317TIP3    H125366   4.818   2.768   2.407  0.7193 -2.1299 -1.4241
 1317TIP3    H225367   4.686   2.738   2.473 -0.1712 -0.3720 -2.3126
 1318TIP3   OH225368   4.318   3.271   1.765 -0.3046 -0.5445 -0.2050
 1318TIP3    H125369   4.257   3.306   1.830  0.1402  1.0291 -0.5933
 1318TIP3    H225370   4.300   3.322   1.686 -0.1905 -1.7870 -1.0581
 1319TIP3   OH225371   3.807   5.486  12.837  0.3367  0.2012 -0.0397
 1319TIP3    H125372   3.820   5.392  12.848 -0.1846  0.0987 -0.3006
 1319TIP3    H225373   3.753   5.513  12.911 -0.8976 -0.0078 -0.8325
 1320TIP3   OH225374   3.204   5.728   4.324  0.7929 -0.3465 -0.2101
 1320TIP3    H125375   3.273   5.666   4.349 -0.9903 -1.2444  3.1450
 1320TIP3    H225376   3.142   5.676   4.273  1.2607 -0.2299 -0.9091
 1321TIP3   OH225377   4.492   0.800  14.804 -0.1319  0.2250 -0.8179
 1321TIP3    H125378   4.490   0.755  14.719 -0.9467 -1.6044  0.1221
 1321TIP3    H225379   4.513   0.732  14.867  0.7292  1.6097  0.4548
 1322TIP3   OH225380   5.279   5.251  11.568 -0.2291  0.3282  0.5807
 1322TIP3    H125381   5.237   5.193  11.505 -0.1374 -0.4322  1.2121
 1322TIP3    H225382   5.329   5.313  11.514 -1.7109  0.9256 -0.1596
 1323TIP3   OH225383   0.220   4.622  12.335 -0.0597  0.2075  0.1227
 1323TIP3    H125384   0.164   4.651  12.263  1.8848  4.0643 -0.0706
 1323TIP3    H225385   0.306   4.608  12.294  0.3817 -0.5110  1.2434
 1324TIP3   OH225386   4.730   0.181  11.693 -0.2134  0.1249 -0.3233
 1324TIP3    H125387   4.795   0.240  11.657 -0.5141 -0.1816 -1.4016
 1324TIP3    H225388   4.751   0.176  11.786  0.6029  0.9056 -0.4562
 1325TIP3   OH225389   2.476   5.904   6.110  0.1518 -0.0487 -0.2736
 1325TIP3    H125390   2.486   5.883   6.203 -1.5760  0.5775  0.0814
 1325TIP3    H225391   2.487   5.999   6.106  0.7458 -0.1358 -0.7950
 1326TIP3   OH225392   2.744   0.209  14.775  0.3783  0.0204 -0.3031
 1326TIP3    H125393   2.692   0.167  14.706  0.8948  1.8673 -1.8938
 1326TIP3    H225394   2.810   0.260  14.728  1.4729  0.4681  1.6013
 1327TIP3   OH225395   1.479   6.346   2.537 -0.2290 -0.1087 -0.1200
 1327TIP3    H125396   1.486   6.250   2.541 -1.1671 -0.2297 -0.9929
 1327TIP3    H225397   1.401   6.367   2.587 -0.5625  0.1041 -0.7116
 1328TIP3   OH225398   0.046   1.414   1.804  0.4781 -0.1669 -0.0012
 1328TIP3    H125399   0.061   1.400   1.897 -1.6162  0.8282  0.5532
 1328TIP3    H225400  -0.016   1.487   1.800  1.6976  0.8497 -2.2457
 1329TIP3   OH225401   3.249   6.411   6.965  0.9590 -0.0450  0.0569
 1329TIP3    H125402   3.313   6.339   6.969  1.3458  0.2910 -0.0106
 1329TIP3    H225403   3.293   6.484   7.009 -0.6937 -0.7616  3.2223
 1330TIP3   OH225404   2.080   6.056   5.405  0.1147  0.0997 -0.5586
 1330TIP3    H125405   2.148   6.006   5.451 -2.3428 -2.4587  0.6404
 1330TIP3    H225406   2.060   6.003   5.328 -0.8211  0.5718 -0.6488
 1331TIP3   OH225407   5.219   5.450   5.646  0.5972 -0.5666  0.1706
 1331TIP3    H125408   5.199   5.482   5.734 -0.3717  0.6807 -0.4651
 1331TIP3    H225409   5.140   5.468   5.596  0.6104 -2.5523 -0.6514
 1332TIP3   OH225410   0.297   4.689  15.629 -0.3557 -0.2802  0.5343
 1332TIP3    H125411   0.342   4.762  15.586 -1.0069 -0.0328  0.2660
 1332TIP3    H225412   0.312   4.703  15.722 -2.3925  1.5136  0.6691
 1333TIP3   OH225413   6.075   2.235   4.316  0.5358 -0.2353  0.3185
 1333TIP3    H125414   6.012   2.172   4.351  0.7189 -0.0992  0.9026
 1333TIP3    H225415   6.024   2.314   4.301  0.1866 -0.6726 -0.9329
 1334TIP3   OH225416   3.593   3.287   5.413  0.3376 -0.2970 -0.3248
 1334TIP3    H125417   3.655   3.337   5.466 -1.1279  2.1552 -0.7835
 1334TIP3    H225418   3.648   3.238   5.352  1.8714  1.5273 -0.4918
 1335TIP3   OH225419   1.188   1.635  15.230 -0.0963 -0.1907 -0.1896
 1335TIP3    H125420   1.208   1.607  15.319 -0.1878 -3.4271 -1.0351
 1335TIP3    H225421   1.102   1.596  15.212 -0.2298  0.6761 -1.6028
 1336TIP3   OH225422   0.358   6.545   0.681 -0.3744  0.5515 -0.0838
 1336TIP3    H125423   0.453   6.531   0.682 -0.5125 -0.4112  0.4608
 1336TIP3    H225424   0.321   6.457   0.683 -1.2750  0.9329  0.6732
 1337TIP3   OH225425   6.451   5.432  12.367 -0.9627  0.3920  0.4404
 1337TIP3    H125426   6.482   5.376  12.438  0.8868 -0.3114 -0.8288
 1337TIP3    H225427   6.472   5.521  12.395  0.5067  0.0586  0.4659
 1338TIP3   OH225428   3.577   6.477   3.013  0.2380  0.1480 -0.1481
 1338TIP3    H125429   3.622   6.415   2.955 -2.3768 -2.9666  0.8777
 1338TIP3    H225430   3.552   6.425   3.089 -4.3636  1.6582 -0.3094
 1339TIP3   OH225431   6.355   0.435  13.575  0.4625 -0.4778 -0.2079
 1339TIP3    H125432   6.426   0.373  13.591 -0.1198 -1.1319 -0.1333
 1339TIP3    H225433   6.289   0.384  13.528 -1.6937 -1.0074  3.0966
 1340TIP3   OH225434   2.646   4.354   5.060  0.4739 -0.3704  0.4084
 1340TIP3    H125435   2.685   4.307   4.986 -0.8081 -0.1454 -0.4414
 1340TIP3    H225436   2.566   4.306   5.079 -1.0078  1.5647 -0.6416
 1341TIP3   OH225437   5.524   4.409  11.863  0.3326 -0.2114 -0.2509
 1341TIP3    H125438   5.510   4.364  11.946 -0.8235 -0.6826 -0.6726
 1341TIP3    H225439   5.466   4.485  11.867 -1.5619 -1.4886 -1.5170
 1342TIP3   OH225440   4.355   3.651  16.820  0.0191 -0.7209 -0.0720
 1342TIP3    H125441   4.353   3.737  16.778 -0.2698 -0.7500 -0.1200
 1342TIP3    H225442   4.311   3.664  16.904  0.6782 -0.6427  0.2670
 1343TIP3   OH225443   4.732   5.319   0.147  0.2056 -0.3576 -0.5734
 1343TIP3    H125444   4.720   5.258   0.075 -1.2109  1.3924 -1.9158
 1343TIP3    H225445   4.815   5.362   0.129  1.1498 -1.7075  0.3130
 1344TIP3   OH225446   4.352   1.698   5.692 -0.1220 -0.2730  0.1537
 1344TIP3    H125447   4.314   1.625   5.741 -0.7008 -1.8784 -2.4711
 1344TIP3    H225448   4.279   1.760   5.681 -0.1301 -0.1593  0.7956
 1345TIP3   OH225449   0.017   2.514   2.937  0.3237 -0.1653  0.4893
 1345TIP3    H125450  -0.026   2.466   3.008 -1.7755  1.3432  0.3391
 1345TIP3    H225451  -0.054   2.562   2.895  2.1439  2.2743  0.0238
 1346TIP3   OH225452   6.475   4.028  12.313 -0.2898 -0.3755  0.1748
 1346TIP3    H125453   6.528   4.091  12.363 -2.5752  0.4846  1.7119
 1346TIP3    H225454   6.529   4.006  12.238  1.3909  2.0222  0.5371
 1347TIP3   OH225455   6.103   4.479  11.338 -0.2795  0.1473 -0.0509
 1347TIP3    H125456   6.160   4.532  11.394 -1.7467  2.5443 -0.6675
 1347TIP3    H225457   6.045   4.433  11.399  2.0465 -2.2143  0.5774
 1348TIP3   OH225458   3.073   3.818  11.568  0.1534  0.0207  0.1593
 1348TIP3    H125459   2.991   3.813  11.519  0.2993 -0.3250 -0.0616
 1348TIP3    H225460   3.079   3.909  11.597  0.3176  0.3590 -0.9102
 1349TIP3   OH225461   4.321   1.525   0.862 -0.6113 -0.1529 -0.7421
 1349TIP3    H125462   4.266   1.601   0.845 -0.2958 -0.3556 -2.9100
 1349TIP3    H225463   4.372   1.513   0.782  1.3978 -0.9808  0.5836
 1350TIP3   OH225464   4.767   1.102   3.370  0.1347 -0.4401  0.1228
 1350TIP3    H125465   4.738   1.092   3.279 -1.0481  1.4359  0.2422
 1350TIP3    H225466   4.699   1.058   3.422  1.8781 -3.4253  0.1026
 1351TIP3   OH225467   1.562   2.237  17.068  0.4016 -0.2500 -0.1954
 1351TIP3    H125468   1.525   2.216  16.982 -1.5140  0.2714  0.4412
 1351TIP3    H225469   1.538   2.163  17.123 -1.7320  1.0248  0.7550
 1352TIP3   OH225470   1.731   2.191  15.401 -0.2729  0.4484 -0.2204
 1352TIP3    H125471   1.717   2.097  15.402  0.0724  0.3698  1.9805
 1352TIP3    H225472   1.645   2.228  15.422 -0.0806  0.5513  0.3933
 1353TIP3   OH225473   3.691   3.792  15.693  0.6464  0.6220  0.2455
 1353TIP3    H125474   3.603   3.812  15.725  0.9719  3.0202 -0.1613
 1353TIP3    H225475   3.676   3.738  15.615 -0.5162  1.2924 -0.0259
 1354TIP3   OH225476   5.520   6.119  15.359  0.0085  0.1887  0.0261
 1354TIP3    H125477   5.614   6.131  15.372 -0.0018  0.7593 -0.4316
 1354TIP3    H225478   5.508   6.118  15.264 -0.5893  1.2400  0.0825
 1355TIP3   OH225479   6.253   2.008  15.561 -0.3998  0.2722  0.4161
 1355TIP3    H125480   6.160   2.028  15.561 -0.5122 -0.2337  0.2613
 1355TIP3    H225481   6.292   2.073  15.620 -0.8634  0.4204  0.5597
 1356TIP3   OH225482   3.045   6.232   2.477  0.0466 -0.5676  0.4868
 1356TIP3    H125483   3.004   6.248   2.562  0.0295 -2.0941  0.7954
 1356TIP3    H225484   3.057   6.137   2.473 -0.6946 -0.6334 -1.5604
 1357TIP3   OH225485   4.909   0.013  12.619 -0.0240 -0.3126  0.2433
 1357TIP3    H125486   4.945  -0.076  12.621  0.0844 -0.2709  0.1512
 1357TIP3    H225487   4.833   0.007  12.561 -1.2681 -0.8107  1.8547
 1358TIP3   OH225488   2.267   2.497   5.489 -0.0605  0.0014  0.0112
 1358TIP3    H125489   2.184   2.537   5.515  1.1685  0.7509  3.2635
 1358TIP3    H225490   2.287   2.536   5.404 -2.9145 -0.1405 -0.8386
 1359TIP3   OH225491   0.558   3.322  14.362  0.1739  0.2603 -0.2567
 1359TIP3    H125492   0.474   3.341  14.403 -0.2389 -1.0691 -0.4247
 1359TIP3    H225493   0.608   3.403  14.370 -0.7724  0.7725  0.7010
 1360TIP3   OH225494   2.174   5.941  11.082 -0.1218  0.0326 -0.4882
 1360TIP3    H125495   2.121   6.014  11.114  0.6289  0.6587 -0.6403
 1360TIP3    H225496   2.166   5.946  10.987 -0.4447 -0.3774 -0.4860
 1361TIP3   OH225497   4.822   4.448  12.067 -0.0774 -0.3888  0.5996
 1361TIP3    H125498   4.808   4.361  12.031  0.8933 -0.3752  0.1670
 1361TIP3    H225499   4.735   4.477  12.095 -0.8586 -0.4079 -1.6773
 1362TIP3   OH225500   4.562   2.236   0.165 -0.5220 -0.0076  0.1577
 1362TIP3    H125501   4.627   2.291   0.209  0.6937 -1.4736  0.2517
 1362TIP3    H225502   4.482   2.248   0.216 -0.1633  1.2997  0.4413
 1363TIP3   OH225503   0.309   1.673   3.646  0.2735 -0.0338 -0.1294
 1363TIP3    H125504   0.324   1.628   3.729 -1.5642  0.0632  0.2908
 1363TIP3    H225505   0.315   1.766   3.668 -1.4720  0.0247  0.1889
 1364TIP3   OH225506   2.155   5.435   2.382 -0.2014 -0.4788 -0.0869
 1364TIP3    H125507   2.122   5.392   2.303 -1.1238  0.5314 -0.2640
 1364TIP3    H225508   2.080   5.434   2.442  0.0085  0.1887  0.1885
 1365TIP3   OH225509   1.980   6.347   1.023 -0.3834  0.6928  0.2289
 1365TIP3    H125510   2.042   6.378   1.089  0.3526 -1.3653  0.5767
 1365TIP3    H225511   2.034   6.302   0.959 -1.5077 -1.7565  0.8899
 1366TIP3   OH225512   4.497   3.686  12.334 -0.0675 -0.1895 -1.0594
 1366TIP3    H125513   4.516   3.778  12.354 -0.6702  0.0298 -1.4497
 1366TIP3    H225514   4.543   3.670  12.251 -0.1905 -0.1582 -1.1335
 1367TIP3   OH225515   5.064   5.370  11.708  0.4250 -0.5333 -0.0262
 1367TIP3    H125516   5.071   5.319  11.788  1.7589 -1.2770 -0.5886
 1367TIP3    H225517   5.132   5.336  11.651  0.7074  1.2007 -0.8089
 1368TIP3   OH225518   3.250   0.723   0.238  0.4886 -0.0078 -0.1121
 1368TIP3    H125519   3.296   0.701   0.157  0.6779 -0.4741  0.1225
 1368TIP3    H225520   3.157   0.707   0.218  0.3572  1.3838 -0.7394
 1369TIP3   OH225521   2.438   3.945  13.383 -0.3778 -0.0778 -0.1530
 1369TIP3    H125522   2.519   3.994  13.391 -1.7816  2.7206 -1.5492
 1369TIP3    H225523   2.398   3.949  13.470 -0.1391  0.6453 -0.0742
 1370TIP3   OH225524   0.517   5.259   4.900 -0.6415 -0.1678 -0.0728
 1370TIP3    H125525   0.507   5.293   4.988 -3.7343  0.3338 -0.5272
 1370TIP3    H225526   0.480   5.326   4.843  0.9475 -0.6326 -1.7626
 1371TIP3   OH225527   4.515   5.409   4.930  0.1157 -0.0328 -0.4580
 1371TIP3    H125528   4.592   5.365   4.894  0.7333  0.5511  0.1326
 1371TIP3    H225529   4.464   5.435   4.853 -1.2651 -3.3928 -0.8608
 1372TIP3   OH225530   2.464   1.856   0.446 -0.1715  0.9601 -0.7587
 1372TIP3    H125531   2.482   1.840   0.353 -0.1188 -0.0566 -0.5873
 1372TIP3    H225532   2.494   1.776   0.490 -1.2705  0.9518 -0.0017
 1373TIP3   OH225533   0.992   6.667  15.456 -0.3301  0.0984  0.1862
 1373TIP3    H125534   1.067   6.683  15.398  0.4768 -1.3419  0.7590
 1373TIP3    H225535   0.931   6.615  15.404 -0.8719  1.1228 -0.2242
 1374TIP3   OH225536   4.729   5.749  13.754 -0.1028  0.7467  0.4408
 1374TIP3    H125537   4.784   5.707  13.688 -0.6391 -0.4718  0.7476
 1374TIP3    H225538   4.640   5.738  13.722 -0.2830  1.3847  0.6978
 1375TIP3   OH225539   4.475   5.728  13.607 -0.1910 -0.6831  0.3066
 1375TIP3    H125540   4.432   5.791  13.664  0.6032  1.0102 -0.8716
 1375TIP3    H225541   4.458   5.760  13.518  2.8121 -0.2870 -0.2436
 1376TIP3   OH225542   5.539   5.255  12.762  0.0637  0.3791  0.1988
 1376TIP3    H125543   5.474   5.308  12.808 -0.8246 -1.2336  0.8887
 1376TIP3    H225544   5.507   5.165  12.772  1.3149 -0.2594 -1.2395
 1377TIP3   OH225545   4.316   2.216   1.240  0.2144  0.4527 -0.1959
 1377TIP3    H125546   4.405   2.180   1.234  0.0641  0.0924 -0.3324
 1377TIP3    H225547   4.308   2.247   1.330  0.7372  1.1807 -0.3947
 1378TIP3   OH225548   5.327   1.171   3.511 -0.5448  0.8116 -0.3948
 1378TIP3    H125549   5.416   1.147   3.533 -1.2075 -0.6533  0.8788
 1378TIP3    H225550   5.282   1.179   3.596 -1.4878  2.1284 -0.9754
 1379TIP3   OH225551   1.497   2.647  17.405 -0.4773 -0.0826  0.3719
 1379TIP3    H125552   1.405   2.634  17.428 -0.2518 -0.6159  1.0379
 1379TIP3    H225553   1.545   2.604  17.477  0.3432  2.9284  1.7891
 1380TIP3   OH225554   2.706   2.434  13.062  0.2002  0.0130  0.1463
 1380TIP3    H125555   2.644   2.398  13.126  2.3063 -0.5818  1.9828
 1380TIP3    H225556   2.689   2.528  13.062  0.1340  0.0245  1.6013
 1381TIP3   OH225557   2.072   0.513   2.917 -0.3976 -0.3547  0.0081
 1381TIP3    H125558   1.997   0.571   2.928  1.4224  2.3389 -0.8483
 1381TIP3    H225559   2.145   0.560   2.957  1.4311 -1.4114 -1.8633
 1382TIP3   OH225560   1.165   5.059  13.935 -0.0043  0.5268 -0.0011
 1382TIP3    H125561   1.237   5.121  13.946 -0.1400  1.2645 -2.6216
 1382TIP3    H225562   1.188   5.008  13.857 -1.1878 -0.9046  0.5196
 1383TIP3   OH225563   4.895   4.170  10.950  0.3404  0.0889  0.3191
 1383TIP3    H125564   4.892   4.130  11.037 -0.0348  1.1534  0.8114
 1383TIP3    H225565   4.831   4.120  10.899  1.7528 -1.6378  0.1356
 1384TIP3   OH225566   5.023   4.061  15.743 -0.4600 -0.0596 -0.3833
 1384TIP3    H125567   4.992   3.978  15.781  1.7874 -0.6153  0.4287
 1384TIP3    H225568   4.986   4.128  15.800 -1.5929 -0.5257 -0.5286
 1385TIP3   OH225569   3.205   4.022  14.378 -0.7264 -0.3194 -0.6293
 1385TIP3    H125570   3.241   4.095  14.328  0.4965 -0.7281 -0.3830
 1385TIP3    H225571   3.278   3.960  14.386 -0.4143  0.2998  2.7435
 1386TIP3   OH225572   5.872   4.399  15.553  0.0622  0.0002  0.7392
 1386TIP3    H125573   5.964   4.371  15.550  0.3779  1.0271  0.7397
 1386TIP3    H225574   5.848   4.408  15.461  0.0753  0.1168  0.7474
 1387TIP3   OH225575   0.844   1.059   3.956  0.6218  0.1253 -0.5530
 1387TIP3    H125576   0.837   0.963   3.962  2.0555  0.0787  1.3950
 1387TIP3    H225577   0.826   1.090   4.045  0.6382  1.6455 -1.0515
 1388TIP3   OH225578   2.717   4.430  15.469 -0.0075  0.2874  0.2688
 1388TIP3    H125579   2.691   4.371  15.540 -0.2795  1.4914  1.2159
 1388TIP3    H225580   2.648   4.421  15.403 -1.3688  1.3246  1.4958
 1389TIP3   OH225581   0.145   3.230  15.118  0.3743 -0.1213  0.4401
 1389TIP3    H125582   0.227   3.232  15.070 -0.0957 -0.7312 -0.4141
 1389TIP3    H225583   0.112   3.320  15.113 -0.4586 -0.4819 -1.8343
 1390TIP3   OH225584   1.613   6.306  16.746 -0.2102  0.2074 -0.1627
 1390TIP3    H125585   1.635   6.295  16.654 -3.5047 -0.1198 -1.0255
 1390TIP3    H225586   1.603   6.401  16.757  0.4471  0.2680 -0.0450
 1391TIP3   OH225587   0.505   3.833  14.058  0.0513 -0.1737  0.4898
 1391TIP3    H125588   0.437   3.897  14.080 -0.4285  0.3636 -2.2037
 1391TIP3    H225589   0.462   3.772  13.998  1.6403 -0.5125 -0.3645
 1392TIP3   OH225590   4.024   4.259  11.794 -0.6943  0.0331  0.3812
 1392TIP3    H125591   3.971   4.287  11.869 -0.2502  1.3669  0.2135
 1392TIP3    H225592   4.109   4.236  11.832  0.1584  2.5213  0.1125
 1393TIP3   OH225593   4.424   0.909  14.049 -0.5425  0.0643  0.0189
 1393TIP3    H125594   4.416   0.825  14.005  1.5993  0.4586 -1.2758
 1393TIP3    H225595   4.492   0.895  14.116 -0.9709  0.4843  0.5532
 1394TIP3   OH225596   0.798   5.603   3.020 -0.0396 -0.0801  0.0418
 1394TIP3    H125597   0.714   5.645   3.001 -0.3228  0.0615  1.4730
 1394TIP3    H225598   0.785   5.563   3.106  1.0952 -0.8002 -0.1059
 1395TIP3   OH225599   4.623   0.246  17.158 -0.4277  0.2837 -0.3252
 1395TIP3    H125600   4.613   0.272  17.067  2.0804 -0.2001 -0.8132
 1395TIP3    H225601   4.633   0.328  17.206  1.4134  0.4771 -0.9814
 1396TIP3   OH225602   3.711   6.083   0.296 -0.1272  0.6547 -0.4490
 1396TIP3    H125603   3.617   6.092   0.305 -0.0967  1.5528 -0.9273
 1396TIP3    H225604   3.729   5.991   0.316 -1.0143  0.6433  0.3096
 1397TIP3   OH225605   5.792   1.458   0.989  0.3671  0.6110 -0.5015
 1397TIP3    H125606   5.764   1.541   1.027 -0.6407  0.6535 -1.2944
 1397TIP3    H225607   5.792   1.397   1.062 -0.0756  1.0275 -0.1458
 1398TIP3   OH225608   4.059   1.022  17.060  0.4358 -0.1757  0.0615
 1398TIP3    H125609   4.102   0.957  17.116 -3.3950 -1.5025  1.7832
 1398TIP3    H225610   3.985   0.976  17.021 -0.7561  2.4238 -1.0035
 1399TIP3   OH225611   5.941   6.264  13.941  0.4763 -0.5214 -0.0761
 1399TIP3    H125612   6.030   6.229  13.929  0.9457  0.2373  1.0443
 1399TIP3    H225613   5.921   6.305  13.857 -0.3232 -3.8285 -1.6559
 1400TIP3   OH225614   0.678   4.105  12.866  0.1612  0.4465  0.3865
 1400TIP3    H125615   0.699   4.030  12.923  0.4082  0.7742  0.7331
 1400TIP3    H225616   0.611   4.072  12.807  0.9223 -0.3325 -0.0745
 1401TIP3   OH225617   4.121   2.520   3.711 -0.5418  0.3933  0.2602
 1401TIP3    H125618   4.164   2.462   3.774 -0.6001  0.1836  0.1048
 1401TIP3    H225619   4.046   2.471   3.680 -0.2508  0.3145 -0.3280
 1402TIP3   OH225620   4.098   1.538  16.625 -0.4712  0.0386 -0.1449
 1402TIP3    H125621   4.085   1.539  16.530  0.1743  3.3569 -0.2919
 1402TIP3    H225622   4.010   1.548  16.661 -0.7474 -1.4636 -0.3013
 1403TIP3   OH225623   5.182   3.545   1.297 -0.2277 -0.0224 -0.5323
 1403TIP3    H125624   5.226   3.630   1.289 -0.7219  0.4212  0.9827
 1403TIP3    H225625   5.231   3.500   1.367 -0.1312 -0.8856 -1.1418
 1404TIP3   OH225626   4.380   4.518   5.480 -0.1412 -0.1802  0.0320
 1404TIP3    H125627   4.428   4.493   5.559  1.5031  1.4089 -0.4244
 1404TIP3    H225628   4.296   4.472   5.488  1.1418 -2.4957  1.1924
 1405TIP3   OH225629   0.313   4.814   6.060 -0.0238 -0.4686  0.2261
 1405TIP3    H125630   0.403   4.781   6.060 -0.2113 -1.0630 -1.2970
 1405TIP3    H225631   0.274   4.777   5.981 -1.6663 -0.3572  0.9374
 1406TIP3   OH225632   4.804   6.699  10.575 -0.1544 -0.1975 -0.1829
 1406TIP3    H125633   4.733   6.648  10.616 -1.5924  2.1157  0.3867
 1406TIP3    H225634   4.806   6.668  10.484 -0.5187 -1.6845  0.2806
 1407TIP3   OH225635   2.567   3.059   6.185  0.0076 -0.4752 -0.1995
 1407TIP3    H125636   2.579   2.972   6.224  1.4049 -0.8636 -1.4234
 1407TIP3    H225637   2.473   3.066   6.172 -0.1558 -1.7102  0.1432
 1408TIP3   OH225638   2.195   1.241  14.887  0.2509 -0.6496  1.0717
 1408TIP3    H125639   2.231   1.262  14.974 -1.1125 -1.7755  1.9572
 1408TIP3    H225640   2.183   1.146  14.889  0.8402 -0.7893 -0.6454
 1409TIP3   OH225641   2.813   4.314   4.823  0.8148 -0.5721  0.0241
 1409TIP3    H125642   2.860   4.394   4.798  0.3458  0.0206  0.9835
 1409TIP3    H225643   2.814   4.260   4.744 -1.5381  1.6693 -1.7036
 1410TIP3   OH225644   4.055   6.606   4.747 -0.1347  0.5868  0.3507
 1410TIP3    H125645   4.135   6.581   4.793 -1.1299 -1.8236  0.9626
 1410TIP3    H225646   4.063   6.700   4.733  2.7722  0.4275  0.3869
 1411TIP3   OH225647   3.095   0.356   3.904 -0.2462 -0.2259  0.1330
 1411TIP3    H125648   3.079   0.435   3.955 -3.0322 -1.0397  0.6644
 1411TIP3    H225649   3.187   0.364   3.876 -0.3015  2.9568  0.4780
 1412TIP3   OH225650   4.182   5.363  12.223  0.4299  0.0715 -0.2108
 1412TIP3    H125651   4.092   5.359  12.255 -0.2896  2.4112 -1.6862
 1412TIP3    H225652   4.181   5.314  12.141  1.0205 -1.5129  0.6824
 1413TIP3   OH225653   6.165   5.294   1.976  0.5544  0.0719 -0.0163
 1413TIP3    H125654   6.212   5.211   1.966 -1.1420 -0.8723 -0.4366
 1413TIP3    H225655   6.144   5.321   1.886  0.5764  0.6543  0.1477
 1414TIP3   OH225656   2.631   4.444   1.178 -0.2236  0.6292  0.3289
 1414TIP3    H125657   2.611   4.496   1.100  2.1633  1.8521  0.4357
 1414TIP3    H225658   2.675   4.366   1.145  0.3912  0.9361  0.4114
 1415TIP3   OH225659   0.421   5.590   5.281 -0.4677  0.2302 -0.1890
 1415TIP3    H125660   0.376   5.660   5.329 -0.4206  1.2423 -1.5396
 1415TIP3    H225661   0.500   5.573   5.333 -2.0124 -1.1378  1.8729
 1416TIP3   OH225662   1.786   0.483  15.466  0.5430 -0.0472  0.4610
 1416TIP3    H125663   1.845   0.555  15.444  0.0288 -0.1237 -1.2585
 1416TIP3    H225664   1.825   0.406  15.424 -0.4809 -0.1949 -0.2496
 1417TIP3   OH225665   3.860   1.612  17.098  0.0661 -0.6035 -0.2615
 1417TIP3    H125666   3.924   1.622  17.028 -0.2789  2.4040 -0.2999
 1417TIP3    H225667   3.911   1.622  17.179  0.2041 -2.3163 -0.1106
 1418TIP3   OH225668   0.507   1.749  15.986 -0.0492 -0.5741  0.4673
 1418TIP3    H125669   0.559   1.811  15.936 -0.4394 -0.1001  0.6446
 1418TIP3    H225670   0.416   1.771  15.965 -0.1936 -0.9639  0.6745
 1419TIP3   OH225671   4.388   1.715  12.426 -0.6035 -0.2856 -0.0968
 1419TIP3    H125672   4.404   1.684  12.515  3.1562  1.1127 -0.1425
 1419TIP3    H225673   4.333   1.792  12.437 -0.8854 -0.6099  0.9064
 1420TIP3   OH225674   4.217   2.242  13.976  0.6914  0.4915 -1.0829
 1420TIP3    H125675   4.190   2.252  13.885 -1.5063  0.1852 -0.5457
 1420TIP3    H225676   4.177   2.159  14.003  0.0983  1.2496  0.5194
 1421TIP3   OH225677   0.263   6.672  15.402 -0.0537 -0.6201  0.2533
 1421TIP3    H125678   0.322   6.636  15.336  1.2322 -0.0584  1.0349
 1421TIP3    H225679   0.238   6.758  15.368 -1.4012 -1.3247 -0.6182
 1422TIP3   OH225680   1.832   2.894  14.312  0.3996 -0.2117  0.0980
 1422TIP3    H125681   1.738   2.874  14.319  0.3965  0.1661  1.2083
 1422TIP3    H225682   1.834   2.988  14.296  0.5584 -0.4268 -1.2806
 1423TIP3   OH225683   1.895   4.415   0.169  0.0469  0.0804 -0.6624
 1423TIP3    H125684   1.851   4.392   0.087 -0.9793 -0.6398  0.0724
 1423TIP3    H225685   1.824   4.433   0.230  0.7783 -0.6098  0.4168
 1424TIP3   OH225686   1.254   2.627  12.083  0.0928  0.3747  0.0435
 1424TIP3    H125687   1.258   2.722  12.094  1.6923  0.4027 -0.5153
 1424TIP3    H225688   1.329   2.606  12.028 -0.7497 -1.1297 -0.5953
 1425TIP3   OH225689   4.606   0.436  17.354  0.0097 -0.1245  0.0343
 1425TIP3    H125690   4.549   0.513  17.347  0.8465  0.4751 -0.3228
 1425TIP3    H225691   4.594   0.405  17.443 -1.8090 -0.7524 -0.3767
 1426TIP3   OH225692   0.771   5.214  16.031  0.1913  0.4205  0.2376
 1426TIP3    H125693   0.690   5.254  16.063  0.6543  0.7296  1.0528
 1426TIP3    H225694   0.775   5.130  16.077  0.6682  0.7015  0.7173
 1427TIP3   OH225695   1.463   5.358   0.711 -0.1847 -0.1811  0.1446
 1427TIP3    H125696   1.390   5.384   0.655 -0.0678  0.9840  0.5131
 1427TIP3    H225697   1.540   5.398   0.671  0.0189 -0.0396  0.6632
 1428TIP3   OH225698   1.008   1.396  12.179  0.0733 -0.0178  0.1196
 1428TIP3    H125699   1.099   1.410  12.154  1.0057 -2.7194  1.5041
 1428TIP3    H225700   0.962   1.382  12.096  1.1103  0.4191 -0.5514
 1429TIP3   OH225701   3.265   4.993   5.414  0.6488 -0.6429 -0.3021
 1429TIP3    H125702   3.190   5.045   5.387  0.1403 -0.3740  1.4980
 1429TIP3    H225703   3.272   4.924   5.349 -0.4436  0.0072 -1.1285
 1430TIP3   OH225704   6.069   5.706  16.534  0.6663 -0.0388 -0.2733
 1430TIP3    H125705   6.072   5.762  16.612 -1.8090  2.7049 -1.9249
 1430TIP3    H225706   6.075   5.767  16.461 -0.2930 -2.1657 -2.2412
 1431TIP3   OH225707   0.042   3.820   2.426  0.7068  0.0660 -0.6048
 1431TIP3    H125708   0.084   3.744   2.386  0.3437 -1.0200  0.9870
 1431TIP3    H225709  -0.047   3.791   2.447 -0.1716  1.6272 -1.8932
 1432TIP3   OH225710   0.413   4.418  11.263 -0.3697 -0.3851 -0.5580
 1432TIP3    H125711   0.320   4.416  11.242 -0.0306  1.0699 -2.5344
 1432TIP3    H225712   0.434   4.511  11.269  0.9685 -0.6828 -0.2448
 1433TIP3   OH225713   0.841   2.367   2.464  0.4123 -0.1067  0.2804
 1433TIP3    H125714   0.800   2.346   2.380  0.9205 -3.8566  0.7855
 1433TIP3    H225715   0.935   2.367   2.446  0.4977 -0.1093  0.7000
 1434TIP3   OH225716   1.150   3.517  12.869  0.6776 -0.3404  0.1099
 1434TIP3    H125717   1.168   3.423  12.871  1.5793 -0.1559  0.9098
 1434TIP3    H225718   1.214   3.553  12.808 -0.3030 -0.3515 -0.9764
 1435TIP3   OH225719   2.886   0.141   5.688  0.3353 -0.2681 -0.2417
 1435TIP3    H125720   2.906   0.129   5.781 -1.4408  2.0144  0.5292
 1435TIP3    H225721   2.846   0.059   5.661  0.0576 -0.6503  1.2530
 1436TIP3   OH225722   3.989   0.519  12.985  0.5212  0.0881 -0.3111
 1436TIP3    H125723   3.940   0.462  12.926  1.4503 -0.1647 -0.8659
 1436TIP3    H225724   4.038   0.578  12.928  0.3468  0.7839  0.2397
 1437TIP3   OH225725   4.235   2.047   2.007  0.4901 -0.3276  0.0033
 1437TIP3    H125726   4.154   2.023   1.961  0.3436 -1.6122  0.8793
 1437TIP3    H225727   4.298   2.064   1.937 -0.1701 -0.6242 -0.6795
 1438TIP3   OH225728   0.232   5.182  10.998  0.2185  0.3848  0.1710
 1438TIP3    H125729   0.173   5.107  11.000 -0.0173  0.5803  0.9596
 1438TIP3    H225730   0.194   5.240  10.933  0.4004 -0.1720 -0.4466
 1439TIP3   OH225731   6.204   1.238  16.384  0.1805 -0.1662 -0.2818
 1439TIP3    H125732   6.172   1.179  16.452  1.7193  0.1534  0.7755
 1439TIP3    H225733   6.132   1.244  16.321 -0.7639 -1.5535  0.6164
 1440TIP3   OH225734   1.381   2.046   5.507 -0.4710 -0.2659  0.0586
 1440TIP3    H125735   1.460   2.075   5.552 -0.3486  0.1518 -0.4160
 1440TIP3    H225736   1.341   1.982   5.566  1.2158 -1.9489 -0.5417
 1441TIP3   OH225737   5.855   2.457   5.689 -0.6164  0.1206 -0.2034
 1441TIP3    H125738   5.792   2.471   5.618 -0.2558 -2.2791 -1.0884
 1441TIP3    H225739   5.939   2.450   5.644 -0.0768  0.7054  0.7017
 1442TIP3   OH225740   1.960   4.550  12.767 -0.4071  0.1637  0.2695
 1442TIP3    H125741   1.951   4.582  12.677  1.3477 -0.2129 -0.0676
 1442TIP3    H225742   1.953   4.455  12.760 -1.5992  0.1962  0.7388
 1443TIP3   OH225743   4.368   5.471  13.440 -0.1274 -0.2269  0.8077
 1443TIP3    H125744   4.423   5.412  13.388 -0.3552 -0.9054  1.3070
 1443TIP3    H225745   4.306   5.508  13.378  0.1906 -0.3120  0.4353
 1444TIP3   OH225746   1.678   0.394  16.495 -0.2816 -0.7420 -0.1255
 1444TIP3    H125747   1.761   0.387  16.542 -0.5857  0.2971  0.5872
 1444TIP3    H225748   1.613   0.410  16.563 -0.8696 -0.1331 -0.8107
 1445TIP3   OH225749   3.015   3.308  12.524 -0.1064 -0.1191 -0.0883
 1445TIP3    H125750   3.110   3.305  12.508  0.1453  2.1837  0.5330
 1445TIP3    H225751   3.005   3.274  12.612  0.6182  2.4169  1.0821
 1446TIP3   OH225752   0.325   6.118   6.168 -0.1334  0.3704 -0.5932
 1446TIP3    H125753   0.318   6.062   6.091  0.6588 -0.4140 -0.1101
 1446TIP3    H225754   0.402   6.173   6.151 -0.0012  0.2474 -0.3977
 1447TIP3   OH225755   3.928   2.304  15.524  0.1366 -0.3561  0.2449
 1447TIP3    H125756   3.923   2.394  15.557 -1.4219 -0.2481 -0.2228
 1447TIP3    H225757   3.874   2.254  15.584 -0.7010 -0.5977 -0.6931
 1448TIP3   OH225758   6.100   1.524   1.209 -0.0183 -0.0081 -0.0651
 1448TIP3    H125759   6.082   1.613   1.239  0.5847  0.6468 -1.5445
 1448TIP3    H225760   6.195   1.523   1.192  0.4471 -1.6867  2.2332
 1449TIP3   OH225761   1.584   4.127   0.677 -0.2028 -0.3537  0.1064
 1449TIP3    H125762   1.524   4.163   0.611  0.3500 -1.2273 -0.9099
 1449TIP3    H225763   1.657   4.188   0.678 -0.1357 -0.4270 -0.2196
 1450TIP3   OH225764   6.438   2.346  14.280 -0.1610 -0.0496 -0.3889
 1450TIP3    H125765   6.356   2.312  14.245  0.1512  0.2129 -1.3950
 1450TIP3    H225766   6.482   2.268  14.315 -0.5891 -0.2781 -0.3463
 1451TIP3   OH225767   3.161   0.328   2.186 -0.0361 -0.4633 -0.2343
 1451TIP3    H125768   3.158   0.277   2.267 -0.1221 -1.4871 -0.8572
 1451TIP3    H225769   3.164   0.419   2.215 -1.4747 -0.7372  0.9135
 1452TIP3   OH225770   6.394   1.801   1.751  0.1840 -0.2927 -0.4598
 1452TIP3    H125771   6.451   1.797   1.828  0.4009  0.7413 -0.5467
 1452TIP3    H225772   6.440   1.858   1.690  1.1850 -2.9984 -2.4222
 1453TIP3   OH225773   4.204   5.637  13.279 -0.2569  0.5512  0.3432
 1453TIP3    H125774   4.253   5.670  13.203 -0.6153 -0.0238 -0.1415
 1453TIP3    H225775   4.113   5.657  13.259 -0.3830  0.1080  0.4738
 1454TIP3   OH225776   3.210   4.308  17.270 -0.0474  0.2782 -0.2847
 1454TIP3    H125777   3.206   4.333  17.178 -0.7622  0.5571 -0.1859
 1454TIP3    H225778   3.145   4.363  17.313 -0.0736 -0.1975  0.3056
 1455TIP3   OH225779   3.096   3.847   0.694  0.2526 -0.3927 -0.5682
 1455TIP3    H125780   3.084   3.815   0.605 -1.8125 -1.0196 -0.1101
 1455TIP3    H225781   3.013   3.889   0.717 -1.3323 -4.5823  2.7321
 1456TIP3   OH225782   1.972   1.162   2.483  0.3535  0.6132  0.3078
 1456TIP3    H125783   2.052   1.143   2.532  1.2129 -3.0780 -2.1667
 1456TIP3    H225784   2.002   1.206   2.404 -0.6214  2.9758  1.1543
 1457TIP3   OH225785   5.735   2.490  16.143  0.8058 -0.3765 -0.1116
 1457TIP3    H125786   5.788   2.411  16.156  0.5389 -0.4431  0.6556
 1457TIP3    H225787   5.683   2.471  16.064 -1.4454 -2.2567  1.6599
 1458TIP3   OH225788   4.108   0.836  14.165 -0.5639 -0.0755  0.1139
 1458TIP3    H125789   4.169   0.885  14.221  0.3242 -1.2509  0.2152
 1458TIP3    H225790   4.029   0.890  14.163 -1.8424 -1.2712  5.0180
 1459TIP3   OH225791   4.498   5.815  15.219 -0.0510  0.7866  0.0374
 1459TIP3    H125792   4.461   5.847  15.300  1.2160  0.1864  0.8927
 1459TIP3    H225793   4.581   5.775  15.245 -1.0804 -2.3615 -1.0546
 1460TIP3   OH225794   0.027   1.752   6.767 -0.7950  0.2256  0.1055
 1460TIP3    H125795  -0.001   1.706   6.688 -0.7337  1.7197 -0.8411
 1460TIP3    H225796  -0.051   1.797   6.798 -0.4038  1.1675 -0.2239
 1461TIP3   OH225797   0.208   4.973   3.914 -0.7260  0.0896  0.3467
 1461TIP3    H125798   0.274   5.041   3.924 -1.5522  1.0326 -0.3355
 1461TIP3    H225799   0.201   4.932   4.000  1.6663 -0.9414  0.1171
 1462TIP3   OH225800   3.929   5.180   1.920  0.1327 -0.0404  0.2957
 1462TIP3    H125801   3.958   5.089   1.934  0.4957 -0.2619 -1.5282
 1462TIP3    H225802   4.003   5.233   1.951  0.5885 -0.4464 -0.0609
 1463TIP3   OH225803   5.683   3.457  12.329  0.7170  0.2834  0.0454
 1463TIP3    H125804   5.596   3.469  12.367  0.1236 -1.5146 -0.6180
 1463TIP3    H225805   5.715   3.375  12.367  1.4630  0.1336 -0.8628
 1464TIP3   OH225806   3.817   1.547  14.024  0.4014 -0.2805 -0.0522
 1464TIP3    H125807   3.817   1.472  14.083  0.3765  0.1406  0.4842
 1464TIP3    H225808   3.787   1.621  14.078 -0.0093  0.0277 -0.6869
 1465TIP3   OH225809   4.897   5.795  12.844  0.3770 -0.9285 -0.6170
 1465TIP3    H125810   4.888   5.704  12.815 -0.5361  0.4248 -5.2580
 1465TIP3    H225811   4.983   5.822  12.814  0.6054 -0.1785  0.6332
 1466TIP3   OH225812   0.067   5.412  15.898 -0.0660  0.5377 -0.2156
 1466TIP3    H125813   0.006   5.444  15.963 -0.9182  0.6337 -1.0452
 1466TIP3    H225814   0.153   5.424  15.938 -0.6167 -0.4658  1.3412
 1467TIP3   OH225815   5.259   3.053   1.426  0.7698 -0.6364 -0.0321
 1467TIP3    H125816   5.265   3.143   1.393  2.6102 -1.3253 -1.7948
 1467TIP3    H225817   5.213   3.005   1.356 -2.0240 -0.7750  1.7430
 1468TIP3   OH225818   5.680   4.135   1.296 -0.9234  0.0856  0.3639
 1468TIP3    H125819   5.708   4.208   1.241 -0.0249 -0.3094  0.2773
 1468TIP3    H225820   5.612   4.172   1.352 -1.2244  0.7134 -0.4037
 1469TIP3   OH225821   4.775   3.598   4.957 -0.5622  0.1263  0.3643
 1469TIP3    H125822   4.822   3.667   4.910 -1.0217 -0.1465 -0.5140
 1469TIP3    H225823   4.845   3.543   4.993 -0.1765 -0.3207 -0.9969
 1470TIP3   OH225824   1.303   2.048  15.741  0.0304 -0.8806  0.5289
 1470TIP3    H125825   1.340   2.054  15.830 -0.9736  1.4603  0.8749
 1470TIP3    H225826   1.379   2.031  15.685  1.2966  1.1840  1.4949
 1471TIP3   OH225827   0.110   5.189   6.527 -0.0593  0.1023 -0.0963
 1471TIP3    H125828   0.042   5.239   6.572  1.3270  0.9452  1.1685
 1471TIP3    H225829   0.072   5.102   6.516 -1.3550  0.5532  0.5277
 1472TIP3   OH225830   5.569   1.040  15.451 -0.0858 -0.2191  0.3781
 1472TIP3    H125831   5.545   1.124  15.412  1.1360  0.5116  1.1418
 1472TIP3    H225832   5.494   0.983  15.433 -0.2739  0.5636 -1.5087
 1473TIP3   OH225833   2.174   1.668   5.929 -0.2502 -0.4097  0.3386
 1473TIP3    H125834   2.182   1.730   5.857 -3.1374 -0.6420 -0.2884
 1473TIP3    H225835   2.253   1.682   5.981  0.5368  1.7932 -1.2874
 1474TIP3   OH225836   3.655   1.744  16.199  0.4969  0.0294 -0.3973
 1474TIP3    H125837   3.564   1.734  16.170  0.7605 -2.3786 -0.6261
 1474TIP3    H225838   3.658   1.831  16.238 -2.2021 -0.1972  0.5722
 1475TIP3   OH225839   3.137   4.040  14.646 -0.0329  0.3981  0.9312
 1475TIP3    H125840   3.194   4.033  14.570  0.8252  0.5907  1.5394
 1475TIP3    H225841   3.109   4.131  14.647  1.2522  0.8079  1.7351
 1476TIP3   OH225842   1.749   5.608  13.205 -0.8098 -0.5125  0.2473
 1476TIP3    H125843   1.686   5.565  13.262 -0.4680 -1.0314  0.2474
 1476TIP3    H225844   1.797   5.536  13.163  0.1378 -0.1441  0.6510
 1477TIP3   OH225845   6.025   3.295   1.717  0.1476  0.1369 -0.0817
 1477TIP3    H125846   5.938   3.281   1.681 -1.2058  0.2570  2.8539
 1477TIP3    H225847   6.028   3.389   1.737  0.4811 -0.0693  0.9083
 1478TIP3   OH225848   4.987   1.036   2.783  0.3062 -0.4149 -0.0515
 1478TIP3    H125849   5.010   0.963   2.841  0.7551 -1.5228 -1.5604
 1478TIP3    H225850   5.069   1.083   2.771 -0.3990  1.8612  2.7832
 1479TIP3   OH225851   4.982   5.352   3.362  0.3148  0.1695  0.1873
 1479TIP3    H125852   4.901   5.345   3.311  0.5430  0.0960 -0.1739
 1479TIP3    H225853   4.954   5.363   3.452 -0.0918 -0.8478  0.1895
 1480TIP3   OH225854   5.667   0.841   4.633 -0.2680  0.2701  0.5388
 1480TIP3    H125855   5.600   0.773   4.632 -0.2979  0.2417  1.7884
 1480TIP3    H225856   5.619   0.923   4.620 -0.2521  0.0764 -0.8134
 1481TIP3   OH225857   2.442   6.001  11.734  0.0193  0.0750 -0.0439
 1481TIP3    H125858   2.373   6.014  11.799  0.6689  2.1639  0.2901
 1481TIP3    H225859   2.522   6.032  11.777  0.4663  1.5168 -1.8076
 1482TIP3   OH225860   5.601   5.401  13.573 -0.4044  0.5425  1.0326
 1482TIP3    H125861   5.562   5.355  13.648  0.9288 -0.2893  1.2550
 1482TIP3    H225862   5.654   5.334  13.529 -0.8099  1.1348 -0.4033
 1483TIP3   OH225863   1.579   3.335  16.862  0.0235 -0.2599  0.1283
 1483TIP3    H125864   1.618   3.321  16.776  1.5489  0.1557  0.7264
 1483TIP3    H225865   1.491   3.369  16.843 -0.9459 -3.1934 -1.2659
 1484TIP3   OH225866   6.231   5.964  14.948  0.3112  0.6791  0.1764
 1484TIP3    H125867   6.287   5.901  14.994  1.6005  1.2061 -0.6266
 1484TIP3    H225868   6.144   5.949  14.984  0.4030 -2.1195 -0.5210
 1485TIP3   OH225869   2.115   3.977   2.254 -0.5459  0.2810  0.0443
 1485TIP3    H125870   2.053   3.976   2.327  1.2920 -1.0997  1.6600
 1485TIP3    H225871   2.129   3.885   2.232 -0.9402  0.6556 -2.0129
 1486TIP3   OH225872   2.099   6.711   6.160 -0.5873  0.4884  0.1749
 1486TIP3    H125873   2.111   6.802   6.187  1.8303  0.0946  0.6542
 1486TIP3    H225874   2.130   6.659   6.235  0.3256 -0.6747 -0.9607
 1487TIP3   OH225875   5.057   1.724  11.538  0.3409 -0.4698  0.0378
 1487TIP3    H125876   5.051   1.749  11.630 -3.9501 -1.2402  0.1659
 1487TIP3    H225877   5.033   1.803  11.490 -1.5462 -1.0734 -0.1094
 1488TIP3   OH225878   5.576   0.686   2.334 -0.2677  0.5928 -0.4437
 1488TIP3    H125879   5.533   0.604   2.357 -0.7521  0.4288 -1.8444
 1488TIP3    H225880   5.645   0.696   2.400 -0.1765 -0.9590 -0.2699
 1489TIP3   OH225881   4.106   0.750   1.669  0.1296 -0.2216 -0.4990
 1489TIP3    H125882   4.056   0.685   1.719  1.0408 -1.6824 -1.3960
 1489TIP3    H225883   4.053   0.765   1.591 -0.3948  0.6492  0.0042
 1490TIP3   OH225884   2.318   5.669   6.022  0.3115  0.4382 -0.6601
 1490TIP3    H125885   2.347   5.747   5.975  0.1836  0.8545 -0.0605
 1490TIP3    H225886   2.362   5.674   6.107 -1.7295  1.2902  0.4264
 1491TIP3   OH225887   4.592   6.317  14.212 -0.0114 -0.1370  0.1054
 1491TIP3    H125888   4.584   6.310  14.307 -0.8676 -0.1225  0.0356
 1491TIP3    H225889   4.687   6.320  14.196  0.1392 -0.3815  0.9366
 1492TIP3   OH225890   0.148   1.228  17.375 -0.0239  0.2868 -0.0711
 1492TIP3    H125891   0.231   1.187  17.399 -1.2478 -1.1684  2.0397
 1492TIP3    H225892   0.100   1.234  17.457 -2.2532  0.5130 -1.3151
 1493TIP3   OH225893   1.583   0.525   4.841  0.2870 -0.1194 -0.2303
 1493TIP3    H125894   1.618   0.437   4.825 -1.2487 -0.6172 -1.1055
 1493TIP3    H225895   1.517   0.513   4.909  0.2865  0.4109 -0.1330
 1494TIP3   OH225896   0.757   6.493   2.357 -0.1997  0.7091  0.2828
 1494TIP3    H125897   0.683   6.540   2.318 -0.6115 -0.9641 -1.1061
 1494TIP3    H225898   0.718   6.444   2.430 -0.4511 -0.0086 -0.3189
 1495TIP3   OH225899   4.415   5.664  13.083 -0.9276  0.0395 -0.0353
 1495TIP3    H125900   4.495   5.715  13.071 -0.0546 -0.6761  2.1496
 1495TIP3    H225901   4.396   5.627  12.997  0.2600  1.3968 -0.9139
 1496TIP3   OH225902   5.601   4.023   3.647  0.0868  0.1336 -0.1932
 1496TIP3    H125903   5.659   3.962   3.602 -0.0523  0.4611 -0.8258
 1496TIP3    H225904   5.569   3.974   3.723  2.1863  0.3597  0.9266
 1497TIP3   OH225905   0.526   2.320  11.812  0.1516  0.8260  0.2027
 1497TIP3    H125906   0.535   2.350  11.903  0.9516  0.9749  0.0782
 1497TIP3    H225907   0.615   2.320  11.777 -0.2103  1.3133 -0.7584
 1498TIP3   OH225908   0.671   3.030   3.135  0.0209 -0.2435 -0.2169
 1498TIP3    H125909   0.623   2.982   3.068  0.3270 -0.2063 -0.4651
 1498TIP3    H225910   0.611   3.099   3.164  0.1200  0.1346 -0.9008
 1499TIP3   OH225911   6.077   4.461   0.677  0.4166 -0.1072 -0.3022
 1499TIP3    H125912   6.009   4.511   0.634  0.2817 -0.8257 -0.9542
 1499TIP3    H225913   6.153   4.519   0.678 -0.1295  0.6161  0.2332
 1500TIP3   OH225914   0.787   5.304  11.270  0.0109 -0.0994  0.3031
 1500TIP3    H125915   0.817   5.337  11.186  3.6882  0.2034  1.5437
 1500TIP3    H225916   0.795   5.209  11.263  2.2094 -0.0023  0.8241
 1501TIP3   OH225917   4.491   4.766   3.504  0.2885  0.1840  0.3149
 1501TIP3    H125918   4.403   4.788   3.534  0.0675 -1.0170  0.6163
 1501TIP3    H225919   4.489   4.671   3.493  1.3390  0.2256 -0.3745
 1502TIP3   OH225920   0.315   5.624  12.922  0.0141  0.6304 -0.3429
 1502TIP3    H125921   0.402   5.662  12.938  0.1660  0.5985 -1.0197
 1502TIP3    H225922   0.254   5.693  12.949  0.2591  0.8012 -0.2125
 1503TIP3   OH225923   5.257   6.535   3.404 -0.2379  0.4534  0.2564
 1503TIP3    H125924   5.216   6.450   3.392  3.9255 -1.4611 -3.0951
 1503TIP3    H225925   5.320   6.521   3.475 -1.0056  1.4684  1.1673
 1504TIP3   OH225926   5.058   4.876  12.534  0.7413 -0.6275 -0.2386
 1504TIP3    H125927   5.011   4.829  12.604  0.3752  1.1340  0.7699
 1504TIP3    H225928   5.035   4.968  12.548  0.6979 -0.1965 -2.6841
 1505TIP3   OH225929   0.645   4.006   4.985  0.2027  0.4869 -0.4152
 1505TIP3    H125930   0.666   3.916   4.959 -1.8129  0.1429 -1.0970
 1505TIP3    H225931   0.595   4.041   4.911  0.2550  1.8955  0.1868
 1506TIP3   OH225932   5.922   2.186   3.827  0.1991 -0.5169  0.0925
 1506TIP3    H125933   5.966   2.243   3.890 -1.0365  0.3947  0.1655
 1506TIP3    H225934   5.981   2.111   3.817  1.6170  0.5197  0.3889
 1507TIP3   OH225935   3.235   5.580  16.509 -0.0231  0.6161  0.1090
 1507TIP3    H125936   3.238   5.529  16.429  0.3707  2.8566 -1.4024
 1507TIP3    H225937   3.210   5.668  16.481  0.5369  1.5960  2.3844
 1508TIP3   OH225938   5.761   3.549  11.269 -0.6276  0.1631 -0.5563
 1508TIP3    H125939   5.834   3.505  11.226 -1.0646 -0.0998 -1.0447
 1508TIP3    H225940   5.714   3.478  11.314 -0.9353  0.2342 -0.7640
 1509TIP3   OH225941   0.677   5.763  13.722 -0.9536 -0.0627 -0.1195
 1509TIP3    H125942   0.662   5.857  13.729  0.0124  0.0601  0.6657
 1509TIP3    H225943   0.768   5.756  13.692 -0.6765 -0.7305  0.8099
 1510TIP3   OH225944   3.616   4.333  14.300  0.1033  0.3669  0.0941
 1510TIP3    H125945   3.585   4.243  14.312  0.8307  0.1676  0.4874
 1510TIP3    H225946   3.667   4.330  14.219 -0.2064  0.5149 -0.1084
 1511TIP3   OH225947   5.961   3.179   4.857 -0.6705 -0.0802 -0.1397
 1511TIP3    H125948   5.994   3.269   4.862  1.2160 -0.7407  0.3056
 1511TIP3    H225949   5.879   3.180   4.907  0.7494  0.8160  2.3390
 1512TIP3   OH225950   5.832   0.693   2.581  0.4592 -0.3849 -0.4533
 1512TIP3    H125951   5.913   0.655   2.616  0.8457  0.0382 -0.8679
 1512TIP3    H225952   5.766   0.625   2.594  1.2540 -1.4440 -1.7292
 1513TIP3   OH225953   3.200   4.150   3.522 -0.7490 -0.2771 -0.5249
 1513TIP3    H125954   3.166   4.146   3.611  0.6895  1.1425  0.1372
 1513TIP3    H225955   3.195   4.059   3.490 -0.0713 -1.0717  1.4810
 1514TIP3   OH225956   5.432   0.850  13.625 -0.2532 -0.2580 -0.3402
 1514TIP3    H125957   5.489   0.921  13.595  0.1265 -0.0004  0.9496
 1514TIP3    H225958   5.425   0.791  13.549  0.3195  0.5815 -1.0632
 1515TIP3   OH225959   3.852   6.434   4.807 -0.7412  0.0750  0.1040
 1515TIP3    H125960   3.921   6.476   4.756  0.7097 -1.7837  0.4310
 1515TIP3    H225961   3.792   6.398   4.741 -1.1751  1.3073 -0.1911
 1516TIP3   OH225962   6.341   3.481  15.422  0.1634  0.2504 -0.2422
 1516TIP3    H125963   6.389   3.404  15.454  1.5423  0.5782 -1.3853
 1516TIP3    H225964   6.258   3.479  15.469  0.4171 -1.5880  0.2162
 1517TIP3   OH225965   3.856   6.062  12.669 -0.4056 -0.1156  0.3611
 1517TIP3    H125966   3.837   6.149  12.635  0.2438  0.2393  0.8827
 1517TIP3    H225967   3.782   6.008  12.640 -0.5252  0.4729 -0.4520
 1518TIP3   OH225968   3.623   1.023   0.048 -0.7482  0.3122  0.0636
 1518TIP3    H125969   3.567   1.077   0.104  1.0651  0.2625  2.0634
 1518TIP3    H225970   3.613   0.935   0.083  0.2701  0.2438  0.2113
 1519TIP3   OH225971   6.096   4.306   5.152 -0.1173 -0.7812 -0.2036
 1519TIP3    H125972   6.164   4.350   5.203  0.4831 -2.2557  0.3033
 1519TIP3    H225973   6.020   4.364   5.160  0.9757  0.7507 -0.5490
 1520TIP3   OH225974   2.756   5.564  11.789  0.1352  0.3189  0.0065
 1520TIP3    H125975   2.689   5.632  11.774  0.1161  0.5676  1.1441
 1520TIP3    H225976   2.830   5.612  11.827  0.8239 -0.0197 -0.8776
 1521TIP3   OH225977   6.162   2.612   3.142 -0.0213  0.1991  0.4571
 1521TIP3    H125978   6.174   2.635   3.050  0.3502 -1.9988 -0.1218
 1521TIP3    H225979   6.088   2.664   3.171  0.3934  1.5667 -0.8309
 1522TIP3   OH225980   6.469   0.027  10.636 -0.1896 -0.5292 -0.2206
 1522TIP3    H125981   6.415   0.031  10.715 -1.1777 -0.9525 -0.8434
 1522TIP3    H225982   6.490  -0.066  10.626  1.3230 -0.2795  0.4283
 1523TIP3   OH225983   0.311   4.335  12.355  0.0953 -0.4591 -0.1865
 1523TIP3    H125984   0.317   4.267  12.287 -0.4619 -0.1635 -0.5376
 1523TIP3    H225985   0.354   4.411  12.317 -2.8080  0.6800 -1.4677
 1524TIP3   OH225986   1.636   0.364   4.577  0.2216 -0.2392 -0.3602
 1524TIP3    H125987   1.642   0.320   4.662  0.8119  0.9648  0.2414
 1524TIP3    H225988   1.572   0.312   4.528 -0.6797 -0.5370  1.0694
 1525TIP3   OH225989   3.820   4.127  15.578  0.2031 -0.1616 -0.3689
 1525TIP3    H125990   3.814   4.066  15.652  0.2703  0.3242  0.0359
 1525TIP3    H225991   3.803   4.072  15.501 -0.8531 -0.4814  0.0746
 1526TIP3   OH225992   0.644   3.797  10.955 -0.0395 -0.5030  0.7743
 1526TIP3    H125993   0.627   3.708  10.924 -0.0585 -0.1575 -0.2155
 1526TIP3    H225994   0.597   3.854  10.894 -0.2137  0.1862  1.5324
 1527TIP3   OH225995   6.003   2.664   4.511 -0.3683  0.3410 -0.2025
 1527TIP3    H125996   5.921   2.636   4.553 -0.3414 -0.3843 -0.6201
 1527TIP3    H225997   6.003   2.619   4.427  0.5693  0.1582 -0.1082
 1528TIP3   OH225998   0.675   0.874   0.937 -0.5928  0.6552 -0.2940
 1528TIP3    H125999   0.677   0.944   1.002  0.2664  0.0380  0.3661
 1528TIP3    H226000   0.586   0.839   0.942 -0.7182  1.0215  0.1028
 1529TIP3   OH226001   2.129   6.447  14.038  0.3255  0.1468 -0.1285
 1529TIP3    H126002   2.177   6.502  14.101  1.7675 -0.0615 -0.9906
 1529TIP3    H226003   2.176   6.459  13.955 -1.5179  0.4150 -1.1968
 1530TIP3   OH226004   1.776   5.689  13.822 -0.6206  0.0172 -0.5781
 1530TIP3    H126005   1.865   5.720  13.807 -0.3355 -0.4189  0.1792
 1530TIP3    H226006   1.728   5.714  13.743 -0.4955  2.7299  0.1103
 1531TIP3   OH226007   0.832   2.153   1.448 -0.1471  0.5922  0.3254
 1531TIP3    H126008   0.824   2.219   1.380 -0.8938 -0.5565 -0.7544
 1531TIP3    H226009   0.755   2.097   1.436  0.2836 -0.2766  1.4115
 1532TIP3   OH226010   3.584   2.159  17.336  0.5080 -0.5121  0.5709
 1532TIP3    H126011   3.573   2.064  17.337 -0.0628 -0.4666 -0.3095
 1532TIP3    H226012   3.675   2.173  17.362  0.2248 -1.2231  2.0324
 1533TIP3   OH226013   0.950   0.762  11.948  0.0353  0.1753  0.5156
 1533TIP3    H126014   0.907   0.688  11.905 -0.6012  0.0758  1.2888
 1533TIP3    H226015   0.977   0.820  11.876  0.6728 -0.8629 -0.1055
 1534TIP3   OH226016   3.209   0.484   4.367  0.2252  0.3015 -0.3609
 1534TIP3    H126017   3.116   0.465   4.378  0.3072  0.4422  0.6391
 1534TIP3    H226018   3.234   0.437   4.288 -0.1677 -1.6687  0.6287
 1535TIP3   OH226019   5.804   3.610  12.550 -0.2701  0.0113  0.0807
 1535TIP3    H126020   5.844   3.531  12.514  0.1602  0.3446 -0.1801
 1535TIP3    H226021   5.863   3.638  12.620  2.0064  2.5153 -2.5642
 1536TIP3   OH226022   1.571   0.408  16.091 -0.2167 -0.0954 -0.4430
 1536TIP3    H126023   1.631   0.363  16.151  0.8051  0.4572 -1.0107
 1536TIP3    H226024   1.586   0.501  16.109 -1.3062  0.0467 -0.2307
 1537TIP3   OH226025   5.242   5.947  11.376 -0.5974 -0.0666 -0.3259
 1537TIP3    H126026   5.276   5.986  11.296 -1.2491  1.5788  0.1489
 1537TIP3    H226027   5.316   5.944  11.436 -0.6501  1.0018 -0.1886
 1538TIP3   OH226028   5.840   4.832   2.464 -0.4734  0.7848 -0.6076
 1538TIP3    H126029   5.778   4.781   2.412  0.4294 -1.0183  0.0108
 1538TIP3    H226030   5.896   4.875   2.399  0.2201 -0.9054 -1.1811
 1539TIP3   OH226031   0.535   2.865   3.839 -0.1282 -0.1201  0.6552
 1539TIP3    H126032   0.440   2.852   3.846 -0.1994  0.2258  0.3685
 1539TIP3    H226033   0.571   2.777   3.832 -0.3009 -0.3481  2.2861
 1540TIP3   OH226034   6.087   0.478  12.765 -0.4952 -0.3092 -0.3131
 1540TIP3    H126035   6.091   0.515  12.853  0.0290 -1.6834  0.2567
 1540TIP3    H226036   6.013   0.418  12.768  0.5458 -1.6212 -0.2914
 1541TIP3   OH226037   4.040   1.322   2.061  0.0751  0.2279  0.2859
 1541TIP3    H126038   3.974   1.391   2.053 -0.3253 -0.1414  0.3648
 1541TIP3    H226039   4.122   1.369   2.071 -0.1015  0.6989 -0.3566
 1542TIP3   OH226040   1.687   1.741   0.958  0.0332  0.0451 -0.4584
 1542TIP3    H126041   1.747   1.714   0.888  1.0588  1.1517 -0.0460
 1542TIP3    H226042   1.709   1.684   1.032  1.2585  1.0366 -0.0167
 1543TIP3   OH226043   4.427   4.573   4.658  1.1260 -0.3082  0.0739
 1543TIP3    H126044   4.451   4.556   4.749 -1.8093  1.4833  1.3290
 1543TIP3    H226045   4.388   4.490   4.628  0.7791 -0.4830  0.9614
 1544TIP3   OH226046   3.007   0.831  17.154  0.3093 -0.0268  0.2354
 1544TIP3    H126047   2.922   0.819  17.111  1.1220  0.2723 -1.5075
 1544TIP3    H226048   3.057   0.753  17.131  0.8326  0.2293  0.4965
 1545TIP3   OH226049   4.681   1.096  17.164  0.2627  0.4080 -0.5894
 1545TIP3    H126050   4.705   1.109  17.072  1.1926 -0.7427 -0.5264
 1545TIP3    H226051   4.592   1.060  17.161 -0.1286  1.3766 -0.9784
 1546TIP3   OH226052   2.427   0.831   3.887  0.2202  0.4594 -0.1909
 1546TIP3    H126053   2.391   0.819   3.799 -0.7342 -0.2927  0.2723
 1546TIP3    H226054   2.458   0.744   3.912  0.1615  0.5886  0.3492
 1547TIP3   OH226055   6.144   4.818   0.378  0.6629 -0.0004 -0.0982
 1547TIP3    H126056   6.059   4.840   0.340 -0.1466 -3.9164 -0.9266
 1547TIP3    H226057   6.190   4.902   0.382 -2.2342  1.8748 -2.0656
 1548TIP3   OH226058   5.784   4.005   4.832 -0.1486  0.0486  0.2093
 1548TIP3    H126059   5.811   4.076   4.891  1.8738  0.0347 -0.6059
 1548TIP3    H226060   5.769   3.930   4.889 -1.6483  0.9061  1.0162
 1549TIP3   OH226061   6.213   5.448   3.279  0.7725 -0.3682 -0.2536
 1549TIP3    H126062   6.249   5.522   3.230 -0.4921  0.6500  0.2982
 1549TIP3    H226063   6.245   5.370   3.232 -0.6376  0.5329 -2.9216
 1550TIP3   OH226064   3.119   5.624  13.154  0.3139  0.3122 -1.3871
 1550TIP3    H126065   3.119   5.590  13.244  0.9979 -1.6012 -2.0818
 1550TIP3    H226066   3.196   5.680  13.150  0.3788  0.2709 -0.8353
 1551TIP3   OH226067   2.823   5.250   2.504 -0.1421  0.4342 -0.4205
 1551TIP3    H126068   2.828   5.340   2.472 -0.3445  0.2002 -1.1401
 1551TIP3    H226069   2.753   5.251   2.569 -0.2336  0.7729 -0.5213
 1552TIP3   OH226070   5.558   5.770  16.757  0.3368  0.2319  0.3512
 1552TIP3    H126071   5.603   5.834  16.703  0.8108  1.8848  2.5479
 1552TIP3    H226072   5.624   5.742  16.821 -0.3696 -1.1414  0.5234
 1553TIP3   OH226073   5.772   1.416  15.582  0.4800  0.1697  0.1461
 1553TIP3    H126074   5.724   1.485  15.627 -0.0813 -0.6901  0.8972
 1553TIP3    H226075   5.739   1.335  15.621  0.1619 -0.5957 -1.6328
 1554TIP3   OH226076   4.419   3.524  17.155 -0.2990  0.3874  0.3783
 1554TIP3    H126077   4.384   3.479  17.231 -1.5796 -0.4794 -0.6681
 1554TIP3    H226078   4.441   3.612  17.186 -1.8818  0.4321  1.4785
 1555TIP3   OH226079   0.015   0.922   4.854  0.0007 -0.2732  0.9450
 1555TIP3    H126080  -0.025   0.846   4.896  1.8174 -1.4185  0.6794
 1555TIP3    H226081   0.060   0.967   4.926  2.2520 -1.6745  0.4943
 1556TIP3   OH226082   4.663   3.367  17.141 -0.2894 -0.3600  0.3267
 1556TIP3    H126083   4.584   3.401  17.100  1.1541  0.1987 -2.2001
 1556TIP3    H226084   4.648   3.273  17.148 -1.4409 -0.1704  0.5635
 1557TIP3   OH226085   5.155   4.380   0.764  0.2752  0.4226  0.4202
 1557TIP3    H126086   5.123   4.411   0.849 -1.5284  0.1263 -0.1145
 1557TIP3    H226087   5.115   4.439   0.701 -1.0509 -1.2837 -0.4261
 1558TIP3   OH226088   0.885   3.477  16.765  0.0246  0.5619  0.2124
 1558TIP3    H126089   0.835   3.468  16.846 -1.3065  0.1144 -0.6305
 1558TIP3    H226090   0.827   3.526  16.707  0.4926 -0.1113 -0.8486
 1559TIP3   OH226091   0.959   5.061   4.011  0.0234 -0.6659 -0.0558
 1559TIP3    H126092   0.996   5.053   4.098  1.0694  0.5516 -0.3601
 1559TIP3    H226093   0.967   4.973   3.973 -0.6132 -1.2482  1.1112
 1560TIP3   OH226094   3.866   5.635  15.932 -0.0865  0.0634  0.3194
 1560TIP3    H126095   3.771   5.650  15.928  0.0396  0.6802 -0.3442
 1560TIP3    H226096   3.895   5.688  16.006 -0.1000  0.7070 -0.1355
 1561TIP3   OH226097   0.190   6.432  12.824 -0.0409  0.4127  0.7213
 1561TIP3    H126098   0.191   6.364  12.757  2.3861  0.6879  0.4120
 1561TIP3    H226099   0.128   6.400  12.889 -0.5876 -1.0422 -0.4495
 1562TIP3   OH226100   0.237   1.020  14.208 -0.3977 -0.0743 -0.3475
 1562TIP3    H126101   0.189   1.046  14.130 -1.2991 -0.0131  0.2170
 1562TIP3    H226102   0.179   0.959  14.253 -0.5273  1.0003  1.0160
 1563TIP3   OH226103   4.472   1.055   2.488 -0.2471 -0.1531  0.4704
 1563TIP3    H126104   4.412   1.052   2.413 -0.4024  0.4528  0.5648
 1563TIP3    H226105   4.414   1.061   2.564 -0.0890 -0.7320  0.6447
 1564TIP3   OH226106   4.353   0.708   3.531  0.1699  0.1570  0.5837
 1564TIP3    H126107   4.271   0.702   3.481  0.9387 -0.3863 -0.6381
 1564TIP3    H226108   4.375   0.801   3.530  0.4326  0.0939 -0.5340
 1565TIP3   OH226109   2.993   1.676  13.601  0.1300 -0.1627 -0.0240
 1565TIP3    H126110   2.970   1.635  13.684  1.5765 -2.5757 -0.7373
 1565TIP3    H226111   3.082   1.709  13.614 -0.0539  0.4504 -0.2816
 1566TIP3   OH226112   1.604   1.946   2.829 -0.3825  0.3292  0.7068
 1566TIP3    H126113   1.550   1.948   2.751 -0.1865 -0.0669  0.5631
 1566TIP3    H226114   1.552   1.898   2.894 -0.6700  0.9071  0.9201
 1567TIP3   OH226115   5.750   6.086  14.017 -0.6411  0.2379 -0.0696
 1567TIP3    H126116   5.827   6.134  13.986  0.4595 -2.1240 -1.2165
 1567TIP3    H226117   5.777   6.051  14.102 -0.2980 -0.8494 -0.6107
 1568TIP3   OH226118   3.823   3.969   2.557  0.0688 -0.0195  0.2539
 1568TIP3    H126119   3.846   3.986   2.648 -1.0658  1.0333  0.3752
 1568TIP3    H226120   3.765   3.893   2.560  0.3329 -0.2144  0.3755
 1569TIP3   OH226121   1.460   0.178   2.509  0.1954  0.4457 -0.0281
 1569TIP3    H126122   1.423   0.096   2.475 -1.8534  1.4016 -0.3031
 1569TIP3    H226123   1.442   0.175   2.603 -0.2374  0.7079 -0.0943
 1570TIP3   OH226124   6.233   5.013   5.376 -0.0206  0.1617 -0.4099
 1570TIP3    H126125   6.195   5.101   5.368  0.4108  0.3075 -0.9238
 1570TIP3    H226126   6.234   4.979   5.287 -0.6199 -0.5602 -0.1477
 1571TIP3   OH226127   3.844   2.128   0.000 -0.1253  0.3433 -0.2009
 1571TIP3    H126128   3.857   2.074   0.078 -0.3932  1.4561  0.6382
 1571TIP3    H226129   3.917   2.190   0.002 -0.0079  0.2387 -0.9667
 1572TIP3   OH226130   5.079   5.386   4.748 -0.6698 -0.2734  0.0895
 1572TIP3    H126131   5.097   5.309   4.695 -1.8392  0.2342 -1.0750
 1572TIP3    H226132   5.067   5.457   4.685 -1.5422  0.4586  1.0548
 1573TIP3   OH226133   5.858   3.253  17.109 -0.5839  0.0290 -0.1328
 1573TIP3    H126134   5.781   3.202  17.083  1.6001 -2.2965 -2.5476
 1573TIP3    H226135   5.929   3.190  17.115  2.2533  2.5370 -3.0097
 1574TIP3   OH226136   2.732   4.063  15.304 -0.4394  0.0816  0.3615
 1574TIP3    H126137   2.690   4.113  15.235  2.3292 -0.5394 -1.9686
 1574TIP3    H226138   2.795   4.124  15.343 -0.0830 -0.3391  0.4607
 1575TIP3   OH226139   4.843   5.500  12.893  0.3705 -0.1472  0.8754
 1575TIP3    H126140   4.920   5.443  12.890  0.7637  0.4130 -0.2554
 1575TIP3    H226141   4.771   5.445  12.864  0.5852 -0.3324  0.6875
 1576TIP3   OH226142   2.181   4.014  17.240 -0.2200  0.0958  0.2981
 1576TIP3    H126143   2.142   3.964  17.312  1.2552 -1.1112  0.2971
 1576TIP3    H226144   2.268   3.977  17.229 -0.6228 -0.2422 -2.5922
 1577TIP3   OH226145   3.950   6.473   3.968  0.2740 -0.6318 -0.1320
 1577TIP3    H126146   3.908   6.386   3.967  0.8253 -0.8924 -0.9530
 1577TIP3    H226147   3.884   6.531   3.930  0.3908 -0.9205 -0.7831
 1578TIP3   OH226148   3.104   2.573   0.600 -0.1893  0.4571 -0.5864
 1578TIP3    H126149   3.014   2.548   0.622 -0.4324  0.6286 -1.3652
 1578TIP3    H226150   3.095   2.631   0.524  0.6764 -0.7394 -1.6273
 1579TIP3   OH226151   4.257   1.946  14.645  0.4533  0.2504 -0.1015
 1579TIP3    H126152   4.227   1.856  14.628  0.2555  0.3079 -0.0528
 1579TIP3    H226153   4.344   1.949  14.605  0.2128  0.2199 -0.6331
 1580TIP3   OH226154   6.398   2.356  11.919 -0.9286  0.1434  0.2834
 1580TIP3    H126155   6.482   2.375  11.959 -1.1779 -0.6284  1.2035
 1580TIP3    H226156   6.414   2.277  11.866 -1.0589  0.0242  0.4210
 1581TIP3   OH226157   3.051   3.590  17.009 -0.0241  0.1085 -0.0347
 1581TIP3    H126158   2.973   3.632  17.046 -0.1859 -0.3546  0.1640
 1581TIP3    H226159   3.044   3.499  17.037  0.1247 -0.1393 -0.7765
 1582TIP3   OH226160   4.488   4.384  15.374 -0.2660 -0.0575  0.2379
 1582TIP3    H126161   4.566   4.423  15.334 -0.5530  0.4848  0.2049
 1582TIP3    H226162   4.426   4.375  15.302 -0.5419  0.3010  0.4298
 1583TIP3   OH226163   2.736   6.571  13.459  0.0504  0.4400 -0.3370
 1583TIP3    H126164   2.801   6.587  13.527 -0.3585  1.4398 -0.1643
 1583TIP3    H226165   2.681   6.501  13.494  0.2930  0.4380  0.0406
 1584TIP3   OH226166   5.663   3.221   2.175 -0.1667  0.4939 -0.1284
 1584TIP3    H126167   5.645   3.188   2.087  0.0334 -0.2178  0.0900
 1584TIP3    H226168   5.670   3.315   2.164  0.0420  0.3963 -0.9071
 1585TIP3   OH226169   4.038   6.075  11.926  0.1062 -0.2214 -0.1398
 1585TIP3    H126170   4.069   6.154  11.881 -0.6644 -0.9705 -2.1312
 1585TIP3    H226171   3.954   6.056  11.885  0.5068 -2.3551 -0.0892
 1586TIP3   OH226172   5.628   6.433  12.239  1.0742  0.2965  0.2699
 1586TIP3    H126173   5.682   6.415  12.162  0.1372  0.1322 -0.3680
 1586TIP3    H226174   5.589   6.348  12.261  0.0824  0.6592 -0.0586
 1587TIP3   OH226175   2.966   3.484  14.253 -0.5450  0.2830 -0.5569
 1587TIP3    H126176   3.042   3.438  14.219 -0.7052  0.2911 -0.9323
 1587TIP3    H226177   2.893   3.452  14.200 -0.5611  1.4617 -1.2908
 1588TIP3   OH226178   3.242   3.657   0.450  0.1494  0.3643 -0.1923
 1588TIP3    H126179   3.232   3.596   0.377 -0.1606  0.0334  0.1278
 1588TIP3    H226180   3.261   3.602   0.526 -2.0322  0.4785  0.5053
 1589TIP3   OH226181   1.030   5.369   5.963 -0.7946 -0.5146 -0.2291
 1589TIP3    H126182   0.995   5.422   6.034 -0.6329 -1.2076  0.3805
 1589TIP3    H226183   1.031   5.280   5.998 -0.4497 -0.8225 -1.0010
 1590TIP3   OH226184   1.119   2.971   4.234 -0.0848 -0.0163 -0.0456
 1590TIP3    H126185   1.039   3.006   4.194 -0.5954 -1.0663  0.0274
 1590TIP3    H226186   1.188   3.030   4.204 -0.6890  0.1174 -1.2271
 1591TIP3   OH226187   5.768   2.812   0.493 -0.0135 -0.1422 -0.1940
 1591TIP3    H126188   5.840   2.872   0.476 -0.5950  0.5615 -0.2398
 1591TIP3    H226189   5.692   2.870   0.509 -0.3380 -0.8359  0.8728
 1592TIP3   OH226190   5.026   2.563  16.047  0.3029 -0.5879 -0.0777
 1592TIP3    H126191   5.092   2.631  16.059  0.3441 -0.6653  0.1416
 1592TIP3    H226192   4.943   2.610  16.051  0.3189 -0.5948  0.4182
 1593TIP3   OH226193   5.920   2.532   2.627  0.2753  1.0019  0.0072
 1593TIP3    H126194   5.921   2.508   2.720  0.6258 -0.2526 -0.2972
 1593TIP3    H226195   5.959   2.457   2.583  1.6906  2.2816 -1.0135
 1594TIP3   OH226196   5.622   2.543  12.560 -0.3004  0.0537 -0.0394
 1594TIP3    H126197   5.718   2.553  12.558  0.0056 -2.0275  0.8337
 1594TIP3    H226198   5.609   2.448  12.555 -2.1472 -0.0296  3.3069
 1595TIP3   OH226199   0.193   3.197  12.319 -0.0042 -0.2767 -0.2148
 1595TIP3    H126200   0.176   3.210  12.226  1.1542 -0.8206 -0.5209
 1595TIP3    H226201   0.119   3.145  12.350 -0.9621  0.8394 -0.5628
 1596TIP3   OH226202   2.083   6.255  15.127 -0.3767  0.0102 -0.2988
 1596TIP3    H126203   2.065   6.204  15.048 -0.2803 -0.4344 -0.0421
 1596TIP3    H226204   2.152   6.206  15.172 -1.1816 -0.3455  0.5992
 1597TIP3   OH226205   2.109   5.981   0.462 -0.4390 -0.2373  0.0470
 1597TIP3    H126206   2.096   6.060   0.409  1.8803 -0.4123 -0.9147
 1597TIP3    H226207   2.087   6.007   0.551 -4.4025  0.1056 -0.8482
 1598TIP3   OH226208   4.847   6.194  17.372  0.9440 -0.0421  0.2512
 1598TIP3    H126209   4.767   6.243  17.354  1.1559  0.0835 -0.3694
 1598TIP3    H226210   4.817   6.109  17.405  0.5708  0.3367  0.8950
 1599TIP3   OH226211   4.146   6.161  10.767 -0.2085 -0.1190  0.0731
 1599TIP3    H126212   4.090   6.123  10.835 -1.2449 -0.0182 -0.6909
 1599TIP3    H226213   4.151   6.254  10.789  0.0452 -0.2086  0.4001
 1600TIP3   OH226214   4.489   3.733  16.156 -0.2332  0.2971  0.1550
 1600TIP3    H126215   4.455   3.703  16.240 -0.9230 -2.5474 -0.9796
 1600TIP3    H226216   4.452   3.820  16.144 -1.1396  0.2451  2.2187
 1601TIP3   OH226217   4.991   4.717   0.250  0.7828  0.0305 -0.4361
 1601TIP3    H126218   4.989   4.636   0.200  0.0755 -0.7459  0.7838
 1601TIP3    H226219   4.968   4.691   0.339  0.7239  1.5422  0.0286
 1602TIP3   OH226220   2.299   2.982  12.130  0.0083 -0.0715 -0.0742
 1602TIP3    H126221   2.333   2.893  12.128  0.2155 -0.0068  0.4080
 1602TIP3    H226222   2.272   2.995  12.221 -0.2260  0.2828 -0.1909
 1603TIP3   OH226223   3.589   2.540   4.344  1.0766  0.4136 -0.1478
 1603TIP3    H126224   3.501   2.577   4.343  0.6538 -0.5437 -1.7291
 1603TIP3    H226225   3.635   2.589   4.412 -0.4652  1.4123  0.2187
 1604TIP3   OH226226   0.222   0.888   4.671 -0.2444 -0.0106  0.1831
 1604TIP3    H126227   0.148   0.919   4.723 -0.5476 -1.4040  0.6364
 1604TIP3    H226228   0.288   0.863   4.736  0.2182  0.2346 -0.1843
 1605TIP3   OH226229   1.815   1.198  16.973 -0.1439 -0.0292  0.2480
 1605TIP3    H126230   1.760   1.144  16.916 -0.6589 -0.5276  1.1897
 1605TIP3    H226231   1.752   1.247  17.026  0.2897 -1.0282  1.7481
 1606TIP3   OH226232   0.950   1.637   3.737  0.4415 -0.0036 -0.0886
 1606TIP3    H126233   0.986   1.608   3.821  0.0196 -1.0269 -0.2570
 1606TIP3    H226234   0.861   1.666   3.758  0.2344 -0.5361 -0.2344
 1607TIP3   OH226235   4.701   2.442  13.422 -0.3339  0.4986  0.2043
 1607TIP3    H126236   4.714   2.521  13.370  1.3469  2.0234  2.7419
 1607TIP3    H226237   4.789   2.407  13.436 -0.8103 -0.2439  1.4777
 1608TIP3   OH226238   1.829   1.291  17.393  0.2013  0.5674 -0.2397
 1608TIP3    H126239   1.739   1.259  17.401  0.2021  0.8859  1.3880
 1608TIP3    H226240   1.830   1.372  17.444  1.4626  0.4472 -0.0421
 1609TIP3   OH226241   3.964   2.733  15.214 -0.1383 -0.1788 -0.7186
 1609TIP3    H126242   4.022   2.775  15.150  0.3608  0.0809 -0.1084
 1609TIP3    H226243   4.024   2.696  15.279 -0.6768  1.5221  0.8131
 1610TIP3   OH226244   4.759   6.064   3.689  0.1339 -0.1332  0.1133
 1610TIP3    H126245   4.699   6.121   3.641  1.7434  1.2630 -0.3433
 1610TIP3    H226246   4.786   5.998   3.626  0.7844  0.5671 -0.3493
 1611TIP3   OH226247   0.615   4.161  12.505  0.4180 -0.2284 -0.4135
 1611TIP3    H126248   0.564   4.180  12.584  0.1153  1.7635 -1.0208
 1611TIP3    H226249   0.586   4.075  12.477  0.8449 -1.1752  1.8648
 1612TIP3   OH226250   4.619   4.134   2.063  0.2061 -0.8373 -0.3571
 1612TIP3    H126251   4.687   4.174   2.008  0.0366 -0.9614 -0.6552
 1612TIP3    H226252   4.537   4.173   2.033  0.0751 -1.1583 -0.4210
 1613TIP3   OH226253   5.099   5.542   1.116 -0.0514 -0.3592  0.7616
 1613TIP3    H126254   5.083   5.458   1.160 -0.6561  0.1282  1.4934
 1613TIP3    H226255   5.137   5.597   1.184 -0.7258  0.3195  0.5964
 1614TIP3   OH226256   0.105   5.028   5.043  0.3556 -0.2379  0.2284
 1614TIP3    H126257   0.113   4.955   4.982 -0.6309 -0.7240  0.6616
 1614TIP3    H226258   0.136   5.104   4.993 -0.5604 -0.5980 -0.9330
 1615TIP3   OH226259   0.117   0.023   1.253 -0.2397  0.2432 -0.1599
 1615TIP3    H126260   0.075   0.092   1.303 -1.4138  0.4306 -1.3553
 1615TIP3    H226261   0.115   0.054   1.162  0.8196 -0.5798 -0.4895
 1616TIP3   OH226262   0.578   4.763  10.975 -0.6287  0.0080  0.2698
 1616TIP3    H126263   0.661   4.796  11.009 -0.7281 -1.5552  2.1962
 1616TIP3    H226264   0.515   4.834  10.991  0.2551  1.2105 -1.2271
 1617TIP3   OH226265   0.095   5.302  10.793 -0.0166  0.8781 -0.5027
 1617TIP3    H126266   0.035   5.366  10.757 -1.4239  0.5730  1.1706
 1617TIP3    H226267   0.178   5.318  10.748 -0.4634  3.4858 -0.5045
 1618TIP3   OH226268   3.059   3.798   2.274  0.0849  0.1244  0.6469
 1618TIP3    H126269   3.058   3.739   2.199 -1.4600 -0.8069  1.3372
 1618TIP3    H226270   3.124   3.761   2.334 -0.7631 -0.8568  1.0080
 1619TIP3   OH226271   5.459   2.523  16.932  0.8485  0.0234 -0.3114
 1619TIP3    H126272   5.387   2.585  16.944 -0.4281 -1.4885  0.2148
 1619TIP3    H226273   5.513   2.561  16.862 -0.0315  1.5637 -0.1898
 1620TIP3   OH226274   2.368   4.790  16.945 -0.1878  0.8870  0.3501
 1620TIP3    H126275   2.352   4.842  16.867 -2.4931  0.1344  0.2558
 1620TIP3    H226276   2.461   4.802  16.963  0.6627  0.3551 -3.0182
 1621TIP3   OH226277   3.040   5.514   5.948  0.4871 -0.4691 -0.3982
 1621TIP3    H126278   2.966   5.470   5.908 -1.1052  1.4533  0.2846
 1621TIP3    H226279   3.095   5.541   5.874 -0.2544 -0.6064 -1.0075
 1622TIP3   OH226280   1.944   2.032  13.886 -0.0749  0.4091  0.1475
 1622TIP3    H126281   1.914   2.076  13.807 -0.3676 -0.1304 -0.0443
 1622TIP3    H226282   1.973   2.103  13.944  0.2053  0.7999 -0.4670
 1623TIP3   OH226283   4.628   6.671  10.872 -0.0680 -0.0924  0.1837
 1623TIP3    H126284   4.680   6.604  10.917  0.1586  0.1466  0.2861
 1623TIP3    H226285   4.595   6.628  10.794  0.4331 -0.1973  0.0263
 1624TIP3   OH226286   3.836   1.214   5.155 -0.1339 -0.5478 -0.0988
 1624TIP3    H126287   3.915   1.268   5.162 -1.5643  1.5373  1.0917
 1624TIP3    H226288   3.779   1.246   5.225 -2.2685 -1.5767 -1.2776
 1625TIP3   OH226289   5.132   0.544  14.948 -0.2643  0.0505  0.1276
 1625TIP3    H126290   5.152   0.463  14.901 -0.4417  0.2330 -0.2727
 1625TIP3    H226291   5.137   0.520  15.040  0.3074 -0.2654  0.0213
 1626TIP3   OH226292   2.204   5.554  14.101  0.3746  0.6332  0.4307
 1626TIP3    H126293   2.120   5.600  14.095 -0.8747 -1.6356 -0.9457
 1626TIP3    H226294   2.233   5.547  14.010  0.9175 -0.5436  0.6834
 1627TIP3   OH226295   2.934   6.529  12.633 -0.4052  0.5262 -0.0029
 1627TIP3    H126296   2.979   6.584  12.697 -0.2422 -0.0674  0.4029
 1627TIP3    H226297   2.841   6.549  12.645 -0.4269 -0.0636  0.8855
 1628TIP3   OH226298   2.356   3.337   4.465  0.3612 -0.1122 -0.0998
 1628TIP3    H126299   2.340   3.294   4.381  1.0281 -0.3664 -0.1017
 1628TIP3    H226300   2.316   3.278   4.529 -0.0128  0.0052 -0.2235
 1629TIP3   OH226301   5.230   1.140   6.263  0.0417  0.4176 -0.1324
 1629TIP3    H126302   5.319   1.126   6.294 -0.1202  1.2199  0.7543
 1629TIP3    H226303   5.190   1.052   6.263  1.0032 -0.0447 -1.1758
 1630TIP3   OH226304   2.110   4.955   6.320  0.3916 -0.1953 -0.1462
 1630TIP3    H126305   2.062   5.001   6.388  1.1602  1.5295 -0.7145
 1630TIP3    H226306   2.150   4.880   6.365 -1.3222 -0.6541  0.6854
 1631TIP3   OH226307   5.486   2.033   2.423 -0.3886 -0.0296  0.6966
 1631TIP3    H126308   5.550   2.046   2.494  1.7359 -0.6882 -0.9873
 1631TIP3    H226309   5.413   1.988   2.466  0.0145  1.1780  2.8169
 1632TIP3   OH226310   2.831   4.740  16.096  0.0473  0.8938  0.1557
 1632TIP3    H126311   2.900   4.674  16.083  0.6861  1.4823  0.4955
 1632TIP3    H226312   2.840   4.767  16.187 -0.7914  0.8132  0.2704
 1633TIP3   OH226313   5.300   1.461  10.824 -0.2218 -0.0489 -0.0306
 1633TIP3    H126314   5.342   1.500  10.901 -0.2729  1.2875 -0.6500
 1633TIP3    H226315   5.216   1.508  10.817 -0.3864 -0.4309 -0.6678
 1634TIP3   OH226316   2.069   4.418  14.677  0.1885 -0.2767 -0.2392
 1634TIP3    H126317   2.144   4.451  14.628  1.8781 -1.3787  1.4821
 1634TIP3    H226318   2.049   4.488  14.739 -0.1641 -0.0412 -0.6062
 1635TIP3   OH226319   0.236   3.107   0.175 -0.2780  0.0749 -0.2681
 1635TIP3    H126320   0.215   3.052   0.100 -1.4072 -0.3129  0.3046
 1635TIP3    H226321   0.183   3.186   0.162 -0.1464  0.1904 -0.1028
 1636TIP3   OH226322   2.289   1.551   1.224  0.0773 -0.1579  0.6540
 1636TIP3    H126323   2.351   1.622   1.205 -0.0604 -0.2871 -0.3500
 1636TIP3    H226324   2.325   1.476   1.177 -0.1005 -0.5994  1.2239
 1637TIP3   OH226325   3.770   6.348   5.816  0.0957 -0.0277  0.2051
 1637TIP3    H126326   3.784   6.443   5.811 -1.6735  0.3842  1.6228
 1637TIP3    H226327   3.754   6.322   5.726  2.7138  0.5914 -0.5160
 1638TIP3   OH226328   1.350   0.765   3.098 -0.2385 -0.2081  0.0801
 1638TIP3    H126329   1.391   0.768   3.185  0.4660 -0.8563 -0.2165
 1638TIP3    H226330   1.265   0.807   3.111 -0.6220 -1.2908  1.3528
 1639TIP3   OH226331   6.246   4.847  12.423  0.2216 -0.4820  0.0148
 1639TIP3    H126332   6.218   4.937  12.435 -0.3196 -0.8597  1.9912
 1639TIP3    H226333   6.322   4.837  12.480  1.1245 -0.9344 -1.2240
 1640TIP3   OH226334   5.903   4.019   0.034  0.4440  0.2109 -0.4285
 1640TIP3    H126335   5.884   4.102  -0.009  2.1331  1.2458  0.7328
 1640TIP3    H226336   5.994   4.000   0.010  1.2477  0.5093  2.1155
 1641TIP3   OH226337   5.426   1.208  14.100  0.1304 -0.6429  0.3008
 1641TIP3    H126338   5.496   1.164  14.052  0.4374  1.7031 -1.5804
 1641TIP3    H226339   5.349   1.153  14.085  0.7061 -1.1169 -1.0533
 1642TIP3   OH226340   4.618   3.404   0.402 -0.2476 -0.1946  0.2550
 1642TIP3    H126341   4.554   3.473   0.385 -0.4049 -0.2622  0.5667
 1642TIP3    H226342   4.627   3.402   0.497 -1.4031 -1.6331  0.3770
 1643TIP3   OH226343   4.343   6.048   4.911 -0.0774 -0.0397 -0.1684
 1643TIP3    H126344   4.281   6.020   4.844  2.4260 -0.0929 -2.6827
 1643TIP3    H226345   4.359   5.970   4.964  0.6902 -1.1653 -1.9498
 1644TIP3   OH226346   4.549   6.399   5.604 -0.9329  0.1421  0.0010
 1644TIP3    H126347   4.532   6.319   5.655 -4.6606 -0.2347 -1.5139
 1644TIP3    H226348   4.548   6.469   5.668  0.1175 -0.7862  1.0798
 1645TIP3   OH226349   3.381   4.706   0.489  0.4670  0.3964 -0.1460
 1645TIP3    H126350   3.358   4.626   0.441 -0.8921 -0.1839  1.3719
 1645TIP3    H226351   3.349   4.690   0.578 -0.4213  2.8887  0.0642
 1646TIP3   OH226352   6.250   2.849  17.100 -0.6072 -0.8727  0.1449
 1646TIP3    H126353   6.337   2.849  17.139 -1.1229  0.7905  1.4083
 1646TIP3    H226354   6.235   2.758  17.075  0.7436 -1.5643  1.6637
 1647TIP3   OH226355   1.327   5.612   0.233  0.5278 -0.1342  0.3870
 1647TIP3    H126356   1.411   5.635   0.194  0.1556  1.4912  0.4759
 1647TIP3    H226357   1.307   5.684   0.292 -0.2635 -1.1860  1.4618
 1648TIP3   OH226358   6.194   3.376  15.127  0.1581 -0.1885 -0.3509
 1648TIP3    H126359   6.179   3.352  15.036  0.4108 -0.3938 -0.3422
 1648TIP3    H226360   6.241   3.301  15.164 -3.9575 -2.3182  1.2104
 1649TIP3   OH226361   3.476   0.777   3.901  0.1431  0.8875  0.2082
 1649TIP3    H126362   3.503   0.685   3.909  0.2751  1.1022  3.5003
 1649TIP3    H226363   3.474   0.793   3.807 -0.3492 -2.6071 -0.5085
 1650TIP3   OH226364   5.227   6.401  13.093 -0.0463 -0.4848 -0.0827
 1650TIP3    H126365   5.224   6.318  13.140 -0.4641 -1.0467 -1.0538
 1650TIP3    H226366   5.234   6.468  13.161 -0.9436 -1.2384  0.7777
 1651TIP3   OH226367   1.669   6.697   4.672  0.5033  0.0450  0.2771
 1651TIP3    H126368   1.730   6.745   4.727  1.0654 -2.3648  1.9280
 1651TIP3    H226369   1.725   6.647   4.612  0.0070  0.3293 -0.4349
 1652TIP3   OH226370   3.254   3.620  15.519 -0.1469 -0.1474 -0.9765
 1652TIP3    H126371   3.280   3.657  15.603  1.5055  0.3062 -1.6469
 1652TIP3    H226372   3.244   3.526  15.536 -1.2988  0.1242  0.0208
 1653TIP3   OH226373   1.171   3.358   4.299  0.0191 -0.0102 -0.0746
 1653TIP3    H126374   1.253   3.335   4.343  0.5546  1.9497  0.0267
 1653TIP3    H226375   1.128   3.273   4.284  0.9378 -0.9211  1.9991
 1654TIP3   OH226376   5.434   0.135   0.561 -0.1785 -0.3410  0.1189
 1654TIP3    H126377   5.529   0.146   0.563 -0.0451 -1.3333 -0.0717
 1654TIP3    H226378   5.400   0.223   0.544  0.7449 -0.1015 -0.6160
 1655TIP3   OH226379   3.814   4.215   1.502  0.3367  0.4608  0.4238
 1655TIP3    H126380   3.767   4.290   1.538 -0.6952 -0.3520  0.8053
 1655TIP3    H226381   3.900   4.219   1.544  0.1653  1.1979  0.7284
 1656TIP3   OH226382   0.712   6.538   5.698  0.5085 -0.0447 -0.0196
 1656TIP3    H126383   0.783   6.579   5.748  2.0011 -0.6535 -1.5097
 1656TIP3    H226384   0.632   6.579   5.731  1.3345 -0.6107  3.0003
 1657TIP3   OH226385   1.756   4.903   3.941 -0.4753 -0.2160  0.1043
 1657TIP3    H126386   1.684   4.905   4.004 -0.7001 -1.5126 -0.0874
 1657TIP3    H226387   1.720   4.943   3.861 -0.2961  1.0996  0.6468
 1658TIP3   OH226388   3.685   1.756  12.035 -0.5336 -0.5485 -0.7237
 1658TIP3    H126389   3.764   1.702  12.039 -0.7284 -0.7586  0.5137
 1658TIP3    H226390   3.614   1.694  12.020 -1.2632 -1.2605  4.2502
 1659TIP3   OH226391   4.605   3.825   6.143 -0.2667 -0.3307  0.3421
 1659TIP3    H126392   4.664   3.750   6.140 -0.8032 -0.7327 -0.3220
 1659TIP3    H226393   4.522   3.793   6.109 -0.0290  0.9727 -1.6163
 1660TIP3   OH226394   2.221   0.102  16.285  0.1309 -0.0958 -0.2078
 1660TIP3    H126395   2.250   0.016  16.314  0.1282  0.5522  1.9053
 1660TIP3    H226396   2.302   0.152  16.272  0.1108  0.3212  1.1157
 1661TIP3   OH226397   5.709   4.655   2.691  0.0140 -0.2837  0.7986
 1661TIP3    H126398   5.635   4.675   2.748 -0.8261 -1.9712  0.3666
 1661TIP3    H226399   5.684   4.689   2.605 -1.0871 -2.3142  0.2409
 1662TIP3   OH226400   3.192   2.578   4.688  0.0478  0.4578  0.3995
 1662TIP3    H126401   3.210   2.672   4.677 -0.0822  0.5157  0.6809
 1662TIP3    H226402   3.146   2.554   4.608  0.1419  0.6177  0.2946
 1663TIP3   OH226403   5.680   1.449  16.710  0.5940  0.7794 -0.4482
 1663TIP3    H126404   5.764   1.448  16.756  1.1445  0.9587 -1.4413
 1663TIP3    H226405   5.696   1.402  16.628 -0.7802 -0.9472  0.1814
 1664TIP3   OH226406   6.648   2.342   1.366  0.2139  0.0734 -0.2058
 1664TIP3    H126407   6.678   2.401   1.298  0.1190  0.1530 -0.1790
 1664TIP3    H226408   6.554   2.359   1.373 -0.0903 -1.0473 -1.1713
 1665TIP3   OH226409   2.505   3.484  12.408  0.2568  0.7096 -0.9662
 1665TIP3    H126410   2.558   3.431  12.349  2.6955  2.0350 -0.1262
 1665TIP3    H226411   2.475   3.557  12.353 -1.0087 -0.2012 -1.5191
 1666TIP3   OH226412   4.715   1.356  14.283 -0.0139  0.2325  0.0731
 1666TIP3    H126413   4.710   1.363  14.379  0.5870 -2.9724  0.4363
 1666TIP3    H226414   4.750   1.268  14.267  1.4697  1.2517 -3.0950
 1667TIP3   OH226415   0.949   1.803   0.589 -0.0247 -0.5410  0.0140
 1667TIP3    H126416   0.961   1.725   0.644 -1.4056  0.1345  1.3185
 1667TIP3    H226417   0.870   1.845   0.623 -0.0372  0.7488 -1.5084
 1668TIP3   OH226418   1.629   2.455  13.547  0.1247 -0.0282  0.2830
 1668TIP3    H126419   1.719   2.431  13.569  0.0702  0.8451  1.5347
 1668TIP3    H226420   1.633   2.549  13.527 -0.0541 -0.4965 -2.3649
 1669TIP3   OH226421   0.375   1.726  12.424  0.0629  0.1012  0.0634
 1669TIP3    H126422   0.396   1.670  12.349 -1.3385 -1.3623  0.6915
 1669TIP3    H226423   0.279   1.727  12.427  0.0852  1.0652  1.1676
 1670TIP3   OH226424   6.707   2.779   5.284  0.0703  0.2755 -0.0909
 1670TIP3    H126425   6.654   2.735   5.217  0.9659 -0.9400 -0.0319
 1670TIP3    H226426   6.712   2.716   5.356  0.3473  0.9835  0.5160
 1671TIP3   OH226427   2.162   4.087  12.907 -0.1613 -0.2204 -0.0453
 1671TIP3    H126428   2.200   4.000  12.897 -1.5079 -0.7817 -0.4105
 1671TIP3    H226429   2.151   4.119  12.818  0.0145  0.1995  0.0801
 1672TIP3   OH226430   6.194   3.110   0.807  0.2742  0.0235  0.3322
 1672TIP3    H126431   6.267   3.128   0.866 -0.1883 -0.3861  1.0533
 1672TIP3    H226432   6.176   3.017   0.819 -0.9045  0.2965  0.8026
 1673TIP3   OH226433   3.632   0.392  13.892 -0.0398  0.3483  0.2161
 1673TIP3    H126434   3.703   0.380  13.829 -1.6442 -0.2463 -1.5793
 1673TIP3    H226435   3.676   0.414  13.974  2.2683 -1.2040 -0.5070
 1674TIP3   OH226436   2.612   6.072  12.395  0.2843  0.0090  0.1599
 1674TIP3    H126437   2.608   5.977  12.389 -1.3517 -0.1473  2.3717
 1674TIP3    H226438   2.551   6.094  12.465  2.7082  2.4802  1.7097
 1675TIP3   OH226439   5.760   4.440  13.762  0.3413 -0.4163 -0.4043
 1675TIP3    H126440   5.729   4.497  13.692  2.2669  1.6845  0.3379
 1675TIP3    H226441   5.763   4.496  13.839  2.7857 -1.2972  0.2565
 1676TIP3   OH226442   0.655   6.135  13.216  0.5651  0.1456  0.2818
 1676TIP3    H126443   0.723   6.203  13.214 -0.0535  0.7640 -0.6679
 1676TIP3    H226444   0.574   6.183  13.198  0.1026 -0.8400 -0.3259
 1677TIP3   OH226445   1.378   4.573   1.985  0.0389 -0.2705  0.4489
 1677TIP3    H126446   1.382   4.515   1.909 -0.4339  0.7023 -0.3374
 1677TIP3    H226447   1.398   4.516   2.060  5.7358 -0.3507 -0.7020
 1678TIP3   OH226448   2.435   6.683  13.808  0.3828  0.6310 -0.1239
 1678TIP3    H126449   2.369   6.725  13.862  0.2351  1.3941 -0.8805
 1678TIP3    H226450   2.516   6.689  13.860 -0.1281 -0.3121  0.8004
 1679TIP3   OH226451   0.611   0.112  17.061 -0.2661  0.2561 -0.4461
 1679TIP3    H126452   0.658   0.133  17.142  1.1406  0.9799 -1.4271
 1679TIP3    H226453   0.535   0.060  17.091  1.5928 -1.7733  1.1156
 1680TIP3   OH226454   6.608   4.417   3.895 -0.7957  0.0770  0.2419
 1680TIP3    H126455   6.679   4.361   3.929 -0.2981 -2.4123 -4.1521
 1680TIP3    H226456   6.654   4.488   3.850 -1.2867  0.6325  0.6020
 1681TIP3   OH226457   3.002   1.121   5.185  0.8596 -0.3497 -0.0279
 1681TIP3    H126458   2.974   1.137   5.275 -0.1356 -1.4832 -0.1207
 1681TIP3    H226459   3.080   1.065   5.194  1.1388  0.0649  0.1430
 1682TIP3   OH226460   2.918   6.523  14.168  0.6159  0.0154  0.1027
 1682TIP3    H126461   2.828   6.493  14.155  1.0138 -0.4027 -2.0881
 1682TIP3    H226462   2.909   6.615  14.193 -0.4157  0.4157 -1.5651
 1683TIP3   OH226463   1.036   4.718  14.078  0.0733  0.4252  0.1424
 1683TIP3    H126464   1.118   4.739  14.033 -0.2077  0.2216 -0.4749
 1683TIP3    H226465   1.007   4.801  14.115  0.9391  0.3613  1.0233
 1684TIP3   OH226466   3.090   2.507  17.031  0.0003  0.2657 -0.1418
 1684TIP3    H126467   3.162   2.545  16.980  0.1586 -0.1235 -0.2167
 1684TIP3    H226468   3.063   2.576  17.091 -0.0046  0.6382 -0.5693
 1685TIP3   OH226469   6.721   2.684  11.648  0.6985 -0.0319  0.3607
 1685TIP3    H126470   6.640   2.710  11.605  0.6043 -0.8837  0.0046
 1685TIP3    H226471   6.736   2.752  11.713  0.2349  0.6648 -0.2476
 1686TIP3   OH226472   1.684   5.811  15.399  0.5282  1.0093 -0.1676
 1686TIP3    H126473   1.746   5.740  15.415  1.2979  2.0625  2.0278
 1686TIP3    H226474   1.739   5.889  15.391 -0.3624  1.5465 -1.2765
 1687TIP3   OH226475   1.535   3.598   1.262  0.5157  0.0080  0.2928
 1687TIP3    H126476   1.483   3.611   1.182 -0.1530 -3.1400  0.0840
 1687TIP3    H226477   1.624   3.621   1.236  0.3988 -1.3460 -1.5876
 1688TIP3   OH226478   5.738   0.067  11.791 -0.4452 -0.0182 -0.0497
 1688TIP3    H126479   5.743   0.021  11.874 -0.6752 -1.3325 -0.7301
 1688TIP3    H226480   5.817   0.041  11.743 -1.1100 -0.5994 -0.8703
 1689TIP3   OH226481   1.948   5.151  13.339 -0.2002  0.4478 -0.0476
 1689TIP3    H126482   2.008   5.109  13.400 -0.5451 -0.3610 -0.2562
 1689TIP3    H226483   1.884   5.084  13.318 -1.4943  1.4349  0.5670
 1690TIP3   OH226484   3.818   2.011  14.467  0.3851  0.1371  0.2050
 1690TIP3    H126485   3.889   1.958  14.430 -0.1218 -0.0321 -0.5468
 1690TIP3    H226486   3.763   2.033  14.392  0.3711  1.4053  0.5634
 1691TIP3   OH226487   2.460   4.578  15.767 -0.0566 -0.1051  0.4043
 1691TIP3    H126488   2.435   4.660  15.808  1.8344  0.1647  1.0988
 1691TIP3    H226489   2.386   4.519  15.784 -0.5650  0.8539  1.6582
 1692TIP3   OH226490   6.003   1.957  14.565 -0.1354 -0.0883 -0.1086
 1692TIP3    H126491   5.983   1.883  14.622 -0.8140 -0.9125 -1.3777
 1692TIP3    H226492   6.096   1.947  14.544  0.4409  0.8724  1.7056
 1693TIP3   OH226493   4.848   4.693   2.357  0.7850  0.4176 -0.0215
 1693TIP3    H126494   4.924   4.688   2.299  0.2058  3.9146 -1.3722
 1693TIP3    H226495   4.776   4.721   2.300 -0.6760  0.5966  1.8019
 1694TIP3   OH226496   4.372   6.043  12.249 -0.3445 -0.0462  0.4169
 1694TIP3    H126497   4.277   6.048  12.261 -0.3512  2.6105 -0.0744
 1694TIP3    H226498   4.405   6.004  12.330 -1.9162 -2.7493 -0.1184
 1695TIP3   OH226499   2.468   4.730   4.921 -0.9035 -0.0464  0.1578
 1695TIP3    H126500   2.487   4.640   4.894  1.0937 -0.1451  1.6165
 1695TIP3    H226501   2.467   4.780   4.840 -0.1586 -1.0885 -0.5273
 1696TIP3   OH226502   5.489   6.739  14.981 -0.1475  0.7602  0.8574
 1696TIP3    H126503   5.433   6.810  14.949  0.3402  1.1910  0.9452
 1696TIP3    H226504   5.430   6.682  15.030 -1.1731 -0.5031 -1.6243
 1697TIP3   OH226505   4.318   2.190  11.674  0.2907  0.3104  0.9454
 1697TIP3    H126506   4.242   2.137  11.651  0.9948  0.6167 -2.6906
 1697TIP3    H226507   4.390   2.127  11.683  0.6309  0.3678 -0.9808
 1698TIP3   OH226508   3.597   6.331  11.881  0.2057 -0.4227 -0.4472
 1698TIP3    H126509   3.602   6.241  11.914 -0.6671 -0.0891  0.6295
 1698TIP3    H226510   3.621   6.323  11.788 -2.3193 -2.1962 -1.0444
 1699TIP3   OH226511   5.676   1.169  15.157  0.0693  0.0694 -0.1412
 1699TIP3    H126512   5.725   1.207  15.230  0.7494 -1.1851  0.0700
 1699TIP3    H226513   5.738   1.168  15.084  0.0206 -0.5257 -0.1751
 1700TIP3   OH226514   3.771   4.788   0.705 -0.1537  0.8194  0.7103
 1700TIP3    H126515   3.723   4.804   0.624  0.9724  2.3529  0.2985
 1700TIP3    H226516   3.722   4.718   0.748 -0.5904 -0.2881 -1.4362
 1701TIP3   OH226517   0.396   5.067  14.970  0.2469 -0.9549 -0.5238
 1701TIP3    H126518   0.355   5.058  14.884  1.4713 -1.4118 -1.0839
 1701TIP3    H226519   0.333   5.028  15.031 -1.8321  1.6675 -0.8074
 1702TIP3   OH226520   1.860   6.284  14.296 -0.2720  0.2715  0.2846
 1702TIP3    H126521   1.932   6.342  14.320  0.0498 -0.6107  1.5634
 1702TIP3    H226522   1.838   6.309  14.206 -0.5681  2.7641  0.9766
 1703TIP3   OH226523   4.591   2.119   1.217 -0.7615 -0.0965 -0.2937
 1703TIP3    H126524   4.562   2.028   1.224  1.3014 -0.9823 -2.0064
 1703TIP3    H226525   4.638   2.135   1.299 -0.2088 -0.9670 -0.4192
 1704TIP3   OH226526   5.136   3.759  12.281 -0.4210 -0.8044 -0.1114
 1704TIP3    H126527   5.136   3.703  12.359 -0.5972 -0.6446  0.0059
 1704TIP3    H226528   5.067   3.823  12.298 -0.7825 -1.0583 -0.6040
 1705TIP3   OH226529   4.527   3.263   3.530 -0.0923 -0.0846 -0.1004
 1705TIP3    H126530   4.483   3.213   3.462 -0.7672 -1.0819  1.0271
 1705TIP3    H226531   4.457   3.316   3.569  0.2329  0.2718  0.0076
 1706TIP3   OH226532   6.591   0.727  15.415  0.2618 -1.0259 -0.0290
 1706TIP3    H126533   6.684   0.750  15.414  0.6469 -2.4353 -1.3422
 1706TIP3    H226534   6.589   0.636  15.384 -1.7636 -0.0843 -3.0865
 1707TIP3   OH226535   3.957   2.072  17.051 -0.0181  0.0236  0.2134
 1707TIP3    H126536   3.987   1.995  17.002  0.0262 -0.5637  1.1391
 1707TIP3    H226537   3.892   2.038  17.111 -0.4592  0.8265  0.2039
 1708TIP3   OH226538   1.069   1.039  13.047 -0.3187  0.4091 -0.3723
 1708TIP3    H126539   0.988   1.072  13.086 -0.5335  0.4355 -0.8315
 1708TIP3    H226540   1.099   0.971  13.108 -0.8574  0.1810 -0.3560
 1709TIP3   OH226541   6.311   5.273   4.634 -0.1078  0.0198  0.0648
 1709TIP3    H126542   6.305   5.344   4.698  1.0049 -0.1208  0.3350
 1709TIP3    H226543   6.290   5.194   4.684  1.5438 -0.1901  0.4698
 1710TIP3   OH226544   2.808   1.868  16.302  0.3741 -0.4585 -0.0010
 1710TIP3    H126545   2.867   1.812  16.353  0.9601  0.8767  0.8389
 1710TIP3    H226546   2.728   1.872  16.354 -0.1141 -1.4705 -0.6547
 1711TIP3   OH226547   0.121   4.601  14.057 -0.2875  0.0526 -0.0027
 1711TIP3    H126548   0.178   4.669  14.093  0.1275  1.1496 -2.5626
 1711TIP3    H226549   0.046   4.600  14.116  1.0714  0.5378  1.8413
 1712TIP3   OH226550   6.335   5.184   0.860  0.2774 -0.3679 -0.2097
 1712TIP3    H126551   6.378   5.255   0.908  0.9671 -0.4976 -0.6156
 1712TIP3    H226552   6.290   5.132   0.928  2.3292 -1.3211  0.5092
 1713TIP3   OH226553   2.031   2.910   1.327  0.3622 -0.2492  0.0779
 1713TIP3    H126554   2.018   2.850   1.400  1.2852 -2.4197 -1.4584
 1713TIP3    H226555   2.079   2.984   1.365  0.2153 -0.9811  1.7787
 1714TIP3   OH226556   3.530   4.449  15.097 -0.1888  0.0654  0.1620
 1714TIP3    H126557   3.506   4.459  15.189 -2.5990  0.2947 -0.4330
 1714TIP3    H226558   3.476   4.513  15.051  0.3271 -0.6451 -1.4985
 1715TIP3   OH226559   3.681   5.109   2.015 -0.1709 -0.0179  0.1984
 1715TIP3    H126560   3.682   5.015   2.034 -1.7820  0.2328  1.8192
 1715TIP3    H226561   3.770   5.128   1.985  0.5274 -1.8382  0.9400
 1716TIP3   OH226562   6.042   2.157   2.671  0.1622 -0.3796  0.0602
 1716TIP3    H126563   6.031   2.078   2.724  0.0546  0.4163  1.2671
 1716TIP3    H226564   6.133   2.183   2.687 -0.3060  0.7158  1.1164
 1717TIP3   OH226565   1.815   4.115   4.110 -0.0046 -0.4929 -0.5792
 1717TIP3    H126566   1.862   4.190   4.072 -1.7677  2.0727  1.8852
 1717TIP3    H226567   1.860   4.099   4.193 -0.8178 -0.8905 -0.2130
 1718TIP3   OH226568   2.375   3.975   5.733 -0.0502 -0.1579 -0.1988
 1718TIP3    H126569   2.400   3.883   5.739  0.1727 -0.1315 -0.7260
 1718TIP3    H226570   2.324   3.991   5.813  2.4000  0.0596  1.4166
 1719TIP3   OH226571   1.972   4.045  15.964  0.4532 -0.2679 -0.4080
 1719TIP3    H126572   2.028   4.095  15.904  5.0363  2.3483  5.0215
 1719TIP3    H226573   2.018   3.962  15.976  1.8774  0.7328  1.9041
 1720TIP3   OH226574   2.353   2.336   0.199 -0.3680  0.6555  0.2360
 1720TIP3    H126575   2.428   2.352   0.143 -1.2047  0.5289 -0.9729
 1720TIP3    H226576   2.382   2.267   0.260  0.0138 -0.5206 -1.2269
 1721TIP3   OH226577   3.748   6.718   1.230  0.3362 -0.1814 -0.5494
 1721TIP3    H126578   3.742   6.622   1.224  0.6717 -0.2178 -0.3446
 1721TIP3    H226579   3.782   6.734   1.318 -1.3183  0.1900  0.0668
 1722TIP3   OH226580   6.330   5.403  16.588 -0.1234 -0.1747  0.4579
 1722TIP3    H126581   6.369   5.490  16.582 -2.4544  0.8759 -0.5186
 1722TIP3    H226582   6.369   5.364  16.667 -1.4380  3.0102  2.8614
 1723TIP3   OH226583   2.614   2.681   0.722  0.3759 -0.2721 -0.1573
 1723TIP3    H126584   2.573   2.597   0.744  0.3673 -0.2020  0.0937
 1723TIP3    H226585   2.614   2.730   0.804  1.4661 -0.4847 -0.0093
 1724TIP3   OH226586   4.616   5.282  15.859 -0.0319 -0.1403  0.1064
 1724TIP3    H126587   4.583   5.297  15.771 -1.1665  1.0412  0.6991
 1724TIP3    H226588   4.634   5.369  15.893  2.4140 -0.6699  0.3315
 1725TIP3   OH226589   0.215   4.076   2.495 -0.1876 -0.3002  0.2661
 1725TIP3    H126590   0.149   4.009   2.478  0.5674 -1.1436  0.5973
 1725TIP3    H226591   0.278   4.034   2.553  0.5134  0.5652  0.1555
 1726TIP3   OH226592   6.175   4.149  13.509 -0.6211  0.4542 -0.5741
 1726TIP3    H126593   6.084   4.169  13.528 -0.2966 -0.1055  2.0808
 1726TIP3    H226594   6.181   4.054  13.521 -0.1246  0.1185 -3.0406
 1727TIP3   OH226595   6.501   2.105  11.819 -0.3660  0.2861 -0.2697
 1727TIP3    H126596   6.579   2.123  11.766 -0.9298 -0.7299 -1.5315
 1727TIP3    H226597   6.528   2.035  11.879 -0.2222  0.1156 -0.5296
 1728TIP3   OH226598   1.634   5.197  17.058  0.5422  0.2792 -0.9186
 1728TIP3    H126599   1.547   5.156  17.059  0.7013 -0.1933 -2.8885
 1728TIP3    H226600   1.629   5.260  16.986  1.5556  0.9131 -0.4471
 1729TIP3   OH226601   3.214   3.086   2.007 -0.3053  0.0397 -0.3927
 1729TIP3    H126602   3.226   3.011   1.949  1.3441 -1.5212  1.8170
 1729TIP3    H226603   3.288   3.143   1.989 -0.1509 -0.1305 -0.3034
 1730TIP3   OH226604   4.846   1.367  13.220  0.1130  0.0333 -0.2685
 1730TIP3    H126605   4.912   1.298  13.220  1.2677  1.1080  0.0323
 1730TIP3    H226606   4.827   1.382  13.127 -1.5020 -1.9000 -0.3124
 1731TIP3   OH226607   0.869   3.108   5.316  0.1259  0.3050  0.2180
 1731TIP3    H126608   0.794   3.145   5.270  0.2107  1.2394  0.8265
 1731TIP3    H226609   0.928   3.079   5.246  0.5593  2.3106 -0.3012
 1732TIP3   OH226610   3.626   4.549  16.689 -0.1038 -0.1563  0.5773
 1732TIP3    H126611   3.631   4.572  16.782 -0.1925 -0.1614  0.5831
 1732TIP3    H226612   3.715   4.522  16.667  0.0110  0.2463  0.5528
 1733TIP3   OH226613   0.898   6.540  16.619  0.1251 -0.1336  0.2830
 1733TIP3    H126614   0.991   6.547  16.601  0.1002 -0.9436 -0.2104
 1733TIP3    H226615   0.868   6.467  16.564 -0.5559 -0.6761  1.3271
 1734TIP3   OH226616   4.043   3.036  11.399  0.1367  0.2254  0.2095
 1734TIP3    H126617   4.028   3.042  11.305  0.0941  0.4915  0.2337
 1734TIP3    H226618   4.138   3.037  11.409  0.1642 -0.6737  0.1111
 1735TIP3   OH226619   2.936   4.635  14.785 -0.1161  0.0461  0.1604
 1735TIP3    H126620   3.013   4.640  14.841 -0.1996  0.4887  0.2357
 1735TIP3    H226621   2.962   4.679  14.704 -0.6513  1.2282  0.6066
 1736TIP3   OH226622   5.210   1.543  17.035  0.3509  0.2386 -0.7004
 1736TIP3    H126623   5.302   1.540  17.011  0.2151  0.6673 -1.2880
 1736TIP3    H226624   5.165   1.572  16.956 -0.2949 -0.0360 -0.4389
 1737TIP3   OH226625   2.283   1.790  17.188 -0.6392 -0.1817  0.4320
 1737TIP3    H126626   2.212   1.743  17.145 -0.2799 -0.6448  0.3378
 1737TIP3    H226627   2.248   1.813  17.274 -1.5791  1.2826 -0.2972
 1738TIP3   OH226628   6.518   1.525  11.461 -0.0231 -0.3238  0.2243
 1738TIP3    H126629   6.519   1.440  11.506 -1.2277 -1.4859 -1.7505
 1738TIP3    H226630   6.595   1.523  11.405  0.7259  0.5291  1.1984
 1739TIP3   OH226631   2.225   1.131   0.924  0.3220 -0.0979 -0.4226
 1739TIP3    H126632   2.318   1.121   0.902  0.3216 -1.3368  0.0888
 1739TIP3    H226633   2.202   1.050   0.969 -0.5710  0.8971  1.0055
 1740TIP3   OH226634   3.673   5.731  17.386 -0.1250 -0.2477  0.7394
 1740TIP3    H126635   3.753   5.722  17.334  0.2551 -0.4629  1.3419
 1740TIP3    H226636   3.619   5.657  17.359 -0.2825  0.1078  0.0619
 1741TIP3   OH226637   1.740   1.073   5.866  0.0261  0.4561  0.0244
 1741TIP3    H126638   1.657   1.083   5.819  0.0379  0.1398 -0.0675
 1741TIP3    H226639   1.795   1.144   5.835 -0.2675  0.7609  0.2023
 1742TIP3   OH226640   1.531   3.076   0.789  0.0656  0.5739 -0.3508
 1742TIP3    H126641   1.454   3.091   0.733  0.4541  2.2813 -0.4570
 1742TIP3    H226642   1.605   3.108   0.737  0.4561  2.0836  1.0673
 1743TIP3   OH226643   2.603   3.112   0.925  0.2501 -0.0026  0.1253
 1743TIP3    H126644   2.663   3.082   0.994 -0.4039  0.1517  0.7766
 1743TIP3    H226645   2.523   3.063   0.941  0.0402  0.1513 -0.4418
 1744TIP3   OH226646   1.434   3.960   2.480  0.0779  0.3085 -0.0217
 1744TIP3    H126647   1.445   4.001   2.566  1.2383 -1.1443  0.5773
 1744TIP3    H226648   1.419   3.867   2.500  2.9392 -0.5806 -1.3547
 1745TIP3   OH226649   4.034   0.238  15.632  0.0442 -0.1824  0.0972
 1745TIP3    H126650   4.008   0.208  15.545  1.0651  2.0054 -1.0569
 1745TIP3    H226651   3.956   0.281  15.668 -0.8285 -2.3652  0.9508
 1746TIP3   OH226652   2.118   4.592   1.434  0.2576  0.3059 -0.0871
 1746TIP3    H126653   2.124   4.602   1.339 -1.7731  1.5284 -0.1476
 1746TIP3    H226654   2.208   4.582   1.464  0.9550  0.3134 -2.0905
 1747TIP3   OH226655   1.832   4.241  17.009 -0.5980  0.6572  0.0990
 1747TIP3    H126656   1.912   4.217  16.961  0.9062 -0.6926  3.0050
 1747TIP3    H226657   1.817   4.333  16.985  1.3241  0.7106 -1.2135
 1748TIP3   OH226658   0.086   4.476  15.642  0.1822  0.4314 -0.9633
 1748TIP3    H126659   0.147   4.550  15.643  1.7953 -0.7691  1.8720
 1748TIP3    H226660   0.142   4.400  15.630 -0.8703 -0.6409  0.6617
 1749TIP3   OH226661   6.460   4.449   4.793 -0.1941 -0.8895  0.3845
 1749TIP3    H126662   6.382   4.430   4.844 -1.1138 -0.5807 -0.8464
 1749TIP3    H226663   6.446   4.402   4.710  0.5983 -0.2837 -0.1119
 1750TIP3   OH226664   5.050   1.421  11.095  0.0259 -0.0088  0.4778
 1750TIP3    H126665   5.116   1.362  11.130 -0.2243 -0.0924  0.8157
 1750TIP3    H226666   5.009   1.373  11.023  1.0812  0.4633 -0.4579
 1751TIP3   OH226667   0.089   6.388   2.844  0.1402 -0.4628 -0.2466
 1751TIP3    H126668   0.101   6.444   2.921  3.2120 -0.0216 -0.9415
 1751TIP3    H226669  -0.006   6.382   2.834 -0.3600  0.5979  2.7286
 1752TIP3   OH226670   4.815   3.059   0.100  0.1260  0.3195  0.8130
 1752TIP3    H126671   4.840   3.144   0.137  0.4901  0.6511 -0.1670
 1752TIP3    H226672   4.759   3.080   0.026  0.3796 -0.2887  0.4372
 1753TIP3   OH226673   5.809   5.251  12.729  0.3512 -0.1683 -0.0606
 1753TIP3    H126674   5.841   5.190  12.795 -0.7490 -1.4650 -0.6859
 1753TIP3    H226675   5.714   5.250  12.740  0.2627  0.7423 -0.6902
 1754TIP3   OH226676   2.018   2.038   0.745  0.1282 -0.8527  1.1429
 1754TIP3    H126677   2.085   1.970   0.743  0.6260 -0.3571 -0.0998
 1754TIP3    H226678   1.948   2.001   0.799  0.5759 -2.1770  0.8606
 1755TIP3   OH226679   4.457   5.286  15.256 -0.6104 -0.4993 -0.1833
 1755TIP3    H126680   4.437   5.243  15.339  0.4266 -1.9587 -0.6460
 1755TIP3    H226681   4.550   5.309  15.263 -1.1396  1.8343  0.0836
 1756TIP3   OH226682   3.960   6.427   0.088  0.2460 -0.0748  0.2253
 1756TIP3    H126683   4.055   6.419   0.079  0.5392  0.5274  2.3142
 1756TIP3    H226684   3.932   6.344   0.125 -0.2730 -0.7719 -1.6350
 1757TIP3   OH226685   6.593   0.826   0.935  0.2867 -0.2217 -0.3183
 1757TIP3    H126686   6.630   0.739   0.946 -1.6397 -0.8899  1.4199
 1757TIP3    H226687   6.547   0.822   0.851  2.2670 -0.0236 -1.4727
 1758TIP3   OH226688   1.584   3.056  16.418 -0.1660 -0.0612 -0.4315
 1758TIP3    H126689   1.509   3.095  16.464 -0.8839  2.5774 -3.4320
 1758TIP3    H226690   1.555   2.968  16.396 -2.6267  0.9319 -1.6344
 1759TIP3   OH226691   1.186   3.193   0.886 -0.5800 -0.4115 -0.2324
 1759TIP3    H126692   1.236   3.182   0.805  1.2068  0.4644  0.6864
 1759TIP3    H226693   1.250   3.226   0.949 -1.7712 -1.6132  1.7182
 1760TIP3   OH226694   1.874   1.713   0.723 -0.3673 -0.4389 -0.5348
 1760TIP3    H126695   1.900   1.690   0.634  1.0602  1.6090 -0.7256
 1760TIP3    H226696   1.956   1.718   0.772 -0.6174  2.5840 -0.2162
 1761TIP3   OH226697   3.493   3.621   1.861 -0.2070 -0.0119  0.4665
 1761TIP3    H126698   3.492   3.687   1.792  0.8623 -1.2313 -0.7547
 1761TIP3    H226699   3.400   3.606   1.880 -0.4899  1.8130  0.7978
 1762TIP3   OH226700   4.518   1.111   6.176  0.3911  0.2682 -0.0150
 1762TIP3    H126701   4.592   1.051   6.164  0.0544 -0.1922  0.1784
 1762TIP3    H226702   4.557   1.188   6.218  0.6350 -0.3023  0.8406
 1763TIP3   OH226703   2.743   1.344  12.362 -0.3101 -0.2230  0.3118
 1763TIP3    H126704   2.818   1.302  12.322 -0.6748  0.6414 -1.3814
 1763TIP3    H226705   2.667   1.298  12.326 -0.6310 -0.0875  0.7982
 1764TIP3   OH226706   3.068   5.194   4.590  0.5414 -0.3505 -0.1858
 1764TIP3    H126707   3.022   5.154   4.517  2.5903 -1.8774 -0.7401
 1764TIP3    H226708   3.055   5.134   4.663 -1.6442  1.2532  0.8634
 1765TIP3   OH226709   6.528   1.331  15.428 -0.1214 -0.1608  0.0851
 1765TIP3    H126710   6.517   1.407  15.370  0.3039  0.4523  0.7895
 1765TIP3    H226711   6.440   1.315  15.463  0.0477  0.9913  1.1197
 1766TIP3   OH226712   3.017   5.474  14.952  0.0455 -0.0374 -0.0269
 1766TIP3    H126713   3.061   5.398  14.990  0.7451  0.7018  0.6777
 1766TIP3    H226714   3.006   5.535  15.025  0.4942  0.9977 -0.7886
 1767TIP3   OH226715   3.553   0.897   6.272  0.5924  0.7187 -0.0841
 1767TIP3    H126716   3.515   0.969   6.222 -3.2852 -1.2124 -0.2379
 1767TIP3    H226717   3.545   0.925   6.363  1.3071  1.4069 -0.2194
 1768TIP3   OH226718   1.142   1.854  14.784  0.0789  0.1265  0.3938
 1768TIP3    H126719   1.167   1.764  14.806 -1.1916 -0.9062 -2.0644
 1768TIP3    H226720   1.222   1.905  14.801  2.0375 -2.0599 -1.5128
 1769TIP3   OH226721   4.733   4.027   4.504  0.4850  0.3772  0.4809
 1769TIP3    H126722   4.699   3.950   4.456  1.1843  0.8633 -0.8586
 1769TIP3    H226723   4.803   3.992   4.558  0.4783 -0.0077  0.2490
 1770TIP3   OH226724   1.376   4.876  16.756  0.2251 -0.1184  0.3763
 1770TIP3    H126725   1.462   4.853  16.792  0.6390  1.1580  0.2570
 1770TIP3    H226726   1.383   4.969  16.735 -0.8843 -0.2217 -0.5357
 1771TIP3   OH226727   6.262   6.617  17.378  0.0460 -0.4086 -0.3169
 1771TIP3    H126728   6.313   6.675  17.435 -1.5434 -0.4086  1.2007
 1771TIP3    H226729   6.317   6.538  17.369  0.3177 -0.4537  1.3267
 1772TIP3   OH226730   2.116   2.582   1.221  0.3767 -0.0790 -0.3515
 1772TIP3    H126731   2.185   2.645   1.197 -1.1585  1.8475  0.0238
 1772TIP3    H226732   2.081   2.552   1.137 -0.7545  1.8084 -0.6232
 1773TIP3   OH226733   3.426   2.410   5.132  0.5154  0.0281 -0.3186
 1773TIP3    H126734   3.397   2.341   5.191  0.3400  0.6463  0.3340
 1773TIP3    H226735   3.354   2.421   5.070  1.3159 -1.6721 -1.6224
 1774TIP3   OH226736   2.875   3.653   5.395  0.8076 -0.4742  0.1902
 1774TIP3    H126737   2.804   3.616   5.447 -1.5362  1.1884 -1.5928
 1774TIP3    H226738   2.840   3.655   5.306  3.0861  0.5260 -0.7562
 1775TIP3   OH226739   0.314   4.480   6.490  0.0561 -0.0158  0.1142
 1775TIP3    H126740   0.338   4.396   6.450 -0.4744  0.1879 -0.6530
 1775TIP3    H226741   0.285   4.534   6.417 -1.3899  0.2156  0.8294
 1776TIP3   OH226742   4.641   1.159  16.275 -0.0782 -0.0343 -0.1297
 1776TIP3    H126743   4.703   1.192  16.341 -0.6994  0.2450  0.3179
 1776TIP3    H226744   4.694   1.099  16.222  0.8535  0.9967 -0.4097
 1777TIP3   OH226745   3.240   1.255   4.988  0.1672 -0.1198 -0.1075
 1777TIP3    H126746   3.311   1.237   5.049  0.6782  0.9107 -0.3761
 1777TIP3    H226747   3.181   1.181   4.997  1.6603 -1.3961 -0.4467
 1778TIP3   OH226748   0.941   5.182   2.765 -0.4049 -0.1516 -0.3112
 1778TIP3    H126749   0.941   5.274   2.793  0.8023 -0.2953  0.2429
 1778TIP3    H226750   0.898   5.135   2.835  0.0297 -0.1464 -0.0363
 1779TIP3   OH226751   3.418   3.224  15.089 -0.4920 -0.1718  0.3211
 1779TIP3    H126752   3.381   3.309  15.114 -1.0678 -0.4208  0.3285
 1779TIP3    H226753   3.434   3.180  15.173 -0.9018 -0.3660  0.2994
 1780TIP3   OH226754   3.690   6.383  15.135 -0.6203  0.0541  0.0070
 1780TIP3    H126755   3.737   6.321  15.080 -0.1512  1.1572 -0.8537
 1780TIP3    H226756   3.697   6.346  15.224  2.5633  0.5773  0.0697
 1781TIP3   OH226757   4.380   3.543  15.334  0.1283  0.2360 -0.6562
 1781TIP3    H126758   4.327   3.504  15.404  0.4762  0.5410 -0.2159
 1781TIP3    H226759   4.396   3.470  15.273  1.1586 -0.4596  0.3866
 1782TIP3   OH226760   4.011   0.301   2.269 -0.2647  0.3095  0.1201
 1782TIP3    H126761   3.966   0.247   2.204 -1.3032  1.3730 -0.0881
 1782TIP3    H226762   4.036   0.240   2.338 -1.6139 -0.4308 -0.0066
 1783TIP3   OH226763   3.505   0.013   0.043 -0.3192  1.0877  0.1652
 1783TIP3    H126764   3.586  -0.037   0.039 -1.3872 -0.6815 -1.4754
 1783TIP3    H226765   3.466   0.003  -0.044 -3.2797  0.0495  1.4524
 1784TIP3   OH226766   4.466   0.143   2.173 -0.1182  0.4372  0.0904
 1784TIP3    H126767   4.416   0.127   2.253  0.7049  0.6970  0.6740
 1784TIP3    H226768   4.540   0.196   2.202  0.7194 -0.2872 -0.6712
 1785TIP3   OH226769   5.718   2.854   0.194  0.2764  0.6158 -0.5234
 1785TIP3    H126770   5.789   2.801   0.157  0.4155 -0.4711  1.1820
 1785TIP3    H226771   5.762   2.914   0.255 -0.2191  0.0771  0.3903
 1786TIP3   OH226772   5.178   5.850   4.567 -0.0362 -0.2478  0.1316
 1786TIP3    H126773   5.254   5.902   4.541 -0.2290 -0.4967 -0.9797
 1786TIP3    H226774   5.102   5.903   4.540 -0.2560 -0.2524  0.7253
 1787TIP3   OH226775   1.401   3.689   4.219 -0.6198 -0.6014  0.3324
 1787TIP3    H126776   1.376   3.632   4.146  0.9415 -0.7472 -0.1159
 1787TIP3    H226777   1.364   3.648   4.296 -1.7834 -0.7730 -0.2942
 1788TIP3   OH226778   4.543   0.995   5.110  0.2958  0.2062 -0.0515
 1788TIP3    H126779   4.635   0.990   5.083 -0.2360 -1.4120 -1.7789
 1788TIP3    H226780   4.543   1.058   5.182  2.5708  1.1255 -0.7506
 1789TIP3   OH226781   2.958   2.186   7.034  0.2588  0.0208  0.0515
 1789TIP3    H126782   2.904   2.264   7.025  0.0798 -0.0323  0.6154
 1789TIP3    H226783   2.897   2.113   7.030  0.5373 -0.1574 -1.5225
 1790TIP3   OH226784   5.643   4.009   2.870  0.6508  0.2388  0.3193
 1790TIP3    H126785   5.664   3.924   2.831  1.3673 -0.6128  2.4001
 1790TIP3    H226786   5.727   4.056   2.869  0.6765  0.2044  0.8234
 1791TIP3   OH226787   2.638   6.195   3.317 -0.1646 -0.3069 -0.0837
 1791TIP3    H126788   2.653   6.284   3.286 -1.1483  0.2317  0.9337
 1791TIP3    H226789   2.623   6.204   3.411 -2.7812 -1.1932 -0.3169
 1792TIP3   OH226790   6.588   1.251  14.010 -0.0887 -0.6079  0.1001
 1792TIP3    H126791   6.613   1.190  13.940 -1.2326  0.8565 -1.6635
 1792TIP3    H226792   6.497   1.230  14.029 -0.2221 -0.0202  0.1119
 1793TIP3   OH226793   1.098   3.599  12.613 -0.1338  0.1246 -0.9171
 1793TIP3    H126794   1.086   3.551  12.696  0.5646  1.4591 -0.0135
 1793TIP3    H226795   1.171   3.658  12.630  1.0785 -0.6768 -3.0339
 1794TIP3   OH226796   6.291   4.447   5.291 -0.0901 -0.6627  0.6845
 1794TIP3    H126797   6.274   4.538   5.314  0.4103 -0.8872  1.9904
 1794TIP3    H226798   6.384   4.434   5.310 -0.2652 -1.5690  0.9522
 1795TIP3   OH226799   4.035   3.489   3.053 -0.3002  0.1950  0.3789
 1795TIP3    H126800   4.116   3.523   3.091 -0.7364 -0.0474  1.5580
 1795TIP3    H226801   4.036   3.521   2.963  0.4279  1.3736  0.7843
 1796TIP3   OH226802   5.859   4.260   3.208  0.5292 -0.4574  0.2524
 1796TIP3    H126803   5.806   4.340   3.211  1.1516  0.0467 -1.2671
 1796TIP3    H226804   5.827   4.208   3.282 -1.4400  0.2173 -0.0584
 1797TIP3   OH226805   0.171   4.683  16.308 -0.2777 -0.3572 -0.1788
 1797TIP3    H126806   0.246   4.670  16.365 -0.3719  0.6574  0.2021
 1797TIP3    H226807   0.205   4.734  16.234 -0.7674  1.0199  0.5012
 1798TIP3   OH226808   1.709   4.620   0.692  0.4527  0.6208 -0.2848
 1798TIP3    H126809   1.673   4.709   0.685  1.8186  1.3387  1.2818
 1798TIP3    H226810   1.688   4.593   0.781  0.8927 -0.2547 -0.4432
 1799TIP3   OH226811   2.448   1.705   1.683 -0.1893  0.8458 -0.8038
 1799TIP3    H126812   2.429   1.761   1.607 -0.2899  0.0622 -1.3618
 1799TIP3    H226813   2.544   1.707   1.690 -0.1596  0.6758 -1.1405
 1800TIP3   OH226814   1.216   2.248   1.216 -0.2711 -0.1404  0.2669
 1800TIP3    H126815   1.249   2.194   1.287  0.7234 -1.5783 -1.2303
 1800TIP3    H226816   1.291   2.300   1.187 -0.6454  0.3761  0.1987
 1801TIP3   OH226817   5.095   2.746  12.656 -0.4148  0.0900 -0.6073
 1801TIP3    H126818   5.046   2.679  12.704  2.9074 -2.5706 -0.5479
 1801TIP3    H226819   5.067   2.736  12.565 -2.3856  1.0662 -0.1721
 1802TIP3   OH226820   6.663   1.037   2.772 -0.5724 -0.5882 -0.1012
 1802TIP3    H126821   6.716   1.116   2.768  0.0547 -0.8835  1.5559
 1802TIP3    H226822   6.714   0.970   2.728 -0.9647 -0.1630 -1.2279
 1803TIP3   OH226823   6.007   0.116  14.086  0.6978  0.1328 -0.2079
 1803TIP3    H126824   6.098   0.096  14.107  0.8411  0.7414 -0.2110
 1803TIP3    H226825   6.007   0.211  14.073  0.0612  0.1353 -0.1963
 1804TIP3   OH226826   5.913   3.897   5.332 -0.0109  0.1999  0.2677
 1804TIP3    H126827   6.005   3.924   5.343  0.3709 -1.1748  0.5941
 1804TIP3    H226828   5.880   3.887   5.421  0.0296 -0.9053  0.1759
 1805TIP3   OH226829   5.554   2.646   3.826  0.4987  0.2561 -0.2845
 1805TIP3    H126830   5.471   2.626   3.869  0.7464  1.3151  0.7611
 1805TIP3    H226831   5.533   2.717   3.765  0.9185  1.8503  1.3287
 1806TIP3   OH226832   4.936   6.165  12.612  0.6822 -0.0329 -0.0203
 1806TIP3    H126833   4.916   6.084  12.565  0.5013  0.5155 -0.9150
 1806TIP3    H226834   4.862   6.223  12.592  0.5596  0.1946  1.0193
 1807TIP3   OH226835   3.168   5.984   2.792  0.4334  0.4988 -0.3072
 1807TIP3    H126836   3.211   6.028   2.866 -0.3527 -0.9298  1.0816
 1807TIP3    H226837   3.222   5.906   2.776  1.6274  1.7068 -2.5079
 1808TIP3   OH226838   3.284   4.394  16.414 -0.0715  0.3529  0.2679
 1808TIP3    H126839   3.368   4.407  16.370 -0.5265  0.5681 -0.5619
 1808TIP3    H226840   3.292   4.308  16.457  0.6139  0.4319  0.3048
 1809TIP3   OH226841   1.751   5.904   4.231 -0.1865 -0.6942 -0.4102
 1809TIP3    H126842   1.656   5.896   4.218 -0.0101 -0.7195 -1.8586
 1809TIP3    H226843   1.787   5.907   4.143  1.1911 -0.8692  0.1184
 1810TIP3   OH226844   3.189   2.286  14.771  0.0726  0.7781 -0.0001
 1810TIP3    H126845   3.283   2.291  14.791  0.6018 -1.7596 -1.4098
 1810TIP3    H226846   3.183   2.217  14.705 -2.9155  0.2192  0.7339
 1811TIP3   OH226847   3.453   2.470   5.457  0.7815  0.1430  0.0302
 1811TIP3    H126848   3.443   2.401   5.392 -1.0077  0.2823  0.0979
 1811TIP3    H226849   3.413   2.435   5.537  0.1862  1.0789  0.1709
 1812TIP3   OH226850   1.283   5.440   6.676 -0.5045 -0.1558 -0.1498
 1812TIP3    H126851   1.307   5.415   6.765 -1.4741  2.6187  0.9937
 1812TIP3    H226852   1.190   5.462   6.682 -0.2748  1.3423 -1.5076
 1813TIP3   OH226853   0.821   2.377  14.587  0.2413 -0.2614 -0.5197
 1813TIP3    H126854   0.742   2.323  14.584 -0.7377  1.0878 -0.4629
 1813TIP3    H226855   0.876   2.345  14.516 -0.2494 -1.3841 -0.4090
 1814TIP3   OH226856   6.439   1.800  13.050  0.0215 -0.2677  0.1224
 1814TIP3    H126857   6.519   1.788  13.101 -0.5050 -2.5831  0.5510
 1814TIP3    H226858   6.469   1.811  12.960  0.8738  1.4290  0.5766
 1815TIP3   OH226859   6.657   6.151   1.874  0.1567  0.5380  0.1481
 1815TIP3    H126860   6.706   6.203   1.938 -1.3646  0.8088  1.1223
 1815TIP3    H226861   6.680   6.190   1.790  0.4929  1.5907  0.7061
 1816TIP3   OH226862   0.916   2.801   0.357  0.5155  0.1949 -0.1585
 1816TIP3    H126863   0.904   2.854   0.436  1.0454  0.6048 -0.3443
 1816TIP3    H226864   0.889   2.713   0.382  3.1750 -0.2953  1.2971
 1817TIP3   OH226865   4.740   1.765   1.940  0.3124  0.1558  0.1592
 1817TIP3    H126866   4.691   1.759   1.858 -0.0916 -0.5450  0.4370
 1817TIP3    H226867   4.826   1.796   1.914  0.2199 -0.1513 -0.5479
 1818TIP3   OH226868   1.040   2.321   3.158 -0.8944  0.2996  0.0708
 1818TIP3    H126869   1.130   2.324   3.126  0.4023  1.6798  3.3885
 1818TIP3    H226870   1.027   2.230   3.183  0.1834  0.3683  0.9664
 1819TIP3   OH226871   4.714   1.130   3.012 -0.2618 -0.0553 -0.0124
 1819TIP3    H126872   4.677   1.117   2.924  1.5490  0.9877 -0.9826
 1819TIP3    H226873   4.735   1.224   3.015 -1.5584  0.2233  2.0824
 1820TIP3   OH226874   3.920   2.827   4.983 -0.8914 -0.4810  0.1755
 1820TIP3    H126875   3.860   2.779   5.040 -1.8091  0.7727  0.3086
 1820TIP3    H226876   3.938   2.909   5.031  2.4097 -1.5283  1.0078
 1821TIP3   OH226877   4.088   4.259   2.459 -0.0687 -0.2871  0.0819
 1821TIP3    H126878   4.095   4.352   2.482  2.4465 -0.3774  0.0073
 1821TIP3    H226879   4.154   4.246   2.391  0.1187 -2.2441  0.5634
 1822TIP3   OH226880   5.918   1.341   5.210  0.6778  0.0508 -0.1430
 1822TIP3    H126881   6.006   1.314   5.236 -0.0008 -0.6343  1.6141
 1822TIP3    H226882   5.881   1.382   5.289 -1.0719 -0.9838 -0.3616
 1823TIP3   OH226883   5.543   6.638  17.255 -0.6938 -0.3576  0.3217
 1823TIP3    H126884   5.449   6.620  17.266 -0.7495  0.3282  0.9920
 1823TIP3    H226885   5.579   6.636  17.344  0.2606 -2.3168 -0.0619
 1824TIP3   OH226886   0.481   5.966  14.972  0.1875  0.4032 -0.0491
 1824TIP3    H126887   0.454   5.945  15.061 -1.7076  0.6379 -0.5110
 1824TIP3    H226888   0.440   6.050  14.953  1.5957  0.9596 -0.7246
 1825TIP3   OH226889   1.262   6.254  12.012  0.7847  0.0717 -0.6211
 1825TIP3    H126890   1.290   6.187  11.950  1.4582  0.7576 -1.0698
 1825TIP3    H226891   1.210   6.207  12.077  0.1654 -0.6749 -1.6385
 1826TIP3   OH226892   1.445   4.254  14.143 -0.1744 -0.7204 -0.3387
 1826TIP3    H126893   1.487   4.168  14.151  1.5554  0.1195 -0.0039
 1826TIP3    H226894   1.517   4.316  14.143 -1.3383  0.7068 -1.5293
 1827TIP3   OH226895   3.378   1.605  12.359  0.7850 -0.0568 -0.4087
 1827TIP3    H126896   3.389   1.513  12.336  0.2734  0.1896 -1.7432
 1827TIP3    H226897   3.453   1.625  12.414  1.2438 -1.1127 -0.6263
 1828TIP3   OH226898   4.621   2.231  16.709  0.1875 -0.1569 -0.0225
 1828TIP3    H126899   4.531   2.223  16.677  0.1458 -0.3606  0.1369
 1828TIP3    H226900   4.668   2.276  16.639 -0.5357  1.9896  0.7905
 1829TIP3   OH226901   3.974   4.077  11.561 -0.1732 -0.1038 -0.1859
 1829TIP3    H126902   3.968   4.122  11.645  1.7211 -0.4703  0.1918
 1829TIP3    H226903   4.041   4.010  11.575 -1.1019 -1.3573 -1.4769
 1830TIP3   OH226904   1.766   6.011  12.582  0.5074  0.5377  0.4642
 1830TIP3    H126905   1.708   6.060  12.524  1.0403 -0.5222 -1.0132
 1830TIP3    H226906   1.709   5.948  12.626  0.2706  0.6498  0.3176
 1831TIP3   OH226907   3.091   1.367   2.622 -0.5619  0.0530  0.3049
 1831TIP3    H126908   3.106   1.301   2.690 -0.4329 -0.8768 -0.6062
 1831TIP3    H226909   3.130   1.447   2.657  0.9730 -0.8096  0.6431
 1832TIP3   OH226910   1.224   2.996  13.941  0.9346 -0.3292 -0.2502
 1832TIP3    H126911   1.215   3.014  13.847  0.7900 -0.8615 -0.3423
 1832TIP3    H226912   1.259   2.907  13.945 -0.7526 -1.0111  0.2172
 1833TIP3   OH226913   2.599   0.119  10.533  0.0026 -0.0145 -0.4224
 1833TIP3    H126914   2.662   0.132  10.604  1.6776 -1.5464 -1.5503
 1833TIP3    H226915   2.627   0.037  10.491 -0.8213  0.9223 -2.9748
 1834TIP3   OH226916   5.026   2.828   6.205  0.5092 -0.4872  0.4917
 1834TIP3    H126917   5.027   2.803   6.298 -0.7143 -1.2832  0.3158
 1834TIP3    H226918   5.082   2.906   6.201  0.9193 -0.6702  1.8195
 1835TIP3   OH226919   1.679   1.371  13.038  0.3374 -0.4221 -0.2600
 1835TIP3    H126920   1.752   1.417  12.998 -1.0418  2.6412  0.4628
 1835TIP3    H226921   1.607   1.382  12.976 -0.0249 -1.7682 -0.1110
 1836TIP3   OH226922   5.539   5.788   3.633 -0.0112  0.0409  0.0667
 1836TIP3    H126923   5.608   5.761   3.572 -0.7406 -0.0805 -0.7121
 1836TIP3    H226924   5.482   5.712   3.641 -0.9306  0.6554 -0.5220
 1837TIP3   OH226925   0.082   1.881  14.569  0.1309  0.2798 -0.0769
 1837TIP3    H126926   0.084   1.849  14.478  1.2106  0.5414 -0.1588
 1837TIP3    H226927   0.082   1.976  14.560  0.1752  0.3057  0.2052
 1838TIP3   OH226928   1.457   2.430   6.037 -0.0162 -0.2820  0.2444
 1838TIP3    H126929   1.426   2.494   5.973  0.9239 -0.6007 -0.5593
 1838TIP3    H226930   1.395   2.437   6.109  0.0865  1.5588  0.2068
 1839TIP3   OH226931   0.001   1.379   2.089 -0.2406 -0.1793 -0.1629
 1839TIP3    H126932  -0.088   1.357   2.062 -0.5864 -0.3062  1.0437
 1839TIP3    H226933   0.030   1.304   2.141  0.0805  0.4383  0.5646
 1840TIP3   OH226934   1.656   2.670   6.194  0.3091  0.2590 -0.0980
 1840TIP3    H126935   1.697   2.720   6.265 -0.4500  2.4825 -1.1551
 1840TIP3    H226936   1.608   2.600   6.239  1.1219  0.6583  1.4608
 1841TIP3   OH226937   2.301   3.056   5.305 -0.3414 -0.0675 -0.4120
 1841TIP3    H126938   2.344   3.005   5.374  0.7566  1.0588 -0.2317
 1841TIP3    H226939   2.363   3.056   5.233 -0.9351 -0.1544 -0.9344
 1842TIP3   OH226940   5.520   0.034   5.197 -0.2463 -0.2389  0.3396
 1842TIP3    H126941   5.588  -0.025   5.229  1.0977  0.9235 -0.2709
 1842TIP3    H226942   5.493  -0.003   5.114  2.5716  1.3211 -1.4571
 1843TIP3   OH226943   3.441   6.592   4.526  0.2789 -0.4188  0.2507
 1843TIP3    H126944   3.514   6.577   4.586  0.4938 -1.2521 -0.1947
 1843TIP3    H226945   3.478   6.645   4.456  0.2690 -0.2265  0.3914
 1844TIP3   OH226946   1.815   0.061   4.856 -0.2552  0.2158 -0.3363
 1844TIP3    H126947   1.878  -0.009   4.840  0.0026  0.2812  0.3964
 1844TIP3    H226948   1.825   0.083   4.948 -1.8368 -0.2484 -0.0190
 1845TIP3   OH226949   1.953   0.742   4.705  0.3008 -0.3295 -0.4580
 1845TIP3    H126950   2.011   0.815   4.686  1.2142 -1.0608 -0.5425
 1845TIP3    H226951   2.010   0.674   4.741 -0.5277 -1.0073 -0.3817
 1846TIP3   OH226952   5.622   6.725  16.757 -0.4192  0.6165  0.7777
 1846TIP3    H126953   5.572   6.650  16.788  1.8289 -0.9025  0.9446
 1846TIP3    H226954   5.640   6.777  16.835 -1.6468  1.1579  0.7190
 1847TIP3   OH226955   2.715   3.524   2.618  0.3596 -0.0655  0.5070
 1847TIP3    H126956   2.772   3.600   2.608  0.8096 -0.4176  0.3248
 1847TIP3    H226957   2.739   3.488   2.704  0.5526 -0.3229  0.3475
 1848TIP3   OH226958   0.881   0.369   3.892 -0.4704  0.0853  0.3133
 1848TIP3    H126959   0.887   0.411   3.978 -0.8246  0.0678  0.3477
 1848TIP3    H226960   0.953   0.407   3.842  0.9879 -1.3809  1.2317
 1849TIP3   OH226961   3.996   6.454   4.339 -0.2198  0.0003 -0.0051
 1849TIP3    H126962   3.957   6.375   4.376  0.3059  0.8506  2.5149
 1849TIP3    H226963   4.071   6.423   4.288 -0.5948 -1.1827  0.1507
 1850TIP3   OH226964   2.719   3.897  14.496  0.7459 -0.4080 -0.0049
 1850TIP3    H126965   2.807   3.903  14.459  0.2940 -0.4524 -1.1313
 1850TIP3    H226966   2.720   3.957  14.570  1.9612 -1.0073  0.4928
 1851TIP3   OH226967   1.610   5.478  16.104 -0.0626  0.5706 -0.8378
 1851TIP3    H126968   1.549   5.534  16.056 -0.1737  0.8492 -0.3749
 1851TIP3    H226969   1.636   5.529  16.180  0.9627  0.5605 -1.1563
 1852TIP3   OH226970   1.352   3.482   5.414 -0.0064  0.5749  0.0189
 1852TIP3    H126971   1.334   3.415   5.348  1.0570  0.3128 -0.0268
 1852TIP3    H226972   1.431   3.526   5.383 -1.2356  2.5735 -0.4885
 1853TIP3   OH226973   0.659   1.828   0.961 -0.2842 -0.1304  0.9743
 1853TIP3    H126974   0.602   1.801   0.889 -0.3837  0.0083  0.9994
 1853TIP3    H226975   0.638   1.770   1.033 -1.2730  0.6966  1.3776
 1854TIP3   OH226976   1.210   6.354   1.910 -0.0322  0.2023  0.6436
 1854TIP3    H126977   1.178   6.443   1.922  0.6851  0.3284  1.7267
 1854TIP3    H226978   1.220   6.320   1.999  0.7916 -0.5609  0.2654
 1855TIP3   OH226979   6.037   2.255  14.585 -0.4871  0.7441 -0.3246
 1855TIP3    H126980   5.978   2.283  14.515 -1.2263  1.6687  0.6263
 1855TIP3    H226981   5.994   2.180  14.625  1.2111 -1.5480 -2.4922
 1856TIP3   OH226982   1.841   5.029  16.017 -0.4079  0.5393 -0.1016
 1856TIP3    H126983   1.815   4.940  15.990 -1.6565  0.8752 -0.0743
 1856TIP3    H226984   1.893   5.062  15.944  0.5512 -0.4119  0.1306
 1857TIP3   OH226985   4.504   2.661  14.230 -0.1098  0.0828 -0.6325
 1857TIP3    H126986   4.562   2.712  14.287  0.5854  0.4153 -1.5933
 1857TIP3    H226987   4.536   2.571  14.236 -1.0729 -0.1870  0.7438
 1858TIP3   OH226988   6.741   4.064   0.747 -0.4545  0.6650 -0.5064
 1858TIP3    H126989   6.803   4.036   0.679 -0.2184  1.0724 -0.4582
 1858TIP3    H226990   6.739   4.159   0.741  0.2506  0.7738  0.6441
 1859TIP3   OH226991   0.473   5.403  14.704  0.1071 -0.2671  0.0012
 1859TIP3    H126992   0.379   5.416  14.709  0.0655 -0.6460  0.2716
 1859TIP3    H226993   0.486   5.356  14.621  0.2150  1.0469 -0.7610
 1860TIP3   OH226994   5.481   3.769  16.134 -0.2415  0.3069 -0.4973
 1860TIP3    H126995   5.470   3.704  16.203  0.5719  0.2331 -0.4266
 1860TIP3    H226996   5.575   3.773  16.120 -0.1570  2.3105  0.3072
 1861TIP3   OH226997   5.122   2.800  14.838 -0.0426  0.0508  0.3673
 1861TIP3    H126998   5.033   2.833  14.846 -0.4304 -0.3707 -1.6320
 1861TIP3    H226999   5.145   2.814  14.746  2.3769  1.1267  1.0611
 1862TIP3   OH227000   2.930   1.663  16.446  0.1587 -0.1628 -0.3514
 1862TIP3    H127001   2.853   1.620  16.483 -0.0603  0.6379  0.1514
 1862TIP3    H227002   2.997   1.594  16.442 -0.1737 -0.5419  0.4553
 1863TIP3   OH227003   4.444   0.155   3.534 -0.1918 -0.8365 -0.8440
 1863TIP3    H127004   4.404   0.099   3.467 -0.0225 -1.5605 -0.3479
 1863TIP3    H227005   4.476   0.231   3.485 -0.2571 -1.2565 -1.5589
 1864TIP3   OH227006   4.556   6.141  14.003  0.3492  0.3707  0.1045
 1864TIP3    H127007   4.556   6.207  14.073  1.6720  1.6960 -1.0571
 1864TIP3    H227008   4.649   6.122  13.989  0.0904 -0.0933 -1.0665
 1865TIP3   OH227009   0.801   4.049  14.282 -0.4426 -0.0469  0.0324
 1865TIP3    H127010   0.867   4.114  14.258 -1.1219  1.7044  2.4246
 1865TIP3    H227011   0.732   4.100  14.326 -1.3438 -2.3047  1.4307
 1866TIP3   OH227012   1.061   2.045   0.774  0.1772 -0.6820 -0.3299
 1866TIP3    H127013   1.096   2.123   0.816 -2.7645  0.2141  0.7356
 1866TIP3    H227014   1.122   1.975   0.797  1.6260  0.8539  0.6902
 1867TIP3   OH227015   1.008   5.204   5.663 -0.2013 -0.1457  0.7709
 1867TIP3    H127016   0.987   5.137   5.728 -1.6112 -1.1124 -0.5982
 1867TIP3    H227017   0.922   5.234   5.631  0.4453  0.2327 -0.6921
 1868TIP3   OH227018   1.526   6.693   4.904  0.3818  0.3197  0.0035
 1868TIP3    H127019   1.506   6.599   4.902 -1.0464  0.5997 -0.1331
 1868TIP3    H227020   1.600   6.703   4.845  2.5847 -1.1347  2.3195
 1869TIP3   OH227021   6.293   2.207  14.884  0.3457  0.4252 -0.3029
 1869TIP3    H127022   6.380   2.178  14.859 -0.2042 -0.3999 -1.3072
 1869TIP3    H227023   6.233   2.147  14.840 -0.7233 -0.6609  2.3885
 1870TIP3   OH227024   1.893   1.192   3.378  0.6458 -0.5755 -0.2392
 1870TIP3    H127025   1.908   1.107   3.337 -0.5033 -1.3089  0.7868
 1870TIP3    H227026   1.850   1.171   3.461  0.5123  1.0009  0.1184
 1871TIP3   OH227027   5.366   1.373  17.373  0.1730  0.2855  0.1150
 1871TIP3    H127028   5.408   1.431  17.310 -0.3248  0.0722 -0.4350
 1871TIP3    H227029   5.362   1.423  17.454 -0.4989  1.1310 -0.4264
 1872TIP3   OH227030   4.490   1.413  12.593  0.7641 -0.3049  0.2680
 1872TIP3    H127031   4.395   1.405  12.582  0.8950 -1.9997  0.2085
 1872TIP3    H227032   4.526   1.335  12.551  2.0865 -0.5157  1.6914
 1873TIP3   OH227033   2.111   0.096  13.348  0.6287  0.0624  0.3715
 1873TIP3    H127034   2.019   0.108  13.372 -0.4088 -0.2646 -2.9016
 1873TIP3    H227035   2.146   0.184  13.339 -0.1379  0.2547 -0.8538
 1874TIP3   OH227036   1.179   5.545  14.711  0.0050  0.3763 -0.5680
 1874TIP3    H127037   1.137   5.480  14.654  0.9280  0.4580 -1.3760
 1874TIP3    H227038   1.106   5.591  14.753 -0.6721 -0.7087 -0.5211
 1875TIP3   OH227039   6.412   6.553   4.694 -0.0499 -0.2899 -0.5024
 1875TIP3    H127040   6.356   6.606   4.637 -0.6708 -0.8788 -0.4517
 1875TIP3    H227041   6.471   6.616   4.736 -2.4759  0.7504  1.5850
 1876TIP3   OH227042   5.467   3.572  13.656  0.4339  0.1270  0.4651
 1876TIP3    H127043   5.382   3.565  13.699 -0.0934  0.5802 -0.4520
 1876TIP3    H227044   5.530   3.576  13.727 -0.3379  0.0296  1.1698
 1877TIP3   OH227045   3.934   0.227   0.333  0.0905 -0.0233 -0.3285
 1877TIP3    H127046   4.028   0.242   0.336  0.1093 -0.2337  2.2078
 1877TIP3    H227047   3.897   0.291   0.394 -1.5404  0.6595 -1.9418
 1878TIP3   OH227048   3.813   0.870   4.873  0.3829  0.1891  0.5216
 1878TIP3    H127049   3.723   0.875   4.905 -1.1721 -0.1223 -3.2790
 1878TIP3    H227050   3.827   0.778   4.854  2.1093  0.0129  2.3660
 1879TIP3   OH227051   0.575   0.326  14.816  0.1482  0.5708 -0.5497
 1879TIP3    H127052   0.615   0.255  14.765 -0.8728  0.3056 -1.0033
 1879TIP3    H227053   0.510   0.364  14.757 -0.4237  0.8481  0.2490
 1880TIP3   OH227054   1.775   1.786   4.957  0.1008 -0.0782 -0.3413
 1880TIP3    H127055   1.862   1.779   4.917 -0.2742 -2.2070 -0.9176
 1880TIP3    H227056   1.776   1.720   5.026 -0.7875  0.4838  0.2216
 1881TIP3   OH227057   3.887   2.739   3.290 -0.3180  0.0984 -0.7035
 1881TIP3    H127058   3.914   2.653   3.322  0.6715 -0.2576 -2.3841
 1881TIP3    H227059   3.844   2.780   3.366  1.2041 -0.9761  0.8230
 1882TIP3   OH227060   2.697   3.936  16.946  0.5121 -0.0831 -0.1160
 1882TIP3    H127061   2.715   4.028  16.964  2.2907 -0.7325  1.9121
 1882TIP3    H227062   2.604   3.932  16.926  0.6470  2.2914 -1.5824
 1883TIP3   OH227063   2.598   6.206   0.157  0.6540 -0.4149  0.4350
 1883TIP3    H127064   2.648   6.190   0.237  0.4919 -0.3559  0.5500
 1883TIP3    H227065   2.632   6.289   0.123  1.8295 -1.2151 -0.4235
 1884TIP3   OH227066   5.483   1.068   4.584 -0.0948  0.1803 -0.4247
 1884TIP3    H127067   5.517   1.121   4.655  0.0032  1.8248 -1.6260
 1884TIP3    H227068   5.498   1.121   4.505  1.2531 -2.2086 -1.9083
 1885TIP3   OH227069   1.308   2.885  15.304 -0.6628 -0.2931 -0.0131
 1885TIP3    H127070   1.278   2.799  15.336 -0.7594  0.2143  1.3623
 1885TIP3    H227071   1.342   2.868  15.216  1.4068 -2.1901  1.0373
 1886TIP3   OH227072   0.589   0.182  17.385 -0.3361 -0.3839  0.3053
 1886TIP3    H127073   0.583   0.276  17.367 -0.5304 -0.2653  0.9527
 1886TIP3    H227074   0.682   0.168  17.405 -0.4182 -0.2055  0.8329
 1887TIP3   OH227075   6.427   1.064   3.942  0.4449 -0.0249  0.1655
 1887TIP3    H127076   6.469   0.999   3.999  2.0422 -0.0035 -0.9287
 1887TIP3    H227077   6.338   1.030   3.929  1.2887 -2.1566 -0.5391
 1888TIP3   OH227078   2.135   4.186  15.241 -0.0048  0.5800  0.4054
 1888TIP3    H127079   2.195   4.154  15.174 -1.1944 -0.9486  0.0151
 1888TIP3    H227080   2.181   4.171  15.324  0.6643  0.6026  0.0408
 1889TIP3   OH227081   0.156   4.885  11.297 -0.5842  0.2522 -0.3817
 1889TIP3    H127082   0.223   4.911  11.360 -0.1662 -1.8782  0.1213
 1889TIP3    H227083   0.098   4.827  11.346  0.6582 -2.8244 -2.2344
 1890TIP3   OH227084   0.812   6.521  15.266 -0.2761 -0.1910 -0.6097
 1890TIP3    H127085   0.721   6.527  15.294 -0.0334 -0.2280  0.1962
 1890TIP3    H227086   0.807   6.479  15.180 -0.9363 -1.5639  0.0608
 1891TIP3   OH227087   4.334   3.583   2.792  0.2965  0.0281  0.3106
 1891TIP3    H127088   4.411   3.534   2.821  0.1741  0.1068  0.7789
 1891TIP3    H227089   4.274   3.578   2.866  0.2228  0.7657  0.3086
 1892TIP3   OH227090   5.090   0.966   1.059  0.2644  0.7843  0.2208
 1892TIP3    H127091   5.035   1.041   1.081 -0.2846  0.5642 -0.3757
 1892TIP3    H227092   5.135   0.993   0.978  0.0433  0.4652 -0.0104
 1893TIP3   OH227093   3.414   3.887   0.501 -0.1565  0.4246  0.8470
 1893TIP3    H127094   3.364   3.810   0.473 -0.5822  0.9456  0.1283
 1893TIP3    H227095   3.505   3.861   0.492 -0.2931  0.2627 -0.1404
 1894TIP3   OH227096   2.079   1.372  13.463 -0.5102  0.2416  0.0123
 1894TIP3    H127097   2.083   1.463  13.434  1.1652  0.0889 -0.3712
 1894TIP3    H227098   2.167   1.338  13.446 -0.3367 -0.7554  2.4857
 1895TIP3   OH227099   4.862   6.671  11.131  0.2529 -0.6645  0.6428
 1895TIP3    H127100   4.801   6.604  11.100 -2.2120  1.3486  0.7689
 1895TIP3    H227101   4.934   6.669  11.067 -2.0162 -0.3423 -2.1626
 1896TIP3   OH227102   1.582   6.282  15.182  0.0078 -0.4138 -0.5562
 1896TIP3    H127103   1.643   6.338  15.231  0.4879 -1.3902 -0.0109
 1896TIP3    H227104   1.635   6.206  15.156 -0.9670 -1.2821 -0.0808
 1897TIP3   OH227105   3.304   2.660   5.305 -0.2353  0.1982  0.4696
 1897TIP3    H127106   3.214   2.660   5.339 -0.9110 -0.0187 -1.2193
 1897TIP3    H227107   3.347   2.588   5.352 -1.2631 -0.3990  0.5281
 1898TIP3   OH227108   6.722   5.740  17.104  0.0580  0.4652 -0.4505
 1898TIP3    H127109   6.658   5.670  17.120  0.9762  0.0602  1.7773
 1898TIP3    H227110   6.682   5.818  17.143  0.4723  0.4320  0.0509
 1899TIP3   OH227111   5.701   0.244  17.288  0.3098 -0.0789 -0.0173
 1899TIP3    H127112   5.770   0.310  17.293  1.3846 -1.1496 -0.3609
 1899TIP3    H227113   5.747   0.160  17.298 -1.3025 -0.7395  3.4387
 1900TIP3   OH227114   3.560   1.487  13.305  0.1661  0.0769  0.3145
 1900TIP3    H127115   3.602   1.450  13.227 -2.6792  0.3704 -1.5052
 1900TIP3    H227116   3.534   1.412  13.357 -0.9851 -0.3124 -0.7845
 1901TIP3   OH227117   0.640   6.487   3.193 -0.3156 -0.1160  0.1167
 1901TIP3    H127118   0.559   6.532   3.214  0.2100  0.3047  1.3508
 1901TIP3    H227119   0.699   6.555   3.160  0.0814 -0.1071  0.8286
 1902TIP3   OH227120   5.302   3.775  11.345  0.1020 -0.1002 -0.0842
 1902TIP3    H127121   5.281   3.724  11.267 -2.0619  2.2974 -1.2121
 1902TIP3    H227122   5.313   3.865  11.314  1.9857  0.5102  2.0455
 1903TIP3   OH227123   0.084   1.997   1.087 -0.0626 -0.3416 -0.1981
 1903TIP3    H127124   0.129   2.059   1.145  1.5902 -1.8532  0.2081
 1903TIP3    H227125   0.126   2.010   1.002 -1.7294  1.0942 -0.8554
 1904TIP3   OH227126   3.600   1.360   4.227 -0.3306  0.1162  0.7106
 1904TIP3    H127127   3.618   1.319   4.311  0.0805  0.0233  0.5771
 1904TIP3    H227128   3.683   1.356   4.180 -0.7528 -0.5416 -0.0032
 1905TIP3   OH227129   5.010   6.507   0.211 -0.1684  0.3593 -0.9037
 1905TIP3    H127130   5.052   6.456   0.141 -0.5426  0.6123 -1.3159
 1905TIP3    H227131   4.917   6.505   0.190 -0.5358 -1.2458  0.6914
 1906TIP3   OH227132   1.040   3.251  11.648 -0.3815  0.0383  0.0153
 1906TIP3    H127133   1.037   3.344  11.671  0.4879  0.4104 -1.2816
 1906TIP3    H227134   0.987   3.208  11.716  0.0596  1.3440  1.2318
 1907TIP3   OH227135   4.876   0.463  13.022 -0.3699 -0.5029 -0.2059
 1907TIP3    H127136   4.785   0.454  12.992 -0.6126 -0.0146  0.3537
 1907TIP3    H227137   4.869   0.515  13.102  0.4288 -0.2751 -0.2805
 1908TIP3   OH227138   0.981   0.740  14.138 -0.1765  0.5929  0.6630
 1908TIP3    H127139   0.895   0.697  14.144 -1.0665  2.3396  1.1638
 1908TIP3    H227140   0.996   0.750  14.045 -0.1961 -0.3147  0.5535
 1909TIP3   OH227141   4.631   1.406  12.958 -0.6165 -0.0239  0.2156
 1909TIP3    H127142   4.609   1.479  12.900 -2.0137 -1.2739 -0.8886
 1909TIP3    H227143   4.635   1.329  12.901  0.5301 -0.8975  1.3972
 1910TIP3   OH227144   3.464   2.491   0.564 -0.1661 -0.3359  1.0745
 1910TIP3    H127145   3.519   2.417   0.590  0.4047 -0.7355 -1.1163
 1910TIP3    H227146   3.390   2.451   0.519  0.7696  0.3935 -1.2696
 1911TIP3   OH227147   4.780   0.435   5.835  0.2213 -0.2745 -0.2616
 1911TIP3    H127148   4.711   0.432   5.769  0.7073  0.5214 -0.8364
 1911TIP3    H227149   4.820   0.522   5.823  0.4875 -0.2171  0.9086
 1912TIP3   OH227150   2.331   4.612   4.662 -0.2627  0.7056 -0.7257
 1912TIP3    H127151   2.312   4.551   4.733 -0.2572  1.6625  0.1311
 1912TIP3    H227152   2.404   4.573   4.614 -0.8169 -0.3551 -0.7162
 1913TIP3   OH227153   0.938   3.082  14.768  0.1891  0.0776 -0.2788
 1913TIP3    H127154   0.877   3.050  14.702  0.7099 -2.2784  0.2990
 1913TIP3    H227155   1.024   3.051  14.739  0.7275  0.8405  0.4347
 1914TIP3   OH227156   1.333   3.684   2.434  0.3909 -0.9102 -0.2459
 1914TIP3    H127157   1.281   3.624   2.380 -0.2814 -1.5942  1.0884
 1914TIP3    H227158   1.373   3.627   2.500 -1.2725  0.2041  1.8351
 1915TIP3   OH227159   1.166   0.867   4.185 -0.4370 -0.1364 -0.2657
 1915TIP3    H127160   1.151   0.840   4.276 -0.6908 -0.4954 -0.4121
 1915TIP3    H227161   1.093   0.926   4.165 -0.9083 -0.7999 -0.5357
 1916TIP3   OH227162   1.626   1.418  14.877  0.2238 -0.1584  0.2683
 1916TIP3    H127163   1.617   1.429  14.782 -0.5613 -1.0654  0.2189
 1916TIP3    H227164   1.675   1.495  14.906 -1.7873  1.5184 -0.5069
 1917TIP3   OH227165   6.595   0.691  14.321  0.5410  0.0329 -0.3953
 1917TIP3    H127166   6.585   0.671  14.228  0.7249 -0.0069 -0.4073
 1917TIP3    H227167   6.505   0.695  14.354  0.4388  0.8432 -0.7406
 1918TIP3   OH227168   5.658   1.955   3.648 -0.0537  0.2850 -0.8240
 1918TIP3    H127169   5.656   1.891   3.578  0.9547  0.6043 -1.1630
 1918TIP3    H227170   5.694   1.908   3.723  0.5551  0.4012 -1.0343
 1919TIP3   OH227171   5.708   1.197   3.732 -0.4162  0.1180 -0.6657
 1919TIP3    H127172   5.733   1.276   3.685  0.5931  0.2545  0.0682
 1919TIP3    H227173   5.729   1.216   3.824 -1.1542 -0.6062 -0.3349
 1920TIP3   OH227174   0.584   2.080   2.198  0.1400 -0.0679  0.3667
 1920TIP3    H127175   0.665   2.131   2.196 -0.8787  1.6443  0.8814
 1920TIP3    H227176   0.567   2.064   2.291 -1.1838  1.4182  0.4150
 1921TIP3   OH227177   0.341   3.284  13.372 -0.2305 -0.1696 -0.1857
 1921TIP3    H127178   0.408   3.315  13.310  0.0415 -0.3265  0.0244
 1921TIP3    H227179   0.310   3.202  13.335 -0.8794  0.3000 -0.6925
 1922TIP3   OH227180   1.663   4.507  11.488  0.8617  0.3285 -0.6750
 1922TIP3    H127181   1.644   4.415  11.471  0.6484  0.3244 -0.4316
 1922TIP3    H227182   1.726   4.506  11.560  0.1027  0.3867  0.0125
 1923TIP3   OH227183   5.868   4.626   0.574  0.5309  0.2624 -0.0736
 1923TIP3    H127184   5.781   4.665   0.566  1.6958  2.9521 -0.9026
 1923TIP3    H227185   5.863   4.545   0.523 -1.7748 -0.3391  0.9478
 1924TIP3   OH227186   1.873   0.844  14.636  0.1904  0.3995 -0.0673
 1924TIP3    H127187   1.822   0.783  14.691 -0.3589 -0.3956 -1.4134
 1924TIP3    H227188   1.808   0.885  14.579  0.6391  1.8752  0.4399
 1925TIP3   OH227189   6.399   0.558   3.509  0.4845  0.2445  0.2181
 1925TIP3    H127190   6.319   0.603   3.482 -0.0195 -1.1362 -0.6984
 1925TIP3    H227191   6.467   0.626   3.507 -0.5953  1.3980  0.8186
 1926TIP3   OH227192   0.721   6.317   3.392 -0.1156 -0.2359 -0.1109
 1926TIP3    H127193   0.680   6.370   3.323 -0.4416  1.7446  1.5133
 1926TIP3    H227194   0.813   6.310   3.365  0.6435  3.5849  0.8405
 1927TIP3   OH227195   6.098   1.054   0.084 -0.6679 -0.3264 -0.3697
 1927TIP3    H127196   6.064   0.984   0.028  0.7693 -1.7927  0.5352
 1927TIP3    H227197   6.177   1.018   0.124 -0.3447  1.5208  0.7907
 1928TIP3   OH227198   2.588   0.167   3.937  0.2593 -0.1998 -0.6756
 1928TIP3    H127199   2.650   0.095   3.929 -1.3966 -1.7057 -0.8009
 1928TIP3    H227200   2.630   0.230   3.995  2.7239 -0.1520 -2.3668
 1929TIP3   OH227201   6.017   3.854   3.099 -0.1533 -0.2668  0.2980
 1929TIP3    H127202   5.932   3.892   3.124  0.1698  1.1709 -0.6318
 1929TIP3    H227203   6.025   3.874   3.006  2.2798  1.9300  0.8439
 1930TIP3   OH227204   4.280   6.682   4.134  0.2612 -0.2125 -0.7463
 1930TIP3    H127205   4.249   6.708   4.047  1.5329  1.4828 -0.7245
 1930TIP3    H227206   4.371   6.712   4.138  0.1850 -0.1085  1.2258
 1931TIP3   OH227207   2.767   1.276   1.216  0.1959  0.2480 -0.4672
 1931TIP3    H127208   2.859   1.256   1.200  0.5863  0.7984  0.9610
 1931TIP3    H227209   2.756   1.262   1.310 -1.4391 -0.8114 -0.7883
 1932TIP3   OH227210   4.829   2.881   4.905 -0.4292  0.1356  0.0184
 1932TIP3    H127211   4.823   2.932   4.824  0.9322  1.7451  0.8575
 1932TIP3    H227212   4.794   2.795   4.882 -0.8502  0.7944 -2.0426
 1933TIP3   OH227213   1.248   3.327   4.671  0.5349 -0.2005  0.0581
 1933TIP3    H127214   1.210   3.415   4.678  1.4180  0.2707 -0.7893
 1933TIP3    H227215   1.206   3.289   4.593 -0.7155 -1.0031  1.0831
 1934TIP3   OH227216   0.536   5.007   2.019  0.2441  0.3372 -0.3504
 1934TIP3    H127217   0.480   4.937   2.052 -0.1042  1.1965  0.9554
 1934TIP3    H227218   0.530   5.000   1.924  0.5655 -1.6601 -0.2669
 1935TIP3   OH227219   3.747   6.352   0.355 -0.3366  0.5418 -0.4254
 1935TIP3    H127220   3.665   6.356   0.306 -0.7207 -0.2974  0.1126
 1935TIP3    H227221   3.771   6.259   0.355 -1.2121  0.2183  2.2934
 1936TIP3   OH227222   3.874   0.887   1.943 -0.6320  0.2056  0.3879
 1936TIP3    H127223   3.860   0.958   2.005  2.0509  1.3833 -0.1727
 1936TIP3    H227224   3.861   0.927   1.857 -0.2629 -0.2957  0.0881
 1937TIP3   OH227225   4.435   6.117   2.152  0.2137 -0.3952 -0.0997
 1937TIP3    H127226   4.518   6.133   2.195 -0.2215  0.5566  0.4215
 1937TIP3    H227227   4.371   6.166   2.204 -0.5797 -0.6079 -0.8436
 1938TIP3   OH227228   1.889   3.880  16.836 -0.5599 -0.3662 -0.2966
 1938TIP3    H127229   1.899   3.955  16.776 -0.4008 -0.7194 -0.7172
 1938TIP3    H227230   1.800   3.888  16.870 -0.8794 -0.5189 -1.0737
 1939TIP3   OH227231   6.569   3.758  14.232 -0.0988  0.3574 -0.1854
 1939TIP3    H127232   6.532   3.676  14.198 -0.3573  1.1530 -1.9740
 1939TIP3    H227233   6.492   3.811  14.254 -0.0134  0.9582 -1.2450
 1940TIP3   OH227234   3.922   4.437  17.133  0.1498  0.2237  0.5915
 1940TIP3    H127235   3.854   4.491  17.093  1.5294  0.7221 -1.2036
 1940TIP3    H227236   3.963   4.495  17.197 -0.0081  0.4823  0.4610
 1941TIP3   OH227237   3.948   0.500   0.140 -0.3888 -0.4335  0.1254
 1941TIP3    H127238   3.919   0.489   0.231 -1.9225  0.8527 -0.1583
 1941TIP3    H227239   3.887   0.448   0.089 -0.2408 -0.2384 -0.2557
 1942TIP3   OH227240   4.240   1.458   5.797  0.1066 -0.1635 -0.6413
 1942TIP3    H127241   4.322   1.419   5.766  0.9988  1.6965 -0.7388
 1942TIP3    H227242   4.190   1.384   5.830  2.6727 -1.1997  1.3295
 1943TIP3   OH227243   1.611   5.400   1.354  0.1945 -0.2898  0.0892
 1943TIP3    H127244   1.682   5.422   1.293 -0.7830  1.7540 -0.3736
 1943TIP3    H227245   1.618   5.466   1.423 -0.9832 -0.3431  0.2671
 1944TIP3   OH227246   5.543   0.845  16.112 -0.0700 -0.3819 -0.0987
 1944TIP3    H127247   5.566   0.752  16.120  0.4381 -0.3669 -1.1768
 1944TIP3    H227248   5.512   0.853  16.021  1.3557  0.7968 -0.5105
 1945TIP3   OH227249   6.383   3.434   0.124  0.6411 -0.3679 -0.6438
 1945TIP3    H127250   6.392   3.367   0.056 -0.5736  0.6126 -1.8074
 1945TIP3    H227251   6.304   3.409   0.172  0.4100  0.0093 -0.8273
 1946TIP3   OH227252   3.702   1.554  11.439  0.1860 -0.5084  0.3246
 1946TIP3    H127253   3.692   1.634  11.389 -0.2050 -0.7237  0.0587
 1946TIP3    H227254   3.715   1.485  11.373  2.3119 -0.4241  0.5848
 1947TIP3   OH227255   0.601   2.578   0.145 -0.1091  1.1708  0.0356
 1947TIP3    H127256   0.536   2.523   0.189  0.2544  0.9404  0.2943
 1947TIP3    H227257   0.554   2.658   0.123 -0.2568  1.3530  0.9775
 1948TIP3   OH227258   0.379   0.474  13.273 -0.5492 -0.2823 -0.0200
 1948TIP3    H127259   0.288   0.472  13.304 -0.2802 -0.6934  0.7379
 1948TIP3    H227260   0.371   0.472  13.177 -1.3660  0.7037  0.0036
 1949TIP3   OH227261   2.833   2.903   1.555 -0.3621  0.2903  0.1757
 1949TIP3    H127262   2.853   2.985   1.600  1.4315 -0.0432  0.0399
 1949TIP3    H227263   2.742   2.884   1.580 -0.5095  1.8293  0.9396
 1950TIP3   OH227264   4.310   6.551  14.348 -0.0902  0.0816  0.0426
 1950TIP3    H127265   4.266   6.631  14.318 -2.9540 -0.5092  2.2202
 1950TIP3    H227266   4.402   6.577  14.358 -0.3649  2.2172 -2.0899
 1951TIP3   OH227267   0.238   0.885  16.135  0.1635  0.0101 -0.0060
 1951TIP3    H127268   0.167   0.944  16.161  0.4687  0.3757 -0.0082
 1951TIP3    H227269   0.193   0.810  16.097 -0.2418  0.0499  0.3833
 1952TIP3   OH227270   2.737   1.487  11.757 -0.0018 -0.1993 -0.1341
 1952TIP3    H127271   2.815   1.459  11.806 -0.6290 -0.0310  1.0030
 1952TIP3    H227272   2.754   1.459  11.667  2.8120  2.5929 -0.6833
 1953TIP3   OH227273   1.641   1.694   4.406 -0.1614  0.2960  0.4409
 1953TIP3    H127274   1.719   1.699   4.461  0.4398 -0.3248 -0.3374
 1953TIP3    H227275   1.664   1.742   4.327 -0.6570  0.2942  0.2914
 1954TIP3   OH227276   4.896   6.720  12.887 -0.0811  0.4197  0.2019
 1954TIP3    H127277   4.920   6.766  12.807  0.0451 -0.0174 -0.0155
 1954TIP3    H227278   4.917   6.781  12.957  1.3225  0.1957  0.0031
 1955TIP3   OH227279   1.778   2.465  16.857  0.2295 -0.2097  0.3097
 1955TIP3    H127280   1.867   2.497  16.869  0.4127 -0.6184  0.0661
 1955TIP3    H227281   1.725   2.544  16.851  0.5016  0.0267  0.9989
 1956TIP3   OH227282   0.285   0.816   2.682  0.2455  0.1128  0.1211
 1956TIP3    H127283   0.306   0.896   2.731  0.3681 -0.4464  0.9932
 1956TIP3    H227284   0.194   0.829   2.654  0.6286  1.0630 -0.7708
 1957TIP3   OH227285   0.944   6.048  11.874 -0.1979 -0.3761 -0.1786
 1957TIP3    H127286   0.862   6.096  11.871 -0.9630 -1.6347 -0.3241
 1957TIP3    H227287   0.967   6.033  11.782  0.6614  0.6843 -0.1643
 1958TIP3   OH227288   4.926   6.063  15.482 -0.2532 -0.1124 -0.2338
 1958TIP3    H127289   5.000   6.026  15.531 -1.2507 -0.3340  1.1598
 1958TIP3    H227290   4.923   6.155  15.511 -1.8255 -0.6344  1.4134
 1959TIP3   OH227291   1.116   1.436   5.492  0.3044 -0.0214  0.4829
 1959TIP3    H127292   1.192   1.401   5.540  0.5937  0.4777  0.3896
 1959TIP3    H227293   1.140   1.526   5.470 -0.2126  0.0586  0.2262
 1960TIP3   OH227294   5.831   6.442  12.404  0.1517 -0.4379 -0.2898
 1960TIP3    H127295   5.744   6.447  12.366 -0.3287 -2.2723  0.4671
 1960TIP3    H227296   5.865   6.531  12.398 -1.6092  0.2317 -0.9583
 1961TIP3   OH227297   0.586   3.960   1.491 -0.2333  0.0608  0.2949
 1961TIP3    H127298   0.569   3.872   1.458  2.8633 -0.6772  0.4374
 1961TIP3    H227299   0.657   3.950   1.554  0.8212  2.7420 -0.3055
 1962TIP3   OH227300   1.828   0.554   0.315  0.3128  0.0696  0.3468
 1962TIP3    H127301   1.810   0.518   0.228  0.4229  0.4194  0.1752
 1962TIP3    H227302   1.899   0.500   0.350  0.9193  0.5210 -0.1721
 1963TIP3   OH227303   6.293   6.505   1.344  0.3979  0.7872  0.0811
 1963TIP3    H127304   6.370   6.459   1.376  0.7963 -1.1334 -3.1578
 1963TIP3    H227305   6.307   6.596   1.370  1.1799 -0.2399  3.9292
 1964TIP3   OH227306   2.811   4.997  16.633  0.1203 -0.1924  0.6087
 1964TIP3    H127307   2.761   5.078  16.630 -0.8882 -0.8251 -0.5788
 1964TIP3    H227308   2.902   5.026  16.637 -0.2208  1.0065  0.2329
 1965TIP3   OH227309   1.802   3.964  11.467 -0.1797  0.6285 -0.3243
 1965TIP3    H127310   1.721   3.923  11.499  0.6025 -0.7407 -0.0220
 1965TIP3    H227311   1.871   3.928  11.523  0.6220  1.9816 -0.4070
 1966TIP3   OH227312   0.707   3.291   1.294  0.1337  0.0270 -0.3730
 1966TIP3    H127313   0.797   3.301   1.325 -0.1887 -1.3670  1.1162
 1966TIP3    H227314   0.714   3.296   1.199  1.3942  2.6345 -0.2490
 1967TIP3   OH227315   6.517   6.685  11.665 -0.3370 -1.0239  0.0491
 1967TIP3    H127316   6.575   6.615  11.694 -0.5246 -0.5031  1.7699
 1967TIP3    H227317   6.542   6.699  11.573  1.1877 -1.8525  0.2941
 1968TIP3   OH227318   6.644   0.829   6.061  0.2346  0.8291 -0.1181
 1968TIP3    H127319   6.702   0.812   6.135  2.5742  3.2369 -1.2512
 1968TIP3    H227320   6.703   0.847   5.988 -1.9803  0.1199 -2.2220
 1969TIP3   OH227321   2.964   5.157   5.596  0.2770  0.0445  0.5344
 1969TIP3    H127322   3.002   5.129   5.679 -1.5803  0.4321  1.5786
 1969TIP3    H227323   2.945   5.076   5.549 -1.4900 -0.3575  1.8531
 1970TIP3   OH227324   2.536   1.696   3.683  0.4969  0.4544  0.1461
 1970TIP3    H127325   2.601   1.646   3.634 -1.0676 -0.5508 -1.0275
 1970TIP3    H227326   2.476   1.630   3.717 -0.8090  1.4125 -0.1912
 1971TIP3   OH227327   2.897   1.594   4.535  0.3403  0.2640 -0.2182
 1971TIP3    H127328   2.853   1.557   4.458 -1.2569  0.2204  0.6702
 1971TIP3    H227329   2.882   1.530   4.604 -2.3016  2.3382  1.2980
 1972TIP3   OH227330   1.393   2.388   4.410  0.2501  0.3129  0.1122
 1972TIP3    H127331   1.418   2.317   4.351  1.0645  0.3529  0.4018
 1972TIP3    H227332   1.379   2.346   4.494  1.1269  0.5453  0.3801
 1973TIP3   OH227333   2.781   0.050  11.487 -0.2976 -0.6547 -0.3999
 1973TIP3    H127334   2.876   0.050  11.477 -0.4065 -0.1676 -1.6048
 1973TIP3    H227335   2.757  -0.043  11.481  0.1042 -0.7957  0.0772
 1974TIP3   OH227336   5.867   5.804   3.634 -0.3433 -0.4008 -0.5243
 1974TIP3    H127337   5.798   5.778   3.573 -0.4964  2.8590 -1.8907
 1974TIP3    H227338   5.949   5.783   3.588 -0.4622  1.6089 -1.7670
 1975TIP3   OH227339   3.249   4.119   0.274  0.3405  0.1048  0.3408
 1975TIP3    H127340   3.227   4.035   0.314 -1.0801  0.3825  0.1838
 1975TIP3    H227341   3.210   4.185   0.333 -0.5890  0.5587 -0.7429
 1976TIP3   OH227342   0.639   3.502  11.389  0.1619 -0.2601  0.2985
 1976TIP3    H127343   0.597   3.490  11.304 -0.2017  1.0247  0.2687
 1976TIP3    H227344   0.707   3.568  11.373 -0.6098  0.8037  1.1842
 1977TIP3   OH227345   3.329   0.014  12.805 -0.5766  0.2119  0.1493
 1977TIP3    H127346   3.243  -0.020  12.829  0.3276 -1.9294  0.5292
 1977TIP3    H227347   3.349  -0.028  12.722  0.4130  0.1350  0.4178
 1978TIP3   OH227348   3.885   5.797  16.778  0.1893 -0.0748 -0.0105
 1978TIP3    H127349   3.882   5.766  16.688 -0.0039 -0.0023 -0.0310
 1978TIP3    H227350   3.924   5.884  16.773  0.5961 -0.2527  0.0288
 1979TIP3   OH227351   0.066   4.451  15.228 -0.0994 -0.8513  0.2129
 1979TIP3    H127352  -0.006   4.515  15.228 -0.6444 -1.4097  1.7000
 1979TIP3    H227353   0.143   4.501  15.253 -0.5687 -0.7893  1.6043
 1980TIP3   OH227354   5.085   4.135  14.628  0.1749 -0.1030 -0.2806
 1980TIP3    H127355   5.036   4.211  14.595  0.3560 -0.6901 -1.9812
 1980TIP3    H227356   5.146   4.173  14.691  1.2671  1.4488 -2.1218
 1981TIP3   OH227357   2.831   0.474  13.934 -0.1743 -0.2094  0.0070
 1981TIP3    H127358   2.762   0.487  14.000 -0.1549 -2.3340  0.5362
 1981TIP3    H227359   2.784   0.446  13.855 -0.1157  1.2716 -0.5691
 1982TIP3   OH227360   4.735   2.601  11.753 -0.0277 -0.2086 -0.0973
 1982TIP3    H127361   4.735   2.521  11.700  2.2117 -1.0910  1.1012
 1982TIP3    H227362   4.826   2.630  11.755 -0.6159  1.7878  0.4032
 1983TIP3   OH227363   4.722   6.302   0.373 -0.0509  0.5567 -0.4207
 1983TIP3    H127364   4.796   6.300   0.434 -0.5720  1.3112  0.2575
 1983TIP3    H227365   4.703   6.209   0.356  0.4504  0.3399  0.1352
 1984TIP3   OH227366   1.803   3.823   6.239 -0.1433  0.2952 -0.2262
 1984TIP3    H127367   1.733   3.764   6.209 -0.0049  0.6314 -1.2667
 1984TIP3    H227368   1.794   3.826   6.334  0.3312 -2.0350 -0.0490
 1985TIP3   OH227369   1.839   5.029   5.913  0.5911  0.3829  0.2701
 1985TIP3    H127370   1.843   4.969   5.988 -1.5803  1.0809  1.0361
 1985TIP3    H227371   1.849   5.116   5.952 -1.7194  0.8332 -0.0279
 1986TIP3   OH227372   4.871   2.295  16.260 -0.0765  0.1078  0.4581
 1986TIP3    H127373   4.789   2.261  16.225  0.2494 -0.8436  0.5920
 1986TIP3    H227374   4.939   2.245  16.214  0.4323  0.9862  0.2459
 1987TIP3   OH227375   5.978   2.245   4.609 -0.2032  0.0985  0.0945
 1987TIP3    H127376   5.972   2.157   4.572 -1.5913 -0.1170  0.7830
 1987TIP3    H227377   6.061   2.245   4.657 -0.7326 -1.2393  1.0670
 1988TIP3   OH227378   3.521   6.696  12.992  0.0418  0.1342  0.5294
 1988TIP3    H127379   3.589   6.761  13.012  0.3925 -0.8213  2.7930
 1988TIP3    H227380   3.469   6.736  12.923  1.6566  1.7950  0.2054
 1989TIP3   OH227381   2.295   6.564  10.651 -0.8635 -0.1717  0.3466
 1989TIP3    H127382   2.301   6.493  10.715 -0.5343 -0.1981  0.2850
 1989TIP3    H227383   2.258   6.523  10.573  1.0454 -0.7026 -0.3217
 1990TIP3   OH227384   6.462   3.026  11.680 -0.6701  0.1089 -0.1099
 1990TIP3    H127385   6.544   3.044  11.725 -0.7886 -1.3133  0.7242
 1990TIP3    H227386   6.482   3.037  11.587  1.1292 -2.5208 -0.1252
 1991TIP3   OH227387   4.845   2.351   0.902 -0.3802  0.1257  0.2498
 1991TIP3    H127388   4.921   2.397   0.936  0.8743 -1.5423 -0.1948
 1991TIP3    H227389   4.863   2.338   0.810 -0.7240 -1.1750  0.3441
 1992TIP3   OH227390   4.159   2.641   6.010 -0.0566 -0.0964 -0.4011
 1992TIP3    H127391   4.134   2.584   5.937  0.5696 -0.9042  0.0044
 1992TIP3    H227392   4.165   2.729   5.971 -1.4060 -0.2216 -0.9548
 1993TIP3   OH227393   4.317   4.619  16.068 -0.1336  0.8904  0.0874
 1993TIP3    H127394   4.233   4.641  16.108 -0.1811 -1.6546  1.6916
 1993TIP3    H227395   4.295   4.573  15.987 -0.1749  2.3603 -0.7553
 1994TIP3   OH227396   2.722   3.946   4.798 -0.1872 -0.0504  0.5345
 1994TIP3    H127397   2.796   3.985   4.844 -0.1459  1.0273 -0.3977
 1994TIP3    H227398   2.761   3.883   4.738  0.0507  0.9563 -0.3947
 1995TIP3   OH227399   0.900   5.385  15.212 -0.0210  0.2806 -0.1054
 1995TIP3    H127400   0.873   5.460  15.264  2.6452 -0.4389  2.5790
 1995TIP3    H227401   0.915   5.421  15.124  0.7853  2.8592  0.9825
 1996TIP3   OH227402   4.769   6.028  14.816 -0.1526 -0.5188 -0.1010
 1996TIP3    H127403   4.774   6.118  14.784  2.8350 -1.1933 -1.8855
 1996TIP3    H227404   4.681   6.021  14.854 -1.5229  2.3009 -2.3944
 1997TIP3   OH227405   6.042   1.479  16.745  0.1054  0.1314  0.2189
 1997TIP3    H127406   6.129   1.505  16.776  0.9470 -0.3376 -1.5990
 1997TIP3    H227407   6.015   1.408  16.804  1.1384 -0.0094  0.5337
 1998TIP3   OH227408   1.319   2.739  14.001 -0.2524  0.0346 -0.2858
 1998TIP3    H127409   1.241   2.689  14.024 -0.0923 -0.5170 -0.9141
 1998TIP3    H227410   1.390   2.696  14.049 -0.3744  0.7660  0.5853
 1999TIP3   OH227411   6.427   0.602   5.674 -0.0516  0.0343  0.0086
 1999TIP3    H127412   6.467   0.521   5.642 -1.1299 -1.4576  2.1513
 1999TIP3    H227413   6.501   0.657   5.699  0.7178 -1.0567  0.2236
 2000TIP3   OH227414   2.181   3.039   2.414  0.2595  0.3090 -0.3205
 2000TIP3    H127415   2.183   3.106   2.483 -1.3056 -1.2448  1.3408
 2000TIP3    H227416   2.267   3.044   2.373  0.8836  1.9819  1.0562
 2001TIP3   OH227417   4.831   6.303  12.197  0.1800  0.6139 -0.3824
 2001TIP3    H127418   4.890   6.246  12.247 -0.2132  0.7327  0.2328
 2001TIP3    H227419   4.774   6.243  12.150 -1.5679  0.4095  1.8248
 2002TIP3   OH227420   3.434   0.465  16.673  0.3611 -0.6551 -0.1524
 2002TIP3    H127421   3.449   0.418  16.591  0.8591 -1.2143  0.2489
 2002TIP3    H227422   3.461   0.403  16.741  0.0182 -0.1716  0.4311
 2003TIP3   OH227423   1.884   3.150   1.970 -0.1567  0.3975 -0.5387
 2003TIP3    H127424   1.851   3.082   1.912 -1.0361  0.5915 -0.2808
 2003TIP3    H227425   1.805   3.192   2.005  0.3521  0.4852  0.5461
 2004TIP3   OH227426   0.360   1.744  16.547 -0.5402  0.6377 -0.5162
 2004TIP3    H127427   0.437   1.746  16.604 -2.7323  0.0839  2.7226
 2004TIP3    H227428   0.396   1.740  16.458  3.1628 -1.8102  0.8800
 2005TIP3   OH227429   1.113   1.976   2.462 -0.5559  0.1004 -0.5873
 2005TIP3    H127430   1.075   1.918   2.527 -0.0926  0.4713  0.0232
 2005TIP3    H227431   1.164   2.039   2.512 -1.2524  1.1982 -1.2188
 2006TIP3   OH227432   6.179   1.922  16.162 -1.0231 -0.0820 -0.8038
 2006TIP3    H127433   6.109   1.857  16.152 -0.7312 -0.8348  1.3611
 2006TIP3    H227434   6.234   1.887  16.233  0.6718  1.2563 -1.3751
 2007TIP3   OH227435   4.090   2.290   1.116 -0.3668 -0.6483 -0.4431
 2007TIP3    H127436   4.044   2.347   1.177  0.7536  1.0885 -1.1338
 2007TIP3    H227437   4.171   2.267   1.162 -0.5066 -1.1400 -0.4382
 2008TIP3   OH227438   6.575   6.631   2.852 -0.0563  0.0282  0.1485
 2008TIP3    H127439   6.596   6.557   2.796 -2.7384 -0.9569  0.3105
 2008TIP3    H227440   6.594   6.708   2.798  1.6150 -0.7601 -0.4578
 2009TIP3   OH227441   6.713   4.222  15.358 -0.0966  0.6371 -0.4198
 2009TIP3    H127442   6.774   4.155  15.388 -0.7761 -0.4691 -1.4036
 2009TIP3    H227443   6.768   4.287  15.315  0.4544 -0.0746 -0.8206
 2010TIP3   OH227444   6.615   2.419  16.219 -0.0141 -0.0145 -0.2553
 2010TIP3    H127445   6.533   2.464  16.202  0.1312  0.8523  1.1449
 2010TIP3    H227446   6.667   2.431  16.139  0.0637  2.4701  0.0951
 2011TIP3   OH227447   1.117   0.188   1.273  0.5094  0.3721  0.0338
 2011TIP3    H127448   1.152   0.268   1.234  1.5161 -0.7810 -1.5476
 2011TIP3    H227449   1.090   0.135   1.198 -0.1936 -0.7571  1.0489
 2012TIP3   OH227450   0.445   1.597   0.449 -0.0002  0.2520  0.2881
 2012TIP3    H127451   0.361   1.582   0.405 -0.7572 -2.1637  2.3643
 2012TIP3    H227452   0.430   1.673   0.506 -0.8981 -0.4050  0.9319
 2013TIP3   OH227453   2.236   6.021  11.965 -0.1371  0.1863  0.2989
 2013TIP3    H127454   2.159   6.015  11.908 -0.8036  0.6211  1.1320
 2013TIP3    H227455   2.200   6.034  12.053  0.8584 -1.0525  0.9220
 2014TIP3   OH227456   0.061   6.480   2.249  0.1836  0.5327  0.0278
 2014TIP3    H127457   0.130   6.478   2.315 -0.3948 -0.8610  0.6296
 2014TIP3    H227458  -0.000   6.547   2.280 -0.4842 -0.6352  1.3736
 2015TIP3   OH227459   0.352   3.680   4.177  0.1510  0.6357 -0.0145
 2015TIP3    H127460   0.354   3.585   4.175 -1.9851  0.5108  0.9088
 2015TIP3    H227461   0.365   3.706   4.086  0.3759 -0.5462 -0.3373
 2016TIP3   OH227462   4.399   1.557   3.178 -0.1818  0.5013 -0.1887
 2016TIP3    H127463   4.435   1.515   3.256  1.4790  3.1263  0.6208
 2016TIP3    H227464   4.433   1.647   3.182 -1.8494  1.3643 -2.7971
 2017TIP3   OH227465   3.395   4.478   5.373  0.1240  0.3156 -0.0127
 2017TIP3    H127466   3.329   4.474   5.304  0.9215  1.3732 -0.8744
 2017TIP3    H227467   3.433   4.565   5.364  1.9458 -0.4295  0.1782
 2018TIP3   OH227468   2.295   1.469   2.230  0.2492  0.0808  0.9164
 2018TIP3    H127469   2.344   1.523   2.169 -2.1194 -0.2363 -1.4728
 2018TIP3    H227470   2.285   1.524   2.308  1.0572  1.6292 -0.0171
 2019TIP3   OH227471   2.690   6.743  13.896  0.0638 -0.1031  0.0165
 2019TIP3    H127472   2.778   6.762  13.928  0.7436 -0.8988 -1.2915
 2019TIP3    H227473   2.700   6.736  13.801 -1.5439  0.4546 -0.2193
 2020TIP3   OH227474   1.793   5.114   1.559  0.6338  0.2310  0.0303
 2020TIP3    H127475   1.781   5.084   1.469 -2.3107  0.4792  0.2343
 2020TIP3    H227476   1.727   5.183   1.570  0.6067 -0.1183  2.5156
 2021TIP3   OH227477   4.961   5.338  15.972  0.1949 -0.4864 -0.2613
 2021TIP3    H127478   4.942   5.421  15.928 -1.0407 -0.0852  0.9587
 2021TIP3    H227479   5.003   5.363  16.054  1.9933 -1.2043 -0.9111
 2022TIP3   OH227480   4.341   0.617  13.241 -0.3367  0.0636 -0.1046
 2022TIP3    H127481   4.371   0.597  13.330 -1.5449  1.0203  0.5507
 2022TIP3    H227482   4.402   0.684  13.210  0.8930 -1.2007 -0.5408
 2023TIP3   OH227483   6.656   1.806   2.450  0.3683  0.4418 -0.2042
 2023TIP3    H127484   6.613   1.759   2.378  0.8515  0.2599 -0.3749
 2023TIP3    H227485   6.749   1.798   2.431  0.5441 -0.3152  0.8748
 2024TIP3   OH227486   5.046   4.138  12.214 -0.3149 -0.0550  0.8701
 2024TIP3    H127487   4.969   4.169  12.165  0.2036 -0.8368 -0.5125
 2024TIP3    H227488   5.017   4.056  12.253  0.0219 -0.7808 -0.3406
 2025TIP3   OH227489   5.041   3.555   5.759  0.2581 -0.1179  0.0852
 2025TIP3    H127490   5.097   3.479   5.778  0.4000 -0.2607 -0.8612
 2025TIP3    H227491   4.993   3.570   5.840 -0.8881 -2.1808 -0.1427
 2026TIP3   OH227492   1.326   2.328   0.227 -0.0748  0.4493  0.0815
 2026TIP3    H127493   1.329   2.373   0.311 -0.4507  1.6398 -0.5282
 2026TIP3    H227494   1.247   2.362   0.185  0.8921  0.9757 -1.3566
 2027TIP3   OH227495   4.530   2.867   3.467 -0.1308 -0.1408  0.2674
 2027TIP3    H127496   4.474   2.920   3.523  0.5176  2.2194 -1.1750
 2027TIP3    H227497   4.470   2.809   3.421 -1.0464  0.3374  0.8234
 2028TIP3   OH227498   1.854   2.501   2.939  0.1046 -0.0556 -0.0508
 2028TIP3    H127499   1.787   2.549   2.987 -0.7966 -2.6748  1.4961
 2028TIP3    H227500   1.812   2.479   2.855  0.0065  0.5966 -0.1747
 2029TIP3   OH227501   4.417   5.348  16.715 -0.0404  0.0009  0.0589
 2029TIP3    H127502   4.418   5.269  16.770  2.4435 -0.3910 -0.4377
 2029TIP3    H227503   4.441   5.316  16.628  0.2281  1.2042 -0.3182
 2030TIP3   OH227504   4.959   5.413   0.701  0.4032  0.2679 -0.7124
 2030TIP3    H127505   4.947   5.327   0.660 -2.4491 -0.9055  2.1788
 2030TIP3    H227506   5.032   5.400   0.762 -1.3785 -0.9089  1.3084
 2031TIP3   OH227507   4.239   3.280   0.282 -0.4058  0.0656  0.4220
 2031TIP3    H127508   4.174   3.222   0.242  0.3996  0.4917 -1.6711
 2031TIP3    H227509   4.316   3.225   0.295  1.0125  0.8631 -3.2915
 2032TIP3   OH227510   5.596   1.699  14.833  0.6475  0.3494  0.4783
 2032TIP3    H127511   5.640   1.691  14.918  0.0946  1.0650  0.8383
 2032TIP3    H227512   5.610   1.790  14.807  0.9045  0.1037 -0.2560
 2033TIP3   OH227513   5.012   0.747   5.012  0.1591 -0.1496 -0.3031
 2033TIP3    H127514   4.996   0.763   4.919  0.2175 -0.8057 -0.4316
 2033TIP3    H227515   5.069   0.670   5.014 -1.6018 -1.5196  0.3250
 2034TIP3   OH227516   4.628   5.896  16.202  0.7011 -0.7281  0.3871
 2034TIP3    H127517   4.677   5.876  16.282  1.9510 -0.0534 -0.1886
 2034TIP3    H227518   4.653   5.986  16.180  2.2989 -1.6654 -2.0797
 2035TIP3   OH227519   5.337   0.992  12.412 -0.6913 -0.3696 -0.1766
 2035TIP3    H127520   5.267   1.033  12.464  0.0938  0.1560  0.4930
 2035TIP3    H227521   5.418   1.025  12.452 -0.0662 -0.6419 -1.2064
 2036TIP3   OH227522   5.169   2.842  13.676 -0.0308  0.5533 -0.3007
 2036TIP3    H127523   5.254   2.857  13.636  0.0636  0.0390 -0.3033
 2036TIP3    H227524   5.120   2.923  13.660  0.3416  0.7253 -0.5870
 2037TIP3   OH227525   5.580   6.308   3.218 -0.2293 -0.1576  1.0868
 2037TIP3    H127526   5.671   6.336   3.205 -0.0606 -1.5694 -1.5779
 2037TIP3    H227527   5.586   6.216   3.243 -0.7715 -1.5014 -2.8756
 2038TIP3   OH227528   3.778   5.004   0.863 -0.1525  0.7374  0.1106
 2038TIP3    H127529   3.851   5.060   0.836  1.1172 -1.2480 -0.8204
 2038TIP3    H227530   3.780   4.930   0.802 -2.0822 -0.0861  0.9477
 2039TIP3   OH227531   0.012   4.757  16.536  0.0144  0.6655 -0.2044
 2039TIP3    H127532   0.031   4.779  16.627  0.5862  0.8872 -0.3679
 2039TIP3    H227533   0.099   4.750  16.495 -0.2458  1.7077 -0.9918
 2040TIP3   OH227534   5.032   1.331  14.144  0.2609 -0.4743 -0.2876
 2040TIP3    H127535   5.007   1.423  14.160 -1.7061 -0.5992 -2.1777
 2040TIP3    H227536   4.960   1.280  14.181  0.8008 -1.2049 -0.2290
 2041TIP3   OH227537   1.253   3.982   1.499  0.7403 -0.3285 -0.4653
 2041TIP3    H127538   1.328   3.962   1.442  1.7050 -2.9159  1.5089
 2041TIP3    H227539   1.188   3.916   1.476  0.8534 -0.9279  0.8481
 2042TIP3   OH227540   3.577   5.476   3.264 -0.4343 -0.1438 -0.2490
 2042TIP3    H127541   3.571   5.540   3.193 -0.4771 -1.5414 -1.5735
 2042TIP3    H227542   3.486   5.450   3.281 -0.3596 -0.5132 -0.3857
 2043TIP3   OH227543   5.929   4.876   5.253 -0.2134 -0.3260 -0.2441
 2043TIP3    H127544   5.911   4.827   5.172 -0.4893  0.6426 -0.7815
 2043TIP3    H227545   5.856   4.938   5.260  1.6000  2.0546 -1.1987
 2044TIP3   OH227546   5.125   1.988  11.952  0.4661 -0.7419 -0.4266
 2044TIP3    H127547   5.072   2.042  12.010 -0.2277 -0.4694 -1.2961
 2044TIP3    H227548   5.210   1.983  11.995  0.1382 -0.0690  0.3212
 2045TIP3   OH227549   0.932   1.588   0.755 -0.0544  0.6516  0.3111
 2045TIP3    H127550   0.984   1.522   0.802  0.5451  1.3001  0.5734
 2045TIP3    H227551   0.842   1.563   0.773  0.1205 -0.9253 -0.7470
 2046TIP3   OH227552   3.623   4.547   4.876 -0.2816 -0.8605 -0.1839
 2046TIP3    H127553   3.685   4.560   4.948  0.4031 -1.1630 -0.6995
 2046TIP3    H227554   3.552   4.496   4.914  0.6507 -2.0712 -0.0039
 2047TIP3   OH227555   2.888   5.251   6.483  0.5578 -0.8251  0.6705
 2047TIP3    H127556   2.819   5.186   6.471 -0.5362  0.3073  0.6541
 2047TIP3    H227557   2.883   5.276   6.575  1.7871 -1.6208  0.9834
 2048TIP3   OH227558   5.738   5.437   0.027 -0.0998 -0.9523  0.6722
 2048TIP3    H127559   5.698   5.388   0.099  0.6429 -0.4818  1.4316
 2048TIP3    H227560   5.764   5.520   0.067 -1.1529 -0.0065 -0.5346
 2049TIP3   OH227561   4.150   4.040  11.282 -0.1153  0.3321  0.9330
 2049TIP3    H127562   4.103   3.960  11.309 -0.9410  0.8071  0.9192
 2049TIP3    H227563   4.192   4.016  11.200  0.1004 -0.2597  1.2056
 2050TIP3   OH227564   3.624   3.774  13.967 -0.2284  0.2177  0.3537
 2050TIP3    H127565   3.715   3.748  13.981 -0.0263 -0.2243 -1.4621
 2050TIP3    H227566   3.600   3.734  13.883 -0.9891  3.1123 -0.9460
 2051TIP3   OH227567   5.711   1.255   5.688 -0.1375  0.2952  0.0394
 2051TIP3    H127568   5.765   1.186   5.649  1.3978  1.0246  0.7796
 2051TIP3    H227569   5.662   1.210   5.757 -1.4822 -0.6248 -1.4339
 2052TIP3   OH227570   0.327   4.097   5.574 -0.0417 -0.4497 -0.0927
 2052TIP3    H127571   0.357   4.017   5.617  1.5643 -0.4806 -1.1959
 2052TIP3    H227572   0.408   4.145   5.553 -0.8895  0.6381 -0.9928
 2053TIP3   OH227573   4.085   6.152   4.605  0.8333 -0.7193  0.2718
 2053TIP3    H127574   4.127   6.218   4.660  0.6010  0.0142 -0.4127
 2053TIP3    H227575   4.109   6.069   4.646  1.9866 -0.2678  0.5579
 2054TIP3   OH227576   4.248   3.195   2.295 -0.6048 -0.0988 -0.0573
 2054TIP3    H127577   4.170   3.187   2.242  0.6089 -1.7731 -1.7109
 2054TIP3    H227578   4.216   3.209   2.384 -2.7118  1.3820 -0.9859
 2055TIP3   OH227579   2.998   1.876   4.798 -0.3262  0.1521 -0.0303
 2055TIP3    H127580   2.920   1.820   4.802  0.4376 -0.9488 -0.1071
 2055TIP3    H227581   2.992   1.918   4.712  0.1433 -1.4380 -0.8835
 2056TIP3   OH227582   2.678   2.338  12.246 -0.0791 -0.4510 -0.1170
 2056TIP3    H127583   2.721   2.286  12.314  0.0133 -0.2545 -0.0231
 2056TIP3    H227584   2.592   2.298  12.236 -0.4977  0.1598  0.8710
 2057TIP3   OH227585   5.520   5.386  12.261 -0.2379 -0.2006  0.0148
 2057TIP3    H127586   5.505   5.426  12.175 -0.7184 -0.8778 -0.2283
 2057TIP3    H227587   5.569   5.306  12.241 -0.3388 -0.3525  0.3722
 2058TIP3   OH227588   2.738   1.949   5.211  0.1195  0.3678 -0.6619
 2058TIP3    H127589   2.792   1.979   5.138  2.3689  2.6859  1.7289
 2058TIP3    H227590   2.651   1.936   5.173  1.2835  0.9334 -3.8041
 2059TIP3   OH227591   3.246   0.572  14.226 -0.2421 -0.1957 -0.0624
 2059TIP3    H127592   3.164   0.588  14.180 -0.4868 -0.8071  0.1540
 2059TIP3    H227593   3.298   0.519  14.165 -0.5861 -1.0508  0.3667
 2060TIP3   OH227594   1.293   5.007   4.456  0.0121  0.5850 -0.1633
 2060TIP3    H127595   1.361   5.074   4.459 -0.9344  1.5758  2.9941
 2060TIP3    H227596   1.334   4.929   4.494 -0.3804  0.9982  1.1527
 2061TIP3   OH227597   6.058   4.552  13.689  0.3519 -0.7481  0.4741
 2061TIP3    H127598   5.978   4.533  13.640 -0.6417  2.1803  0.7744
 2061TIP3    H227599   6.038   4.525  13.779 -0.5568  0.4170  0.6544
 2062TIP3   OH227600   0.315   5.545   5.010  0.2281 -0.3848 -0.1732
 2062TIP3    H127601   0.369   5.543   5.089  1.4017 -0.9292 -0.9603
 2062TIP3    H227602   0.274   5.632   5.011 -0.1983 -0.5843  1.2974
 2063TIP3   OH227603   2.672   3.098   4.316 -0.2116  0.7572  0.2978
 2063TIP3    H127604   2.736   3.104   4.386  1.5540 -1.2141 -1.0013
 2063TIP3    H227605   2.723   3.072   4.239 -2.5631 -1.1155 -0.7782
 2064TIP3   OH227606   3.734   4.836   5.797 -0.5360  0.6931 -0.0643
 2064TIP3    H127607   3.671   4.811   5.729 -1.1696 -0.9908  1.0847
 2064TIP3    H227608   3.812   4.784   5.778 -0.6637  0.3259  0.3993
 2065TIP3   OH227609   5.764   6.701  12.585  0.3524 -0.0236  0.4664
 2065TIP3    H127610   5.705   6.634  12.552  0.3267  1.0298 -1.7690
 2065TIP3    H227611   5.795   6.748  12.507  2.5185  0.8093  1.7232
 2066TIP3   OH227612   6.147   6.364   6.346 -0.2853  0.1489  0.4904
 2066TIP3    H127613   6.070   6.412   6.317 -0.3297  0.5472  1.2564
 2066TIP3    H227614   6.113   6.286   6.389 -0.2252 -0.2685 -0.1962
 2067TIP3   OH227615   5.322   0.122  16.382  0.1387 -0.6141 -0.3601
 2067TIP3    H127616   5.299   0.071  16.460 -0.8490  0.7022  0.2634
 2067TIP3    H227617   5.393   0.073  16.341  0.4555 -1.5170  1.1813
 2068TIP3   OH227618   3.313   6.207  11.345  0.4564 -0.6591 -0.2118
 2068TIP3    H127619   3.292   6.126  11.392  1.8630 -1.2009 -0.4500
 2068TIP3    H227620   3.323   6.179  11.254  0.2441 -0.0890 -0.4104
 2069TIP3   OH227621   4.415   4.697  14.336  0.1475 -0.2733  0.0851
 2069TIP3    H127622   4.429   4.694  14.430 -0.9582 -0.6296  0.2469
 2069TIP3    H227623   4.500   4.722  14.300  0.7527 -0.7694  1.1287
 2070TIP3   OH227624   4.441   4.457  12.399 -0.1559  0.2268 -0.7397
 2070TIP3    H127625   4.493   4.450  12.479  0.6634  0.2349 -1.2563
 2070TIP3    H227626   4.374   4.389  12.408  1.5852 -1.6482 -1.2252
 2071TIP3   OH227627   5.871   6.108  13.702 -0.0793 -0.1068 -0.3416
 2071TIP3    H127628   5.910   6.125  13.616  0.2051  0.7387 -0.0520
 2071TIP3    H227629   5.947   6.094  13.760  0.0563  4.1559  0.8113
 2072TIP3   OH227630   4.027   6.392   0.381  0.0114 -0.0276 -0.4708
 2072TIP3    H127631   3.938   6.367   0.358 -0.0537  0.6499 -0.9855
 2072TIP3    H227632   4.033   6.485   0.358  0.1583  0.5277  1.6161
 2073TIP3   OH227633   6.079   5.169  11.385 -0.3165 -0.8228  0.1417
 2073TIP3    H127634   6.054   5.239  11.324 -0.9839 -0.7824  0.4498
 2073TIP3    H227635   6.169   5.190  11.410 -0.2939 -0.4269 -0.2552
 2074TIP3   OH227636   2.443   3.287  14.576 -0.2631  0.4699  0.0753
 2074TIP3    H127637   2.510   3.349  14.605 -1.3318  1.0127  1.5034
 2074TIP3    H227638   2.459   3.208  14.628  0.2143  0.0354 -0.7131
 2075TIP3   OH227639   3.991   5.872   3.587 -0.3186  0.0738  0.6022
 2075TIP3    H127640   3.983   5.949   3.643 -0.2875 -0.0319  0.7540
 2075TIP3    H227641   4.020   5.803   3.647  0.9318  0.2540  0.2390
 2076TIP3   OH227642   3.134   4.172  12.757 -0.2325 -0.3568 -0.0240
 2076TIP3    H127643   3.041   4.162  12.740 -0.6026 -0.4017  1.8864
 2076TIP3    H227644   3.156   4.100  12.816  0.7959  0.1919  0.2854
 2077TIP3   OH227645   4.295   1.012   5.436 -0.5708 -0.1354 -0.6536
 2077TIP3    H127646   4.222   1.038   5.380 -1.1727 -0.0386  0.1563
 2077TIP3    H227647   4.258   1.012   5.525  0.5894  0.6407 -0.1421
 2078TIP3   OH227648   5.222   5.593   4.211 -0.1710 -0.0061 -0.2262
 2078TIP3    H127649   5.175   5.617   4.131 -0.4583 -0.3120 -0.1506
 2078TIP3    H227650   5.292   5.658   4.218  1.2110 -1.1913 -1.8798
 2079TIP3   OH227651   6.069   1.270  12.025  0.5620  0.4222  0.0033
 2079TIP3    H127652   6.012   1.202  12.059  0.6870  0.0551 -0.5151
 2079TIP3    H227653   6.018   1.351  12.032  0.3546  0.2560  0.4618
 2080TIP3   OH227654   1.873   1.086  15.391  0.0624 -0.2616  0.1962
 2080TIP3    H127655   1.787   1.111  15.358  0.0467  0.3948  0.7156
 2080TIP3    H227656   1.922   1.059  15.314 -0.1242  0.7839 -0.3043
 2081TIP3   OH227657   5.794   5.634   6.186 -0.2254 -0.0827 -0.6657
 2081TIP3    H127658   5.773   5.553   6.233  0.0920  1.2740  2.0401
 2081TIP3    H227659   5.726   5.642   6.120 -0.7976 -2.0687 -0.3825
 2082TIP3   OH227660   2.572   4.532  16.062 -0.5009  0.2125  0.4858
 2082TIP3    H127661   2.537   4.561  15.978  1.2327  0.3364 -0.2118
 2082TIP3    H227662   2.631   4.602  16.089  1.8091 -1.4370 -0.0079
 2083TIP3   OH227663   5.921   2.153   0.517 -0.0713 -0.2856  0.5232
 2083TIP3    H127664   5.870   2.205   0.455  0.6455 -0.6496 -0.4145
 2083TIP3    H227665   5.863   2.138   0.591 -2.2037 -2.6280 -1.4420
 2084TIP3   OH227666   1.064   2.735  14.580  0.3297 -0.5483  0.5929
 2084TIP3    H127667   1.125   2.664  14.561  0.8919  0.6045 -2.7098
 2084TIP3    H227668   0.993   2.724  14.516  0.3425  1.6461  0.0860
 2085TIP3   OH227669   3.102   1.760   5.867 -0.4368  0.0584  0.4850
 2085TIP3    H127670   3.133   1.686   5.815 -0.2038 -0.7738  1.7643
 2085TIP3    H227671   3.181   1.807   5.892 -0.6034  0.9892 -0.6218
 2086TIP3   OH227672   1.846   6.176   2.623 -0.0544  0.7678 -0.6794
 2086TIP3    H127673   1.931   6.140   2.598 -0.1847 -2.0120  2.2973
 2086TIP3    H227674   1.789   6.158   2.548  1.2775  0.0236 -1.5548
 2087TIP3   OH227675   4.951   6.717  11.989  0.2910  0.3953  0.2127
 2087TIP3    H127676   5.030   6.718  12.042  0.0477  0.2318  0.5794
 2087TIP3    H227677   4.879   6.724  12.052 -0.0567 -1.2529  0.0362
 2088TIP3   OH227678   1.696   4.165  15.889  0.4273  0.0973  0.0763
 2088TIP3    H127679   1.734   4.109  15.821  0.8457  0.5191 -0.0446
 2088TIP3    H227680   1.742   4.248  15.879 -1.6869  1.2003 -1.1882
 2089TIP3   OH227681   1.442   3.242   0.036  0.0557  0.5607  0.2651
 2089TIP3    H127682   1.360   3.234  -0.013 -0.1784 -0.5114  0.7858
 2089TIP3    H227683   1.415   3.277   0.121  0.4984  2.7042 -0.4224
 2090TIP3   OH227684   2.799   0.978   3.191  0.4948 -0.1041 -0.9715
 2090TIP3    H127685   2.822   1.064   3.225  1.2098 -0.8398  0.5261
 2090TIP3    H227686   2.703   0.975   3.197  0.4278  0.7325 -1.4617
 2091TIP3   OH227687   0.572   6.171   2.434 -0.4011  0.1596  0.1147
 2091TIP3    H127688   0.640   6.106   2.452  0.7392  0.4720 -2.5213
 2091TIP3    H227689   0.563   6.221   2.515  1.3870 -0.9194  1.0274
 2092TIP3   OH227690   3.989   4.699  16.036  0.3329 -0.0975 -0.2342
 2092TIP3    H127691   3.911   4.678  15.985  0.2481  2.9034 -1.5610
 2092TIP3    H227692   3.955   4.741  16.115  0.5861 -1.1431  0.4551
 2093TIP3   OH227693   0.923   0.469   2.742 -0.6528  0.3725  0.0277
 2093TIP3    H127694   1.002   0.433   2.703 -0.9568  0.4785 -0.6958
 2093TIP3    H227695   0.859   0.398   2.735 -0.2319 -0.2775  1.9824
 2094TIP3   OH227696   2.135   5.948  15.303  0.0291  0.5279  0.4130
 2094TIP3    H127697   2.224   5.984  15.295 -0.5231  1.6498 -1.1229
 2094TIP3    H227698   2.148   5.861  15.341  1.5964  1.4826  2.2743
 2095TIP3   OH227699   0.132   0.164   1.020  0.0626  0.5143  0.2248
 2095TIP3    H127700   0.227   0.148   1.016 -0.2838 -1.9063  0.1350
 2095TIP3    H227701   0.120   0.248   0.975  2.0273  0.3298 -0.7746
 2096TIP3   OH227702   5.733   2.863  16.021  0.1403 -0.0910 -1.0265
 2096TIP3    H127703   5.748   2.958  16.021 -0.1225  0.0523 -3.9362
 2096TIP3    H227704   5.675   2.848  16.096  1.5834  1.7445  0.5679
 2097TIP3   OH227705   1.116   1.443  11.834 -0.1959 -0.2109  0.0184
 2097TIP3    H127706   1.160   1.504  11.774 -0.4512  0.1268  0.1756
 2097TIP3    H227707   1.025   1.442  11.805 -0.2210 -0.4114  0.1035
 2098TIP3   OH227708   1.791   4.589   3.057  0.3090 -0.2378 -0.0264
 2098TIP3    H127709   1.769   4.514   3.112  0.7082 -1.7997 -1.8907
 2098TIP3    H227710   1.876   4.619   3.090  0.4312 -0.9963  0.3564
 2099TIP3   OH227711   2.455   3.673   2.630  0.0251  0.4350  0.4553
 2099TIP3    H127712   2.525   3.738   2.639 -0.0710  0.8704 -1.4790
 2099TIP3    H227713   2.498   3.598   2.587 -0.7032  0.7900 -0.9447
 2100TIP3   OH227714   4.977   6.240   0.476 -0.3864  0.0891 -0.2794
 2100TIP3    H127715   4.989   6.169   0.539  3.5443 -0.0922 -0.9981
 2100TIP3    H227716   4.991   6.199   0.391 -1.7985  1.0909 -1.0441
 2101TIP3   OH227717   4.147   1.811  12.892  0.2248 -0.1040 -0.4315
 2101TIP3    H127718   4.175   1.869  12.963  0.6065  0.7288 -1.2445
 2101TIP3    H227719   4.055   1.831  12.880  0.2347 -0.0247 -0.3788
 2102TIP3   OH227720   5.712   4.568  16.654  0.5818  0.1067  0.6198
 2102TIP3    H127721   5.650   4.619  16.707  0.0869 -0.9301  1.0650
 2102TIP3    H227722   5.681   4.478  16.661  0.5867 -0.0885 -1.3211
 2103TIP3   OH227723   4.798   3.704   3.134 -0.0671  0.3827  0.4510
 2103TIP3    H127724   4.723   3.689   3.192 -1.0282  0.1047 -0.8156
 2103TIP3    H227725   4.840   3.619   3.128 -1.1696 -0.1133 -0.8352
 2104TIP3   OH227726   1.420   5.373  15.593 -0.0147  0.1327  0.0896
 2104TIP3    H127727   1.409   5.281  15.616  0.2654  0.7592  3.2928
 2104TIP3    H227728   1.466   5.411  15.669  1.0253  2.6692 -1.6594
 2105TIP3   OH227729   3.853   2.766   5.799  0.4961 -0.7354 -0.0700
 2105TIP3    H127730   3.926   2.760   5.736 -0.2936 -1.5453 -0.9354
 2105TIP3    H227731   3.860   2.855   5.834  1.8761 -0.7845 -0.1559
 2106TIP3   OH227732   0.652   0.616   5.682 -0.4457  0.1164 -0.1049
 2106TIP3    H127733   0.666   0.669   5.761  1.2428  3.0059 -2.1397
 2106TIP3    H227734   0.571   0.651   5.644 -0.5510 -0.3689 -0.3362
 2107TIP3   OH227735   4.450   2.214   2.229  0.2383  0.1936 -0.2230
 2107TIP3    H127736   4.369   2.263   2.214  0.5310  1.1926  1.2861
 2107TIP3    H227737   4.489   2.206   2.142 -0.8167  0.8697 -0.7839
 2108TIP3   OH227738   6.434   5.968   2.653  0.6067 -0.2292  0.1995
 2108TIP3    H127739   6.388   5.989   2.572  0.9596 -1.2544 -0.2801
 2108TIP3    H227740   6.431   6.049   2.704 -0.3184  0.1869 -0.4957
 2109TIP3   OH227741   0.286   2.302  11.477  0.1887  0.1765 -0.3267
 2109TIP3    H127742   0.335   2.377  11.510  1.3864 -0.4619 -0.5906
 2109TIP3    H227743   0.249   2.261  11.555 -1.3779  1.6183 -0.2647
 2110TIP3   OH227744   0.168   0.368  10.815 -0.0833 -0.3446 -0.0327
 2110TIP3    H127745   0.262   0.356  10.809 -0.0279  0.3778 -0.6453
 2110TIP3    H227746   0.131   0.282  10.791  0.3929 -0.4063 -0.5430
 2111TIP3   OH227747   3.624   4.560   4.584 -0.5103  0.1756 -0.8280
 2111TIP3    H127748   3.703   4.507   4.576  0.7535  1.9211 -0.6440
 2111TIP3    H227749   3.623   4.588   4.675 -0.8540  0.8665 -1.0319
 2112TIP3   OH227750   2.252   2.292   1.829 -0.1929  0.4966 -0.4281
 2112TIP3    H127751   2.205   2.260   1.906 -1.8575  0.4770 -1.4099
 2112TIP3    H227752   2.331   2.333   1.864 -0.4846 -0.2766  1.2117
 2113TIP3   OH227753   4.205   1.704   4.041  0.1339  0.3234 -0.4094
 2113TIP3    H127754   4.275   1.672   4.098  0.8344  0.3144 -1.2559
 2113TIP3    H227755   4.211   1.649   3.963 -0.4512  0.7007 -0.7274
 2114TIP3   OH227756   3.195   6.465   5.578  0.4514 -0.3884 -0.2172
 2114TIP3    H127757   3.240   6.547   5.601 -0.5090 -0.1026  0.7594
 2114TIP3    H227758   3.266   6.402   5.565  1.1505 -0.1251  1.9207
 2115TIP3   OH227759   0.995   1.112   6.172 -0.0499 -0.7875 -0.7064
 2115TIP3    H127760   0.942   1.072   6.104 -0.8793 -1.4125  0.2822
 2115TIP3    H227761   1.036   1.039   6.217  0.6424 -0.3706 -0.6449
 2116TIP3   OH227762   3.948   6.467   2.654 -0.4334 -0.3047  0.2302
 2116TIP3    H127763   4.009   6.401   2.687 -1.8386 -1.2923  0.9580
 2116TIP3    H227764   3.863   6.424   2.654 -1.1466  1.0063 -0.8365
 2117TIP3   OH227765   1.843   5.679   4.975  0.0707  0.0645  0.0735
 2117TIP3    H127766   1.901   5.659   5.047  0.8191  0.3086 -0.4518
 2117TIP3    H227767   1.755   5.671   5.012  0.4239 -0.7170  0.7618
 2118TIP3   OH227768   2.738   5.978   0.749  0.4978  0.1634 -0.3082
 2118TIP3    H127769   2.824   5.937   0.757  0.3886 -0.0312 -0.1277
 2118TIP3    H227770   2.753   6.052   0.691  1.1134  1.0319  0.8999
 2119TIP3   OH227771   2.115   0.334  13.970 -0.0072  0.3021 -0.0605
 2119TIP3    H127772   2.161   0.256  13.938  0.1237 -0.8171  2.6253
 2119TIP3    H227773   2.030   0.301  13.999 -0.1471  1.2620  0.6382
 2120TIP3   OH227774   6.203   3.020  15.442  0.0128  0.3656  0.2262
 2120TIP3    H127775   6.141   2.971  15.495  0.5394 -0.0911  0.4344
 2120TIP3    H227776   6.183   3.112  15.460 -2.9980  0.4101 -2.4259
 2121TIP3   OH227777   0.933   1.070   3.333 -0.6843 -0.4291 -0.6128
 2121TIP3    H127778   0.923   1.160   3.302 -0.1251 -0.1616 -0.0472
 2121TIP3    H227779   0.877   1.064   3.410  0.1577 -0.2009  0.0395
 2122TIP3   OH227780   4.018   0.019  12.643 -0.5450  0.1883  0.6817
 2122TIP3    H127781   3.941  -0.028  12.611 -1.0389  0.7852  0.9809
 2122TIP3    H227782   4.030  -0.014  12.732  0.4893 -1.0524  0.1132
 2123TIP3   OH227783   3.947   5.343   3.472 -0.5940  0.2616  0.4056
 2123TIP3    H127784   3.909   5.392   3.545  1.5183  1.8491  0.5396
 2123TIP3    H227785   3.972   5.259   3.510  0.1119  0.9129  1.4476
 2124TIP3   OH227786   1.390   3.645   1.478  0.3294  0.0523 -0.2488
 2124TIP3    H127787   1.318   3.694   1.439  1.7792  0.6900 -2.2883
 2124TIP3    H227788   1.437   3.607   1.403  2.3951  0.0664  0.9636
 2125TIP3   OH227789   0.649   2.006  17.190  0.7829 -0.5197 -0.7289
 2125TIP3    H127790   0.697   2.006  17.273 -0.5804 -2.4980  0.1310
 2125TIP3    H227791   0.578   2.068  17.204 -0.0689 -1.6128  0.0377
 2126TIP3   OH227792   5.347   6.382  13.822 -0.6524  0.0704  0.0711
 2126TIP3    H127793   5.337   6.476  13.806 -0.9145  0.6411  3.0803
 2126TIP3    H227794   5.439   6.372  13.847 -0.8845 -0.2943  0.7861
 2127TIP3   OH227795   4.298   3.472  12.067 -0.8334 -0.0187  0.1747
 2127TIP3    H127796   4.239   3.471  11.992 -0.0364  0.0788 -0.4632
 2127TIP3    H227797   4.377   3.516  12.036  0.0220 -1.1395  0.6694
 2128TIP3   OH227798   3.800   3.178   6.326  0.3246 -0.4817 -0.6205
 2128TIP3    H127799   3.878   3.234   6.326  0.5735 -0.7696  1.1914
 2128TIP3    H227800   3.779   3.165   6.419 -3.3694  1.6282 -0.9345
 2129TIP3   OH227801   2.367   1.022  12.014  0.4315 -0.1977  0.0581
 2129TIP3    H127802   2.398   0.932  12.014  0.0838 -0.3339 -1.1509
 2129TIP3    H227803   2.415   1.065  11.944 -0.3967  0.1946 -0.2917
 2130TIP3   OH227804   4.789   3.961  14.296  0.2105 -0.4621 -0.1853
 2130TIP3    H127805   4.793   3.876  14.250 -1.1026 -0.4451 -0.3732
 2130TIP3    H227806   4.830   3.944  14.381  1.0749 -0.9571 -0.6790
 2131TIP3   OH227807   4.086   4.292  16.166 -0.0092  0.0843 -0.3917
 2131TIP3    H127808   4.097   4.349  16.090 -0.0897 -0.6676 -0.9731
 2131TIP3    H227809   4.030   4.342  16.225  1.0611  1.1885 -0.2783
 2132TIP3   OH227810   5.036   4.900   2.176  0.7769  0.2910 -0.4710
 2132TIP3    H127811   4.972   4.970   2.163  1.0414  0.4767 -0.7811
 2132TIP3    H227812   5.103   4.939   2.232 -0.8103 -0.7708  2.3601
 2133TIP3   OH227813   3.823   1.214   4.606 -0.3994  0.5557  0.1663
 2133TIP3    H127814   3.898   1.188   4.660  0.5757 -0.4856 -1.5570
 2133TIP3    H227815   3.758   1.145   4.620  0.2611 -0.2804 -0.7173
 2134TIP3   OH227816   1.183   0.365   2.698  0.8384  0.8431 -0.0313
 2134TIP3    H127817   1.231   0.424   2.640 -0.2274  1.9871  0.1998
 2134TIP3    H227818   1.236   0.285   2.702  1.6102  1.2663 -1.4683
 2135TIP3   OH227819   6.707   2.952   3.255  0.5967  0.0267 -0.2139
 2135TIP3    H127820   6.746   2.932   3.340  0.1980 -0.3158 -0.1055
 2135TIP3    H227821   6.763   3.020   3.218 -0.1247  1.3402  1.0145
 2136TIP3   OH227822   6.264   3.729  12.284 -0.1943 -0.3007  0.3885
 2136TIP3    H127823   6.333   3.712  12.219  0.6465 -0.3068  1.2624
 2136TIP3    H227824   6.197   3.665  12.264  0.4577 -0.9148  0.0999
 2137TIP3   OH227825   6.387   6.345  15.788  0.1498 -0.2398  0.5049
 2137TIP3    H127826   6.365   6.422  15.735 -0.2234 -0.6166  0.1050
 2137TIP3    H227827   6.453   6.376  15.850  0.1590  0.3488  0.2022
 2138TIP3   OH227828   0.550   4.419   1.643  0.1018  0.1386 -0.0927
 2138TIP3    H127829   0.573   4.389   1.555 -0.0682  2.2559 -0.9305
 2138TIP3    H227830   0.621   4.478   1.668 -0.5914  0.7466  0.5238
 2139TIP3   OH227831   0.512   0.108  12.747  0.3428 -0.1099  0.0833
 2139TIP3    H127832   0.607   0.106  12.763  0.2264 -1.1451  0.7506
 2139TIP3    H227833   0.476   0.155  12.822  0.4072  1.3973 -0.7799
 2140TIP3   OH227834   2.874   3.733   2.571 -0.0299 -0.3767 -0.3427
 2140TIP3    H127835   2.865   3.822   2.538 -1.7384 -1.1173 -2.1115
 2140TIP3    H227836   2.942   3.693   2.516  0.5464 -0.2524  0.2712
 2141TIP3   OH227837   4.939   4.285  14.275 -0.3219 -0.2083  0.7204
 2141TIP3    H127838   4.847   4.264  14.265 -0.6540  0.1762  2.5717
 2141TIP3    H227839   4.944   4.337  14.355  1.1671  2.1516 -0.7525
 2142TIP3   OH227840   4.616   6.610  13.554  0.4665 -0.4936  0.3003
 2142TIP3    H127841   4.701   6.621  13.596  1.5100  0.9649 -2.0225
 2142TIP3    H227842   4.634   6.554  13.478 -0.5057  0.3691 -0.5898
 2143TIP3   OH227843   4.423   4.754  16.731 -0.1694 -0.4641 -0.2065
 2143TIP3    H127844   4.342   4.746  16.679  0.4082 -3.0118 -0.8399
 2143TIP3    H227845   4.403   4.710  16.813  0.8999 -2.2713 -0.8556
 2144TIP3   OH227846   6.110   6.430  12.929  1.0263 -0.3076 -0.0009
 2144TIP3    H127847   6.036   6.443  12.870 -0.7741 -0.1805  2.1878
 2144TIP3    H227848   6.092   6.347  12.973  2.2781 -0.3642  0.4429
 2145TIP3   OH227849   6.657   0.198  13.086 -0.2947 -0.5536 -0.5285
 2145TIP3    H127850   6.678   0.286  13.054  0.6903 -0.9873 -1.1159
 2145TIP3    H227851   6.731   0.144  13.058 -0.3825 -1.3653  0.7322
 2146TIP3   OH227852   4.254   5.012  14.318  0.1316 -0.2458  0.0206
 2146TIP3    H127853   4.210   5.096  14.306  1.3149  0.3152 -0.5761
 2146TIP3    H227854   4.310   5.003  14.241  1.1220 -0.8755  0.7804
 2147TIP3   OH227855   0.370   4.807  17.292  0.1007 -0.1869  0.0773
 2147TIP3    H127856   0.447   4.788  17.239  0.3493  1.6598 -0.2771
 2147TIP3    H227857   0.315   4.861  17.236 -1.2526 -1.0708  0.5076
 2148TIP3   OH227858   6.731   0.613  17.375 -0.5716  0.0229  0.0091
 2148TIP3    H127859   6.651   0.609  17.323 -2.1342  0.3708  2.2566
 2148TIP3    H227860   6.750   0.706  17.383  1.4015 -0.0700 -2.3003
 2149TIP3   OH227861   2.520   2.534  11.909 -0.4227  0.0912  0.0194
 2149TIP3    H127862   2.496   2.494  11.826  0.2396  0.1308 -0.1996
 2149TIP3    H227863   2.615   2.542  11.905 -0.3394 -0.2904  0.9557
 2150TIP3   OH227864   6.157   0.290   3.911  0.3316 -0.1991  0.1799
 2150TIP3    H127865   6.129   0.279   4.002 -0.4831  1.0986  0.1019
 2150TIP3    H227866   6.127   0.377   3.886 -0.1507 -0.8268 -1.5872
 2151TIP3   OH227867   1.734   5.848   5.514  0.2606  0.5238  0.3807
 2151TIP3    H127868   1.765   5.765   5.550  1.8001  1.3844  1.1412
 2151TIP3    H227869   1.641   5.851   5.536  0.1580 -1.0153  0.2673
 2152TIP3   OH227870   1.345   5.046   0.024  0.3872 -0.0605  0.0074
 2152TIP3    H127871   1.279   4.985   0.057 -0.6570  0.8611 -0.3183
 2152TIP3    H227872   1.376   5.092   0.102  0.5434 -0.4096  0.1487
 2153TIP3   OH227873   2.033   0.147   4.492  0.1883 -0.2290 -0.1636
 2153TIP3    H127874   2.019   0.054   4.475  0.4661 -0.0367 -1.5115
 2153TIP3    H227875   2.096   0.149   4.565  0.6219 -1.0959 -0.5025
 2154TIP3   OH227876   2.634   0.246   0.208 -0.0005 -0.0682  0.4927
 2154TIP3    H127877   2.707   0.194   0.241  0.5253 -0.8887 -1.7548
 2154TIP3    H227878   2.566   0.182   0.187 -0.0678  0.3116 -0.5436
 2155TIP3   OH227879   5.777   1.933   3.912  0.0019 -0.0139 -0.6919
 2155TIP3    H127880   5.857   1.892   3.944 -0.5768 -0.7445 -0.1249
 2155TIP3    H227881   5.802   2.021   3.887  0.3905  0.8375  2.3425
 2156TIP3   OH227882   2.291   0.603   5.339  0.2715 -0.0897  0.6156
 2156TIP3    H127883   2.322   0.568   5.422 -0.0402  0.1018  0.8147
 2156TIP3    H227884   2.311   0.534   5.275 -0.6049 -0.7582  1.0475
 2157TIP3   OH227885   0.133   3.314  16.402 -0.2559  0.6488 -0.2024
 2157TIP3    H127886   0.114   3.395  16.355 -0.3681 -0.4422 -2.1432
 2157TIP3    H227887   0.118   3.336  16.494 -0.1576  2.8432 -0.6503
 2158TIP3   OH227888   4.018   0.975   5.911  0.4794 -0.5128 -0.7289
 2158TIP3    H127889   3.929   0.982   5.946  1.0396  0.2470  0.6448
 2158TIP3    H227890   4.052   0.894   5.950  1.0603  0.2652  0.4405
 2159TIP3   OH227891   2.005   2.603   2.044  0.2035 -0.4178 -0.3863
 2159TIP3    H127892   2.013   2.673   2.108 -0.3297 -0.8133  0.1223
 2159TIP3    H227893   1.968   2.530   2.093 -1.1792 -0.4075 -1.3535
 2160TIP3   OH227894   1.044   1.165   0.040 -0.0506 -0.5824 -0.0314
 2160TIP3    H127895   1.054   1.169  -0.055 -0.9395  0.1906 -0.1148
 2160TIP3    H227896   0.950   1.150   0.054 -0.1750  0.6706  0.7096
 2161TIP3   OH227897   3.687   2.030   5.717  0.1497  1.0196 -0.2269
 2161TIP3    H127898   3.654   1.978   5.791 -0.5172  0.4961 -0.8703
 2161TIP3    H227899   3.684   1.969   5.643  0.7509  1.5574 -0.7008
 2162TIP3   OH227900   1.619   0.185   4.266 -0.6840 -0.4004  0.8904
 2162TIP3    H127901   1.566   0.144   4.198 -1.1985 -0.3712  1.2640
 2162TIP3    H227902   1.572   0.166   4.347 -0.6598  0.4951  1.1227
 2163TIP3   OH227903   1.749   2.197  16.236 -0.1121 -0.5143  0.1603
 2163TIP3    H127904   1.831   2.156  16.209  0.2485  0.3753 -0.1215
 2163TIP3    H227905   1.685   2.126  16.233  0.8402 -1.4699  1.3919
 2164TIP3   OH227906   6.469   0.358   4.932 -0.0027  0.3924 -0.1782
 2164TIP3    H127907   6.419   0.284   4.966  0.2515  0.6207  0.7231
 2164TIP3    H227908   6.414   0.393   4.861 -2.3943  2.1482  2.3413
 2165TIP3   OH227909   6.743   3.244   1.695  0.6752 -0.4550  0.1328
 2165TIP3    H127910   6.741   3.327   1.647  1.5629 -0.9568 -0.8188
 2165TIP3    H227911   6.707   3.180   1.633  0.1192 -0.8050  0.8131
 2166TIP3   OH227912   6.669   3.755   0.950  0.0955 -0.1280 -0.0993
 2166TIP3    H127913   6.630   3.731   1.034  1.5455  0.1394  0.6868
 2166TIP3    H227914   6.702   3.844   0.964  0.2087 -0.0168 -1.0159
 2167TIP3   OH227915   3.628   4.702  12.909 -0.6483  0.5027  0.0609
 2167TIP3    H127916   3.687   4.777  12.915  0.4749 -0.3189 -0.3072
 2167TIP3    H227917   3.673   4.641  12.850 -1.9891 -0.0531 -0.4192
 2168TIP3   OH227918   4.556   3.965  16.368  0.2962 -0.4100  0.0715
 2168TIP3    H127919   4.546   4.037  16.430  0.9281 -0.5369  0.3267
 2168TIP3    H227920   4.504   3.991  16.292 -0.8532 -0.4581  0.8322
 2169TIP3   OH227921   2.267   6.270   5.568 -0.2868 -0.1033 -0.4769
 2169TIP3    H127922   2.238   6.179   5.566 -0.9513  0.1044 -2.0481
 2169TIP3    H227923   2.358   6.266   5.598 -0.9423 -1.0630  1.5418
 2170TIP3   OH227924   5.860   0.302  13.695 -0.0956  0.0050  0.1963
 2170TIP3    H127925   5.896   0.253  13.620  0.4305 -1.8964  1.6219
 2170TIP3    H227926   5.864   0.240  13.768  1.1677  2.4070  2.2853
 2171TIP3   OH227927   1.937   3.136   4.687 -0.3370  0.1102 -0.0297
 2171TIP3    H127928   1.955   3.230   4.690 -0.7087  0.1587  0.9388
 2171TIP3    H227929   1.859   3.129   4.633 -1.4208  0.5510  1.4284
 2172TIP3   OH227930   6.481   3.058   2.993  0.1018 -0.2281  0.3376
 2172TIP3    H127931   6.560   3.009   2.969  0.6206  0.8723 -0.2443
 2172TIP3    H227932   6.447   3.091   2.910 -0.3046  0.3080  0.7123
 2173TIP3   OH227933   0.484   3.813   2.558  1.2006 -0.3273 -0.1056
 2173TIP3    H127934   0.556   3.819   2.495 -0.5088 -0.7245 -2.2241
 2173TIP3    H227935   0.438   3.732   2.534  0.0623 -0.0904  1.1721
 2174TIP3   OH227936   2.848   0.590  13.064  0.0814  0.3997  0.1324
 2174TIP3    H127937   2.782   0.628  13.123  0.2796 -0.7666  1.1337
 2174TIP3    H227938   2.798   0.533  13.006  0.2071 -0.6240  1.0081
 2175TIP3   OH227939   1.602   6.268   1.805 -0.1991  0.2369 -0.2767
 2175TIP3    H127940   1.602   6.339   1.741  0.3187 -1.3222 -2.1012
 2175TIP3    H227941   1.630   6.309   1.887  1.6921  1.8259 -1.6344
 2176TIP3   OH227942   0.713   3.771   4.237  0.0130 -0.0932  0.4640
 2176TIP3    H127943   0.717   3.676   4.244 -1.6533 -0.2430 -0.1638
 2176TIP3    H227944   0.656   3.798   4.309 -0.2376  0.3338  0.1105
 2177TIP3   OH227945   6.329   5.420  11.007  0.3875 -0.1524 -0.0432
 2177TIP3    H127946   6.318   5.422  10.912  1.0904  1.3169 -0.1257
 2177TIP3    H227947   6.397   5.486  11.024 -0.7803  0.6950  1.6062
 2178TIP3   OH227948   6.121   2.006   3.839  0.1591 -0.3942 -0.4160
 2178TIP3    H127949   6.177   2.000   3.916 -0.0193  2.3535  0.0145
 2178TIP3    H227950   6.139   1.925   3.790  2.7241 -0.6937  0.8546
 2179TIP3   OH227951   6.278   5.338  14.662  0.2012 -0.3419  0.0134
 2179TIP3    H127952   6.349   5.395  14.633  1.5952 -0.6536  2.5141
 2179TIP3    H227953   6.229   5.391  14.724 -2.4172  0.1712 -2.2947
 2180TIP3   OH227954   1.278   6.010   3.637 -0.8289 -0.4064 -0.0454
 2180TIP3    H127955   1.297   5.918   3.654 -2.1077 -0.5643  0.6162
 2180TIP3    H227956   1.183   6.016   3.640 -0.8365  0.6756 -1.5232
 2181TIP3   OH227957   2.282   0.772   1.430  0.4459 -0.1216  0.2640
 2181TIP3    H127958   2.193   0.774   1.395  0.9227 -1.1681 -1.1079
 2181TIP3    H227959   2.301   0.679   1.441  1.1435  0.1173  1.1936
 2182TIP3   OH227960   1.173   0.531   1.558 -0.5101 -0.0130 -0.1393
 2182TIP3    H127961   1.232   0.565   1.626  0.9103 -1.3310 -0.6634
 2182TIP3    H227962   1.195   0.438   1.551 -2.3265 -0.4367 -0.7183
 2183TIP3   OH227963   5.781   3.642   3.914  0.1434 -0.6056  0.2208
 2183TIP3    H127964   5.729   3.643   3.993 -0.3980 -1.1427 -0.1276
 2183TIP3    H227965   5.735   3.584   3.854  1.5407 -1.7247  0.1758
 2184TIP3   OH227966   1.687   3.359   2.106  0.0109  0.1410  0.0491
 2184TIP3    H127967   1.638   3.423   2.056 -1.6856 -1.5650 -0.5991
 2184TIP3    H227968   1.638   3.349   2.187 -0.5571 -1.2880 -0.4353
 2185TIP3   OH227969   6.550   6.431  15.260  0.2877 -0.3449 -0.5023
 2185TIP3    H127970   6.556   6.365  15.329  1.5764  0.5794  0.3135
 2185TIP3    H227971   6.460   6.463  15.267  0.2395 -0.6361  0.4174
 2186TIP3   OH227972   3.616   4.089   2.861  0.1534  0.1295 -0.0568
 2186TIP3    H127973   3.604   3.995   2.850  1.2168 -0.2845  1.9323
 2186TIP3    H227974   3.709   4.104   2.845  0.4268  0.4772  1.6878
 2187TIP3   OH227975   1.426   2.719   1.861  0.0696  0.4723  0.0532
 2187TIP3    H127976   1.423   2.793   1.922 -0.2001  0.6403 -0.1615
 2187TIP3    H227977   1.431   2.759   1.775  2.2657  0.2459  0.0104
 2188TIP3   OH227978   5.521   1.888   3.983  0.0245  0.1406  0.6207
 2188TIP3    H127979   5.515   1.929   4.069  1.9184  1.1298  0.3503
 2188TIP3    H227980   5.612   1.902   3.957 -1.0633  2.1581 -2.6635
 2189TIP3   OH227981   1.766   3.297  12.557 -0.1426 -0.2644 -0.0180
 2189TIP3    H127982   1.813   3.342  12.487  1.4034  1.2597  1.9024
 2189TIP3    H227983   1.818   3.313  12.636 -1.9423 -1.6906  1.5601
 2190TIP3   OH227984   4.852   2.186  13.891  0.3853 -0.3081 -0.4481
 2190TIP3    H127985   4.930   2.134  13.872  1.3065  1.1162 -0.6740
 2190TIP3    H227986   4.791   2.164  13.821  1.0473 -0.5005 -0.9677
 2191TIP3   OH227987   5.437   3.977   5.146  0.1865 -0.0147  0.2168
 2191TIP3    H127988   5.425   3.951   5.055  0.7402  0.7340 -0.0779
 2191TIP3    H227989   5.494   3.910   5.183  1.0522  0.3973 -0.3539
 2192TIP3   OH227990   0.852   1.899   3.946  0.2914 -0.2286  0.2902
 2192TIP3    H127991   0.929   1.930   3.898  0.7748 -0.3277  0.9798
 2192TIP3    H227992   0.800   1.978   3.961  0.0898 -0.2089 -0.4522
 2193TIP3   OH227993   2.387   6.393  11.618  0.0448  0.2541 -0.5958
 2193TIP3    H127994   2.427   6.464  11.569 -1.7567  0.4517 -1.8770
 2193TIP3    H227995   2.446   6.379  11.692  1.9201  1.1514 -1.8339
 2194TIP3   OH227996   2.676   4.760  15.358 -0.0751  0.2783 -0.2402
 2194TIP3    H127997   2.644   4.733  15.272  1.1763  0.2245 -0.7143
 2194TIP3    H227998   2.655   4.853  15.364 -0.7840  0.1272 -0.3025
 2195TIP3   OH227999   3.848   4.574  11.542 -0.7385 -0.4484  0.4919
 2195TIP3    H128000   3.757   4.601  11.556 -0.3823  1.4979 -0.6694
 2195TIP3    H228001   3.873   4.615  11.459  1.2512 -0.8602  0.8430
 2196TIP3   OH228002   5.670   6.266   4.183  0.0170 -0.0085 -0.1809
 2196TIP3    H128003   5.600   6.250   4.119  0.5694  0.8698 -1.0348
 2196TIP3    H228004   5.750   6.269   4.131  0.4733  0.8285  0.5438
 2197TIP3   OH228005   5.901   3.194   2.979 -0.2856  1.0370 -0.0022
 2197TIP3    H128006   5.891   3.137   2.903 -0.2815  0.0399  0.7198
 2197TIP3    H228007   5.816   3.189   3.024  0.2672  0.2204  0.9877
 2198TIP3   OH228008   3.319   3.895   4.880 -0.4583  0.4894 -0.1846
 2198TIP3    H128009   3.319   3.806   4.844 -0.3591 -0.5761  2.2947
 2198TIP3    H228010   3.227   3.920   4.883 -0.5690  0.0504  0.0819
 2199TIP3   OH228011   4.598   0.620   3.919 -0.6174  0.2670  0.0767
 2199TIP3    H128012   4.593   0.535   3.963  0.0385 -0.3715 -1.0489
 2199TIP3    H228013   4.521   0.621   3.863  0.3540 -0.4187 -1.3186
 2200TIP3   OH228014   2.661   5.488   5.066  0.6085  0.7419 -0.6443
 2200TIP3    H128015   2.715   5.473   4.989  1.4540  2.0453 -0.3280
 2200TIP3    H228016   2.637   5.580   5.062  0.0091  0.6446  0.2502
 2201TIP3   OH228017   2.358   1.463  13.206 -0.2479  0.1211  0.0544
 2201TIP3    H128018   2.307   1.382  13.209 -0.8925  0.5452  1.4167
 2201TIP3    H228019   2.375   1.485  13.298  2.5062 -0.0386 -0.3242
 2202TIP3   OH228020   3.244   3.097  13.404  0.2438 -0.7651 -0.2935
 2202TIP3    H128021   3.177   3.031  13.386  1.1922 -1.9925  0.5076
 2202TIP3    H228022   3.218   3.173  13.351 -4.3706  0.5859  3.2341
 2203TIP3   OH228023   6.612   5.779   5.370 -0.0272 -0.1112 -0.4151
 2203TIP3    H128024   6.695   5.742   5.401 -0.0908  0.6698  0.7697
 2203TIP3    H228025   6.578   5.828   5.446 -2.7271 -2.3071 -0.0613
 2204TIP3   OH228026   0.938   4.274  12.657 -0.8486 -0.0975  0.1898
 2204TIP3    H128027   0.902   4.186  12.653  0.0240 -0.4657  0.2208
 2204TIP3    H228028   0.939   4.296  12.750  1.1598 -1.0318  0.4527
 2205TIP3   OH228029   4.247   4.459   2.744  0.0888  0.0359 -0.2161
 2205TIP3    H128030   4.242   4.367   2.719  0.1078  0.0215 -0.1685
 2205TIP3    H228031   4.338   4.472   2.772 -0.2309 -0.2735  1.0585
 2206TIP3   OH228032   5.309   5.515  14.974  0.1543  0.2310 -0.1485
 2206TIP3    H128033   5.334   5.565  14.897 -1.0865  0.5123 -0.3936
 2206TIP3    H228034   5.377   5.534  15.038  1.4678 -0.3822 -1.3080
 2207TIP3   OH228035   6.028   6.695  11.525 -0.4223  0.0013 -1.0845
 2207TIP3    H128036   6.085   6.618  11.519  0.3512  0.6515 -3.8084
 2207TIP3    H228037   5.939   6.660  11.516 -0.3182 -0.7806  0.5950
 2208TIP3   OH228038   5.055   2.627   1.028  0.1110 -0.2957 -0.9345
 2208TIP3    H128039   5.027   2.587   1.111  2.3441  0.6739  0.3963
 2208TIP3    H228040   4.976   2.668   0.993 -1.3070 -2.2588 -0.2632
 2209TIP3   OH228041   1.063   6.528   3.043  0.1545 -0.2077 -0.3672
 2209TIP3    H128042   1.040   6.441   3.009  0.3631 -1.0594  1.5666
 2209TIP3    H228043   1.149   6.547   3.004 -0.9359  0.2727 -2.7341
 2210TIP3   OH228044   3.382   3.375   4.352 -0.6852 -0.3270 -0.0626
 2210TIP3    H128045   3.474   3.399   4.359 -0.2847 -1.6657 -0.3840
 2210TIP3    H228046   3.335   3.458   4.349  0.1162  0.5060  4.2318
 2211TIP3   OH228047   6.562   3.512   0.351 -0.0607  0.2175 -0.3818
 2211TIP3    H128048   6.628   3.443   0.361  0.3021  0.3775 -1.5307
 2211TIP3    H228049   6.507   3.482   0.279 -2.0739 -0.5266  1.3672
 2212TIP3   OH228050   3.534   5.648   6.506  0.0402 -0.4508 -0.0977
 2212TIP3    H128051   3.459   5.705   6.527 -1.4175 -1.7036 -1.5803
 2212TIP3    H228052   3.494   5.565   6.480  2.0378 -1.6258  0.3711
 2213TIP3   OH228053   4.464   1.558  15.362  0.2319  0.2396 -0.0679
 2213TIP3    H128054   4.462   1.648  15.330  2.1195  0.3019 -0.1439
 2213TIP3    H228055   4.394   1.554  15.428  0.7767  2.0750  0.6898
 2214TIP3   OH228056   3.502   3.459  15.216  0.3426  0.3999  0.5223
 2214TIP3    H128057   3.570   3.527  15.216  0.5441  0.3483 -2.4038
 2214TIP3    H228058   3.546   3.381  15.250  1.3139  0.7552  0.1141
 2215TIP3   OH228059   1.103   1.322   5.026  0.2558  0.2633  0.3026
 2215TIP3    H128060   1.056   1.380   4.966  0.7638  0.6545  0.2785
 2215TIP3    H228061   1.147   1.259   4.968  0.4006  0.3812  0.2831
 2216TIP3   OH228062   5.141   2.642  12.257  0.1251  0.3991 -0.5880
 2216TIP3    H128063   5.054   2.639  12.296 -0.2191  0.8565 -1.2908
 2216TIP3    H228064   5.176   2.727  12.283  1.2663 -0.6549  1.5220
 2217TIP3   OH228065   5.826   1.346   0.136  0.0145 -0.5735 -0.1058
 2217TIP3    H128066   5.905   1.399   0.146  0.9095 -1.3759 -2.3684
 2217TIP3    H228067   5.754   1.409   0.138  0.8950  0.4694 -0.5885
 2218TIP3   OH228068   2.016   1.430   1.586 -0.1253 -0.6244 -0.0699
 2218TIP3    H128069   2.098   1.403   1.545  0.4559 -0.0199  0.6671
 2218TIP3    H228070   2.019   1.526   1.583 -0.8286 -0.5995 -0.0792
 2219TIP3   OH228071   0.973   2.913  15.366 -0.2901  0.1131  0.4332
 2219TIP3    H128072   0.967   2.999  15.408  1.8873  0.1719  0.7277
 2219TIP3    H228073   0.996   2.931  15.275 -1.0933 -0.1402  0.1691
 2220TIP3   OH228074   5.645   0.601   3.718 -0.4371  0.5092 -0.3696
 2220TIP3    H128075   5.687   0.686   3.723 -0.1051  0.2985  3.1567
 2220TIP3    H228076   5.690   0.555   3.647 -0.6289  3.1783 -2.3450
 2221TIP3   OH228077   6.360   6.607  15.688  0.2894 -0.1612 -0.5384
 2221TIP3    H128078   6.317   6.621  15.604 -0.1318 -2.3553 -0.7301
 2221TIP3    H228079   6.453   6.614  15.669  0.1742  0.0360 -1.0336
 2222TIP3   OH228080   1.856   0.399   0.091  0.0952 -0.8107 -0.1404
 2222TIP3    H128081   1.840   0.362   0.004  0.1227  0.1846 -0.5860
 2222TIP3    H228082   1.951   0.400   0.100  0.0786 -2.8337  0.7815
 2223TIP3   OH228083   6.469   3.295  13.362 -0.6505  0.4829 -0.2207
 2223TIP3    H128084   6.441   3.204  13.366 -0.0772  0.2812 -0.7250
 2223TIP3    H228085   6.505   3.305  13.274  0.6561  0.7919  0.3292
 2224TIP3   OH228086   2.011   5.807  12.236  0.1619  0.1805  0.0311
 2224TIP3    H128087   2.013   5.728  12.291 -1.4794  1.1257  1.5742
 2224TIP3    H228088   2.084   5.860  12.269  1.7079 -0.9252 -1.4774
 2225TIP3   OH228089   4.821   1.227   0.967  0.2501  0.1852  0.0173
 2225TIP3    H128090   4.764   1.159   1.004  1.1191  0.1934  1.4339
 2225TIP3    H228091   4.766   1.305   0.964  0.0065  0.0516  0.8109
 2226TIP3   OH228092   5.740   4.793  12.553  0.1132 -0.2748 -0.1603
 2226TIP3    H128093   5.721   4.701  12.571 -0.8111  0.2049  1.5254
 2226TIP3    H228094   5.725   4.803  12.459 -1.1574 -1.5224 -0.1202
 2227TIP3   OH228095   3.464   0.947  12.268 -0.4817  0.4550  0.0208
 2227TIP3    H128096   3.516   1.026  12.250  0.5374  0.1101  1.2963
 2227TIP3    H228097   3.386   0.980  12.313  0.6856  0.6442  1.9938
 2228TIP3   OH228098   2.092   3.853   6.225 -0.1468 -0.3587  0.0600
 2228TIP3    H128099   2.114   3.862   6.132 -0.3782 -3.1301 -0.3504
 2228TIP3    H228100   1.997   3.845   6.227 -0.1104 -0.7762  0.4591
 2229TIP3   OH228101   2.707   1.007  13.659 -0.2347 -0.2928  0.5767
 2229TIP3    H128102   2.617   0.985  13.636 -0.2605 -0.2666  0.6528
 2229TIP3    H228103   2.754   1.007  13.575 -0.4837  0.5231  0.4281
 2230TIP3   OH228104   6.167   3.078   1.513  0.0471 -0.0343  0.0875
 2230TIP3    H128105   6.071   3.079   1.513  0.0475  0.2432  0.2427
 2230TIP3    H228106   6.190   2.990   1.482 -0.2458  0.3059 -1.1491
 2231TIP3   OH228107   2.722   3.411  10.894 -0.0981  0.1249  0.1266
 2231TIP3    H128108   2.701   3.387  10.804 -0.8348  2.0981 -0.2702
 2231TIP3    H228109   2.804   3.459  10.888  0.4079 -0.6464  0.6688
 2232TIP3   OH228110   5.835   0.935   2.447 -0.3003  0.3040 -0.3413
 2232TIP3    H128111   5.834   0.861   2.507  0.3261  1.0220  0.5881
 2232TIP3    H228112   5.875   0.902   2.367  1.8236  0.1071  0.7367
 2233TIP3   OH228113   0.425   3.269  13.908  0.5056  0.3293 -0.0204
 2233TIP3    H128114   0.474   3.217  13.972 -0.2089  2.4878  2.4669
 2233TIP3    H228115   0.491   3.325  13.868  1.0198 -1.2930 -1.5787
 2234TIP3   OH228116   3.329   4.346   1.184 -0.0664 -0.0310 -0.5042
 2234TIP3    H128117   3.420   4.372   1.196 -0.0352  0.8641 -2.3650
 2234TIP3    H228118   3.332   4.275   1.120 -0.6988  0.2822 -0.8951
 2235TIP3   OH228119   5.904   5.122   4.259 -0.1829  0.2047  0.1979
 2235TIP3    H128120   5.813   5.136   4.286  0.1126  0.3903  1.1171
 2235TIP3    H228121   5.954   5.188   4.308  0.3908  0.4542 -0.6969
 2236TIP3   OH228122   2.385   3.711  14.017  0.0286 -0.4769 -0.1179
 2236TIP3    H128123   2.480   3.718  14.008  0.0891 -0.1109  0.6894
 2236TIP3    H228124   2.360   3.645  13.953  1.1019 -2.2398  1.1835
 2237TIP3   OH228125   3.687   6.637   5.388  0.2990 -0.3866  0.1381
 2237TIP3    H128126   3.674   6.610   5.296  1.0825  0.4179 -0.2206
 2237TIP3    H228127   3.763   6.696   5.385  0.5178 -0.5871  1.3527
 2238TIP3   OH228128   5.043   1.567   1.319  0.4944  0.1725  0.4483
 2238TIP3    H128129   5.137   1.562   1.308  0.2877 -1.7785 -0.8751
 2238TIP3    H228130   5.015   1.636   1.259  0.8144 -1.3184 -1.5264
 2239TIP3   OH228131   5.463   2.993  16.893  0.1303  0.1424  0.6772
 2239TIP3    H128132   5.373   2.960  16.905  0.1608  0.3344  1.5086
 2239TIP3    H228133   5.452   3.073  16.841  0.0200 -0.9083 -0.9987
 2240TIP3   OH228134   4.581   4.531  12.179  0.0611 -0.2829  0.0129
 2240TIP3    H128135   4.523   4.500  12.248 -2.4003 -0.1950 -1.8440
 2240TIP3    H228136   4.562   4.625  12.171 -0.2668 -0.4270 -1.2164
 2241TIP3   OH228137   6.080   3.063  17.073  0.1624 -0.5856 -0.0951
 2241TIP3    H128138   6.119   2.975  17.071  0.9423 -0.2801  0.7099
 2241TIP3    H228139   6.136   3.116  17.017 -0.1945 -0.5494 -0.4237
 2242TIP3   OH228140   4.042   4.040  14.063 -0.0129  0.0062  0.2146
 2242TIP3    H128141   4.034   3.951  14.029 -1.1168 -0.1187  0.7598
 2242TIP3    H228142   4.078   4.030  14.151 -1.6062 -0.0577  0.9004
 2243TIP3   OH228143   1.032   5.939  14.470 -0.2368 -0.1355  0.3801
 2243TIP3    H128144   0.960   5.930  14.407  0.7043 -1.1553 -0.5987
 2243TIP3    H228145   1.028   6.030  14.498 -0.0704  0.6603 -1.9416
 2244TIP3   OH228146   4.161   2.228  16.220 -0.3778  0.1647 -0.2175
 2244TIP3    H128147   4.191   2.154  16.166  1.3625  0.5357  0.1830
 2244TIP3    H228148   4.172   2.304  16.163 -0.6897  0.2932 -0.1041
 2245TIP3   OH228149   3.444   3.825  17.190  0.1192  0.1922 -0.4026
 2245TIP3    H128150   3.397   3.876  17.256  0.4597 -0.4066  0.3059
 2245TIP3    H228151   3.520   3.879  17.169 -1.3009  1.6149 -2.2399
 2246TIP3   OH228152   0.746   3.487  12.735  0.4042 -0.3996 -0.3156
 2246TIP3    H128153   0.774   3.428  12.804  0.3094 -0.9958 -0.7784
 2246TIP3    H228154   0.670   3.444  12.695  0.1479  0.1770 -0.4604
 2247TIP3   OH228155   0.550   4.548  14.071 -0.0540  0.2571 -0.0229
 2247TIP3    H128156   0.621   4.523  14.130 -0.2712  1.6182  0.8510
 2247TIP3    H228157   0.470   4.524  14.118 -0.2085 -1.0039 -0.8776
 2248TIP3   OH228158   3.655   3.623  14.653 -0.2714 -0.2466  0.0480
 2248TIP3    H128159   3.701   3.643  14.572 -1.0133 -0.3501 -0.4087
 2248TIP3    H228160   3.713   3.564  14.700  0.0380 -0.4218 -0.5455
 2249TIP3   OH228161   0.207   3.166  12.047 -0.6123 -0.3561  0.3666
 2249TIP3    H128162   0.133   3.182  11.988  0.1829 -2.2697 -1.3058
 2249TIP3    H228163   0.230   3.074  12.032  1.1339 -0.2503  1.9675
 2250TIP3   OH228164   5.455   5.475   1.838  0.0641 -0.1417 -0.5806
 2250TIP3    H128165   5.502   5.558   1.837  1.1710 -0.7521 -0.6771
 2250TIP3    H228166   5.518   5.412   1.875 -0.1901 -1.2516 -1.9742
 2251TIP3   OH228167   0.044   4.896   6.492 -0.3799 -0.2417  0.4120
 2251TIP3    H128168   0.046   4.825   6.556  2.4368 -1.5310 -0.9303
 2251TIP3    H228169   0.001   4.858   6.415  1.0587 -0.5069 -0.2833
 2252TIP3   OH228170   4.621   1.714   1.649 -0.0930  0.0693 -0.0205
 2252TIP3    H128171   4.691   1.653   1.625 -0.0841  0.4962 -1.1488
 2252TIP3    H228172   4.648   1.798   1.611 -0.6280  0.5281  0.5847
 2253TIP3   OH228173   0.936   1.534   3.981  0.1811 -0.7201  0.3553
 2253TIP3    H128174   1.010   1.493   4.027 -0.0815 -0.7721  0.7377
 2253TIP3    H228175   0.894   1.462   3.934  0.0937 -0.7815  0.5233
 2254TIP3   OH228176   3.028   6.566   0.230  0.0567 -0.3428 -0.1655
 2254TIP3    H128177   3.043   6.633   0.297  1.9442  0.6265 -1.4831
 2254TIP3    H228178   3.107   6.566   0.177 -2.2230  0.8125 -4.0246
 2255TIP3   OH228179   1.682   2.402   4.715  0.2300 -0.1436 -0.2697
 2255TIP3    H128180   1.714   2.317   4.747 -1.3539 -0.1663  1.4394
 2255TIP3    H228181   1.588   2.388   4.703  0.0690  1.1834 -0.6578
 2256TIP3   OH228182   3.183   6.595  15.070  0.3651  0.3688  0.2412
 2256TIP3    H128183   3.256   6.533  15.080 -0.3962 -0.6914 -0.5105
 2256TIP3    H228184   3.187   6.621  14.978 -0.0183  0.5439  0.2743
 2257TIP3   OH228185   4.425   0.188   4.895 -0.5049 -0.3835  0.3434
 2257TIP3    H128186   4.514   0.154   4.907 -0.5083 -0.9737 -1.0659
 2257TIP3    H228187   4.415   0.254   4.964  0.6946 -0.9361  1.0846
 2258TIP3   OH228188   0.189   1.839  15.689 -0.4089 -0.6621 -0.3638
 2258TIP3    H128189   0.247   1.831  15.613 -1.3866 -0.5251 -1.1375
 2258TIP3    H228190   0.128   1.908  15.666 -0.2609 -0.0830  0.8688
 2259TIP3   OH228191   4.429   3.455  14.061 -0.5125 -0.9844  0.0481
 2259TIP3    H128192   4.346   3.412  14.081 -1.1118  0.5432  0.9868
 2259TIP3    H228193   4.479   3.451  14.142 -1.8751  2.8219  1.3102
 2260TIP3   OH228194   6.208   2.738   0.073 -0.0252 -0.0891 -0.1436
 2260TIP3    H128195   6.273   2.701   0.013  1.1507  1.1281  0.3179
 2260TIP3    H228196   6.124   2.707   0.039  0.5728  0.6305 -2.4953
 2261TIP3   OH228197   1.043   6.109   0.565 -0.0551  0.1060 -0.0042
 2261TIP3    H128198   1.134   6.127   0.589 -0.3380 -0.8573  2.0325
 2261TIP3    H228199   1.015   6.188   0.519  1.3654  1.0480  0.6590
 2262TIP3   OH228200   1.725   2.891   2.358  0.2291  0.5749 -0.4170
 2262TIP3    H128201   1.778   2.970   2.353  2.0634 -0.4769  1.0335
 2262TIP3    H228202   1.731   2.851   2.271 -0.5360  1.8580 -1.0914
 2263TIP3   OH228203   4.729   2.111   4.274  0.2840 -0.9462  0.3336
 2263TIP3    H128204   4.661   2.137   4.212  0.5955 -0.6042  0.1350
 2263TIP3    H228205   4.762   2.193   4.309 -0.8390 -1.1512  1.9976
 2264TIP3   OH228206   1.844   3.373   3.499  0.4596  0.1920  0.0242
 2264TIP3    H128207   1.770   3.313   3.506  0.3932 -0.0026 -1.7694
 2264TIP3    H228208   1.864   3.398   3.589 -1.8556  0.3255  0.5670
 2265TIP3   OH228209   0.402   6.058  13.644 -0.3004 -0.2805  0.1402
 2265TIP3    H128210   0.407   6.072  13.550 -0.7813 -0.7461  0.0378
 2265TIP3    H228211   0.364   6.138  13.679 -0.6389 -0.3234 -0.1283
 2266TIP3   OH228212   0.461   4.709  11.308  0.8034  0.2611 -0.4780
 2266TIP3    H128213   0.425   4.754  11.232 -0.4408 -0.3472 -0.2839
 2266TIP3    H228214   0.429   4.759  11.383 -0.0299 -0.5201 -0.2892
 2267TIP3   OH228215   1.344   6.657   1.023 -0.0454  0.3237  0.3461
 2267TIP3    H128216   1.384   6.737   0.990  0.6689 -0.0709  0.2386
 2267TIP3    H228217   1.393   6.636   1.102 -0.8133  0.4765  0.8754
 2268TIP3   OH228218   4.571   3.872   2.857  0.1230 -0.2295 -0.7995
 2268TIP3    H128219   4.651   3.912   2.893  1.0878 -2.0959 -0.7572
 2268TIP3    H228220   4.591   3.779   2.851 -2.0244 -0.7360 -0.9398
 2269TIP3   OH228221   5.676   2.619   2.541 -0.3470  0.0799 -0.0580
 2269TIP3    H128222   5.750   2.597   2.598  1.0817  1.1239 -1.4330
 2269TIP3    H228223   5.656   2.537   2.496  1.0395  0.1219 -0.8115
 2270TIP3   OH228224   6.101   6.015   0.995  0.6421  0.0972  0.2327
 2270TIP3    H128225   6.173   5.961   1.028 -1.4375 -1.9781  1.6818
 2270TIP3    H228226   6.024   5.959   1.000 -1.6488  3.0618  1.4682
 2271TIP3   OH228227   1.959   2.353  12.504  0.1039 -0.2990  0.3228
 2271TIP3    H128228   2.019   2.373  12.432 -0.2365  0.2393  0.1740
 2271TIP3    H228229   1.974   2.261  12.524 -0.7286 -0.8391 -1.3479
 2272TIP3   OH228230   1.478   6.661  12.242 -0.2132  0.2973  0.5971
 2272TIP3    H128231   1.386   6.637  12.229 -0.2897 -0.1940  1.9591
 2272TIP3    H228232   1.521   6.580  12.267  0.5539  0.5825  0.2463
 2273TIP3   OH228233   6.110   1.236   1.268  0.4833  0.4281  0.4531
 2273TIP3    H128234   6.063   1.163   1.227 -0.3835  0.8143  0.7249
 2273TIP3    H228235   6.075   1.314   1.224  0.5042  0.7553  1.0059
 2274TIP3   OH228236   2.137   0.594  12.518 -0.3489  0.4714  0.0155
 2274TIP3    H128237   2.228   0.599  12.545 -0.0647 -3.0886  0.2288
 2274TIP3    H228238   2.097   0.674  12.550  2.7802  2.4638 -0.6396
 2275TIP3   OH228239   0.836   6.693   5.921  0.1785 -0.1412  0.1974
 2275TIP3    H128240   0.894   6.659   5.990 -0.5260  1.1056  1.4624
 2275TIP3    H228241   0.877   6.776   5.896  0.1680 -0.3637 -0.5622
 2276TIP3   OH228242   1.006   2.317  12.185  0.4724 -0.4010 -0.9728
 2276TIP3    H128243   0.933   2.292  12.241  0.5262 -1.3920 -1.3215
 2276TIP3    H228244   1.073   2.349  12.245  0.1554 -0.5030 -0.5615
 2277TIP3   OH228245   4.424   1.368  10.967 -0.0276 -0.3020  0.5974
 2277TIP3    H128246   4.456   1.290  10.922 -0.7638 -0.0698 -0.3751
 2277TIP3    H228247   4.503   1.419  10.986  0.4940 -1.4421  1.5870
 2278TIP3   OH228248   2.140   0.844  12.049 -0.0534  0.1972 -0.4277
 2278TIP3    H128249   2.138   0.937  12.025 -0.4367 -0.1225 -1.7364
 2278TIP3    H228250   2.229   0.816  12.025  1.1932  0.8981  2.8860
 2279TIP3   OH228251   2.977   3.131   2.628  0.0970  0.2968  0.4219
 2279TIP3    H128252   3.063   3.106   2.594  0.1287  0.1909  0.5814
 2279TIP3    H228253   2.917   3.111   2.556  0.0558 -0.6949  0.7216
 2280TIP3   OH228254   3.065   0.846   5.414 -0.7546 -0.5835 -0.0794
 2280TIP3    H128255   3.047   0.940   5.415 -0.0308 -0.4351 -0.3158
 2280TIP3    H228256   2.981   0.805   5.435 -1.2324  0.0949 -0.6193
 2281TIP3   OH228257   2.535   6.126   4.998  0.9967 -0.2959  0.0133
 2281TIP3    H128258   2.522   6.047   4.946  0.7234  0.1898 -0.6725
 2281TIP3    H228259   2.448   6.146   5.032  1.1570 -0.5555  0.5823
 2282TIP3   OH228260   3.734   0.041   4.970  0.6350 -0.7934  0.2071
 2282TIP3    H128261   3.691   0.064   4.887 -0.3182 -3.1250 -0.0289
 2282TIP3    H228262   3.682   0.086   5.037  1.6845  1.4890 -0.4070
 2283TIP3   OH228263   6.723   1.616  15.820 -0.9037  0.5253 -0.0761
 2283TIP3    H128264   6.710   1.536  15.769  0.7741 -0.4077  0.8791
 2283TIP3    H228265   6.749   1.682  15.755 -0.8248 -0.1010 -0.6886
 2284TIP3   OH228266   0.351   1.713   1.485  0.7449 -0.4328  0.4577
 2284TIP3    H128267   0.260   1.744   1.490  1.1596  0.8863  0.1397
 2284TIP3    H228268   0.379   1.704   1.576  0.0639 -1.5765  0.5660
 2285TIP3   OH228269   2.789   3.139  13.891 -0.1441 -0.0873  0.4705
 2285TIP3    H128270   2.810   3.201  13.961 -0.6653  0.6581 -0.0075
 2285TIP3    H228271   2.701   3.108  13.912 -0.2958  0.1274  0.1556
 2286TIP3   OH228272   5.384   4.099   0.742  0.5297 -0.2926  0.0760
 2286TIP3    H128273   5.411   4.186   0.712  0.2823 -0.2803 -0.1089
 2286TIP3    H228274   5.467   4.053   0.759  0.6728 -0.2616 -0.5173
 2287TIP3   OH228275   0.860   3.681  15.421 -0.0453  0.2587  0.9647
 2287TIP3    H128276   0.942   3.677  15.372  0.0503 -1.0700  1.1978
 2287TIP3    H228277   0.811   3.753  15.381  1.7281  1.9364  1.6380
 2288TIP3   OH228278   2.705   1.777  13.834 -0.3081 -0.3226  0.5414
 2288TIP3    H128279   2.721   1.783  13.928 -1.3315  2.6175  0.6404
 2288TIP3    H228280   2.786   1.807  13.793 -0.8668  1.4557  0.6454
 2289TIP3   OH228281   3.157   3.822  12.212  0.1647 -0.2324  0.5453
 2289TIP3    H128282   3.124   3.736  12.237 -0.7760  0.7077  2.7413
 2289TIP3    H228283   3.228   3.840  12.273  2.1929 -0.5145 -1.5870
 2290TIP3   OH228284   5.456   2.640   4.105  0.0546 -0.6534  0.4893
 2290TIP3    H128285   5.542   2.608   4.133 -0.2199 -0.7287  1.2680
 2290TIP3    H228286   5.400   2.562   4.105 -0.4779 -0.3078  1.8405
 2291TIP3   OH228287   0.154   6.486  13.913  0.7311 -0.6201  0.2397
 2291TIP3    H128288   0.095   6.428  13.960  0.0848 -0.2054 -0.0443
 2291TIP3    H228289   0.127   6.574  13.940  1.1127 -0.4198 -0.0203
 2292TIP3   OH228290   0.422   4.705   4.285 -0.0307 -0.0705  0.3655
 2292TIP3    H128291   0.427   4.792   4.323 -1.5133 -0.3116  1.1920
 2292TIP3    H228292   0.439   4.646   4.358  1.0273 -0.4897 -0.1983
 2293TIP3   OH228293   2.361   1.645  12.625  0.5280  0.1614 -0.3033
 2293TIP3    H128294   2.333   1.690  12.544  0.8345 -2.2409 -1.8337
 2293TIP3    H228295   2.279   1.616  12.665  0.1766  3.3001  1.6077
 2294TIP3   OH228296   2.663   4.511  12.782  0.2721 -0.3510  0.1743
 2294TIP3    H128297   2.655   4.604  12.804  0.7041 -0.4601  0.8395
 2294TIP3    H228298   2.576   4.475  12.800  0.7088 -0.5163  2.2229
 2295TIP3   OH228299   3.631   4.072  15.995  0.2789 -0.4685 -0.3265
 2295TIP3    H128300   3.711   4.053  15.946 -1.9234 -2.1046 -3.6944
 2295TIP3    H228301   3.639   4.164  16.020  2.1739  0.1142 -2.7259
 2296TIP3   OH228302   3.920   1.197   2.397  0.5183 -0.0181 -0.0423
 2296TIP3    H128303   3.859   1.148   2.453  1.0306 -1.6058 -0.8085
 2296TIP3    H228304   3.863   1.254   2.345 -0.2203 -0.6260  0.0693
 2297TIP3   OH228305   1.398   4.421   3.756  0.0293  0.6218 -0.5267
 2297TIP3    H128306   1.443   4.504   3.738  1.8042 -0.4585 -1.4363
 2297TIP3    H228307   1.469   4.357   3.760 -1.2966 -0.8421  0.2412
 2298TIP3   OH228308   3.083   3.975   2.031 -0.1735 -0.2612  0.2997
 2298TIP3    H128309   3.094   3.943   2.120 -0.5424  0.9130  0.7942
 2298TIP3    H228310   3.008   4.035   2.036  1.1936  1.6007 -0.2731
 2299TIP3   OH228311   5.365   0.353   0.163 -0.2892  0.9321 -0.1228
 2299TIP3    H128312   5.438   0.385   0.109  1.8981  1.0014  2.6718
 2299TIP3    H228313   5.357   0.261   0.138  0.7245  0.9302 -0.5245
 2300TIP3   OH228314   1.675   0.661   5.982 -0.6045 -0.1871 -0.4944
 2300TIP3    H128315   1.679   0.601   6.056  2.4021  1.7461  1.1313
 2300TIP3    H228316   1.595   0.712   5.996 -0.5535 -0.4744  0.9257
 2301TIP3   OH228317   2.948   6.130   4.228  0.5890 -0.2679  0.3903
 2301TIP3    H128318   2.934   6.106   4.136  1.1075 -2.2597  0.7708
 2301TIP3    H228319   2.957   6.225   4.227 -0.1455 -0.1709 -1.5139
 2302TIP3   OH228320   6.411   2.544   1.650 -0.2053  0.6507 -0.0704
 2302TIP3    H128321   6.339   2.518   1.707 -1.3225  4.0610  0.3242
 2302TIP3    H228322   6.395   2.497   1.568 -1.2676 -0.7589  0.9063
 2303TIP3   OH228323   2.577   5.575   3.617 -0.9129  0.0926 -0.4033
 2303TIP3    H128324   2.562   5.624   3.536  0.9764  1.1524 -0.1989
 2303TIP3    H228325   2.506   5.511   3.621 -0.9268 -0.1603 -3.0119
 2304TIP3   OH228326   4.652   4.177   6.217 -0.3668  0.7252 -0.2466
 2304TIP3    H128327   4.590   4.131   6.160  0.2354  0.8228 -1.0006
 2304TIP3    H228328   4.604   4.191   6.298 -0.8154 -0.6025 -0.2501
 2305TIP3   OH228329   2.201   6.044   4.098  0.3071 -0.2090 -0.2595
 2305TIP3    H128330   2.222   5.966   4.148 -1.6755 -0.3541  0.4596
 2305TIP3    H228331   2.256   6.040   4.020  2.1617 -0.9148  1.0283
 2306TIP3   OH228332   5.898   3.078   1.460  0.2901 -0.5427  0.0493
 2306TIP3    H128333   5.911   3.011   1.393  2.1062  0.0035 -0.2176
 2306TIP3    H228334   5.906   3.161   1.413 -0.2628 -0.1441  0.6409
 2307TIP3   OH228335   4.741   4.445  14.856  0.2220  0.3058 -0.2482
 2307TIP3    H128336   4.650   4.447  14.886  0.2061 -0.1203 -0.2675
 2307TIP3    H228337   4.744   4.511  14.786 -0.2672 -0.2443 -0.8000
 2308TIP3   OH228338   2.033   0.158  15.618 -0.0510  0.0435  0.3503
 2308TIP3    H128339   2.122   0.155  15.652  0.6390  0.8100 -1.2699
 2308TIP3    H228340   1.980   0.192  15.690  1.3229  1.5592  0.6904
 2309TIP3   OH228341   3.600   6.664   5.994  0.4020  0.0268 -0.4169
 2309TIP3    H128342   3.643   6.645   6.077  1.5391  1.4837 -0.6543
 2309TIP3    H228343   3.510   6.688   6.018  0.5559 -0.1377  0.3235
 2310TIP3   OH228344   1.031   0.600  16.041  0.3667  0.0298 -0.0084
 2310TIP3    H128345   1.093   0.535  16.075 -0.6520 -0.4525  1.0171
 2310TIP3    H228346   0.959   0.599  16.104 -0.3724  1.0701 -0.8006
 2311TIP3   OH228347   4.635   4.202  12.336 -0.3490 -0.6671 -0.5737
 2311TIP3    H128348   4.551   4.243  12.314 -0.6839 -1.2040 -0.3245
 2311TIP3    H228349   4.665   4.250  12.413 -0.2860 -0.2878 -0.8294
 2312TIP3   OH228350   2.867   1.851  15.766  0.0416 -0.3962  0.3946
 2312TIP3    H128351   2.909   1.834  15.850  0.6159  0.0816  0.2133
 2312TIP3    H228352   2.935   1.895  15.714 -1.0007  1.4082  0.4708
 2313TIP3   OH228353   0.971   3.968  16.705 -0.7001  0.2009 -0.4839
 2313TIP3    H128354   1.025   3.905  16.657 -0.9755  0.5500 -1.2675
 2313TIP3    H228355   1.001   4.053  16.674 -0.3095  0.4751  0.5949
 2314TIP3   OH228356   5.019   0.780  10.654  0.3934  0.0718  0.5457
 2314TIP3    H128357   4.966   0.856  10.677 -1.1736 -0.6268 -0.5964
 2314TIP3    H228358   5.077   0.811  10.585 -0.5632  0.1331 -0.2473
 2315TIP3   OH228359   4.646   4.260   3.437 -0.5737  0.0291  0.1340
 2315TIP3    H128360   4.612   4.177   3.470 -0.8434  0.4300  0.8823
 2315TIP3    H228361   4.613   4.265   3.347  0.0977 -1.0317 -0.1922
 2316TIP3   OH228362   4.374   6.663  15.936  0.5445 -0.5237 -0.4059
 2316TIP3    H128363   4.290   6.705  15.917  1.1202  0.6083 -0.5345
 2316TIP3    H228364   4.366   6.631  16.025  0.0956 -0.1058 -0.2937
 2317TIP3   OH228365   5.096   0.579  13.966  0.7899  0.0950  0.0309
 2317TIP3    H128366   5.187   0.605  13.949  0.9946  0.7248  1.9153
 2317TIP3    H228367   5.069   0.632  14.041 -1.0814 -0.2471 -0.3486
 2318TIP3   OH228368   2.235   6.593   6.371 -0.0068  0.3192  0.3282
 2318TIP3    H128369   2.232   6.681   6.407  1.1333  1.1610 -1.4924
 2318TIP3    H228370   2.280   6.541   6.438  0.3357  1.3747  0.9366
 2319TIP3   OH228371   0.963   0.303  14.200 -0.0247  0.4461 -0.4650
 2319TIP3    H128372   0.958   0.330  14.109 -0.9301 -2.0534 -1.2345
 2319TIP3    H228373   0.873   0.311  14.232  0.4463  2.2774  0.5939
 2320TIP3   OH228374   3.153   1.308  15.897 -0.9685 -0.5096 -0.2096
 2320TIP3    H128375   3.082   1.244  15.895 -0.8881 -0.7651  2.3543
 2320TIP3    H228376   3.231   1.258  15.874 -1.1193 -0.9812  0.2997
 2321TIP3   OH228377   6.656   0.106   2.656 -0.2414 -0.1644  0.0446
 2321TIP3    H128378   6.643   0.188   2.704  0.2169  0.7551 -1.3377
 2321TIP3    H228379   6.751   0.092   2.658 -0.1807  0.0713 -0.8682
 2322TIP3   OH228380   4.043   4.394  14.301  0.0335 -0.6832  0.0413
 2322TIP3    H128381   4.054   4.488  14.285  0.2388 -0.6614  0.3026
 2322TIP3    H228382   3.958   4.387  14.343  1.0754 -0.3094  2.4009
 2323TIP3   OH228383   0.566   1.117  15.710 -0.1267 -0.2350  0.3253
 2323TIP3    H128384   0.649   1.162  15.698 -0.2717  0.3224  1.3613
 2323TIP3    H228385   0.558   1.103  15.804 -1.1793 -0.3378  0.2390
 2324TIP3   OH228386   4.478   2.590   4.114  0.0049 -0.5748  0.5023
 2324TIP3    H128387   4.502   2.612   4.024 -1.3087 -3.3962 -0.6558
 2324TIP3    H228388   4.493   2.671   4.163  0.8780  1.0375 -2.1920
 2325TIP3   OH228389   1.557   0.595  15.416 -0.1354  0.3263  0.4132
 2325TIP3    H128390   1.647   0.562  15.422  0.3379  0.9337 -2.2019
 2325TIP3    H228391   1.504   0.525  15.455  1.4212  0.0301  2.1932
 2326TIP3   OH228392   0.779   4.971   5.911  0.0114 -0.4429 -0.1296
 2326TIP3    H128393   0.853   4.981   5.850  0.9730  0.5446  1.1608
 2326TIP3    H228394   0.819   4.949   5.994 -1.1661 -0.0553  0.5670
 2327TIP3   OH228395   0.634   5.716   3.790 -0.1488  0.3664 -0.0779
 2327TIP3    H128396   0.646   5.651   3.721 -1.5396  0.1740 -0.1790
 2327TIP3    H228397   0.542   5.743   3.781 -1.0067 -1.1034  2.8466
 2328TIP3   OH228398   0.619   0.419  15.928 -0.1331  0.6706  0.3353
 2328TIP3    H128399   0.694   0.457  15.883 -1.2718  0.5080 -1.8144
 2328TIP3    H228400   0.627   0.325  15.913  0.0997  0.4847  1.5303
 2329TIP3   OH228401   1.301   0.395   1.875 -0.2942  0.1212  0.1977
 2329TIP3    H128402   1.276   0.473   1.825  1.7738  0.1274 -0.9195
 2329TIP3    H228403   1.229   0.383   1.937 -2.2379  1.0222 -1.7481
 2330TIP3   OH228404   3.862   6.092  13.421 -0.2270  0.4420 -0.0006
 2330TIP3    H128405   3.884   6.030  13.352 -0.8754  2.0872 -1.8220
 2330TIP3    H228406   3.793   6.049  13.472  0.0735 -0.7187 -0.5589
 2331TIP3   OH228407   5.869   2.803  16.993 -0.2576  0.2432  0.6177
 2331TIP3    H128408   5.920   2.737  17.040  0.8991 -0.1810 -1.1376
 2331TIP3    H228409   5.913   2.812  16.908 -2.8720  0.1739 -0.8566
 2332TIP3   OH228410   3.741   1.796  11.323  0.2972 -0.3387 -0.6138
 2332TIP3    H128411   3.713   1.845  11.245  0.3092  0.8434  0.0995
 2332TIP3    H228412   3.793   1.859  11.373 -3.2209  0.4269  2.4970
 2333TIP3   OH228413   4.431   4.525   1.049  0.6863  0.5312  0.2132
 2333TIP3    H128414   4.342   4.545   1.020  0.2277  1.3299  2.0409
 2333TIP3    H228415   4.473   4.487   0.972 -2.1651 -2.9484  0.1246
 2334TIP3   OH228416   1.398   2.418   0.797 -0.0799  0.4422 -0.2038
 2334TIP3    H128417   1.380   2.351   0.732 -1.0962  0.7398 -0.2469
 2334TIP3    H228418   1.477   2.388   0.842  1.2090  0.6997 -2.1794
 2335TIP3   OH228419   5.295   0.603  16.030 -0.2191 -0.1569 -0.5152
 2335TIP3    H128420   5.228   0.636  15.970  0.2449  1.2208 -0.3142
 2335TIP3    H228421   5.245   0.566  16.104 -0.7629 -0.2151 -0.9039
 2336TIP3   OH228422   4.682   3.341  13.128 -0.1432 -0.2135 -0.3143
 2336TIP3    H128423   4.709   3.267  13.073  0.0207  1.2461 -2.3344
 2336TIP3    H228424   4.746   3.409  13.110 -1.1082  0.9167  0.3577
 2337TIP3   OH228425   6.754   1.669   3.190 -0.1807  0.2028  0.4247
 2337TIP3    H128426   6.659   1.658   3.194  0.0954 -2.4540  2.2563
 2337TIP3    H228427   6.789   1.604   3.252  2.9123 -0.0583 -1.3653
 2338TIP3   OH228428   1.980   6.752   0.885 -0.8604 -0.1631  0.0609
 2338TIP3    H128429   2.010   6.840   0.864  1.2071 -0.1656  2.5517
 2338TIP3    H228430   2.048   6.716   0.941 -2.7479 -2.5115  1.0264
 2339TIP3   OH228431   0.110   5.902   2.393  0.3523  0.6551 -0.2061
 2339TIP3    H128432   0.188   5.947   2.425 -0.6624  1.5307  1.1660
 2339TIP3    H228433   0.069   5.868   2.472  0.0572 -1.0317 -1.0382
 2340TIP3   OH228434   4.823   3.242   5.733 -0.2372  0.0297  0.1546
 2340TIP3    H128435   4.794   3.332   5.723 -0.1763  0.1785  1.1986
 2340TIP3    H228436   4.905   3.248   5.782 -0.6073 -0.6195  0.8770
 2341TIP3   OH228437   0.644   3.772   4.831  0.2510  0.1080  0.0011
 2341TIP3    H128438   0.659   3.730   4.746  1.3400  0.2530  0.1093
 2341TIP3    H228439   0.629   3.700   4.891  3.8200 -0.3497  0.5408
 2342TIP3   OH228440   2.588   5.255   0.898  0.0725 -0.0468 -0.1629
 2342TIP3    H128441   2.509   5.250   0.845  0.1208  0.5819 -0.3059
 2342TIP3    H228442   2.655   5.213   0.844 -0.2584 -1.0249  0.1673
 2343TIP3   OH228443   4.652   5.041   0.012  0.1000  0.0580  0.3045
 2343TIP3    H128444   4.558   5.058   0.014  0.0034 -0.4931  0.3604
 2343TIP3    H228445   4.664   4.964   0.067  0.8332  1.3316  2.0550
 2344TIP3   OH228446   1.327   4.032  17.308  0.7056 -0.2046 -0.0310
 2344TIP3    H128447   1.251   4.064  17.259  0.6407 -0.4755 -0.1115
 2344TIP3    H228448   1.300   4.033  17.399  0.7385  0.0616 -0.0234
 2345TIP3   OH228449   0.682   3.581  14.497 -0.2828 -0.3743  0.3315
 2345TIP3    H128450   0.765   3.627  14.485 -0.5143 -0.2454 -0.9226
 2345TIP3    H228451   0.615   3.644  14.471 -0.6644 -1.0245 -0.3514
 2346TIP3   OH228452   6.674   3.558   4.444 -0.3661 -0.1189 -0.8116
 2346TIP3    H128453   6.671   3.524   4.533 -1.5779 -0.0922 -0.8238
 2346TIP3    H228454   6.582   3.571   4.420 -0.0577  0.0110 -2.0102
 2347TIP3   OH228455   6.594   0.556   4.268 -0.1458  0.2904  0.1503
 2347TIP3    H128456   6.614   0.586   4.180  1.1899  1.0409  0.6805
 2347TIP3    H228457   6.676   0.518   4.300 -0.0204  1.7763  1.7366
 2348TIP3   OH228458   5.196   5.312   5.108  0.1362  0.1663 -0.1089
 2348TIP3    H128459   5.167   5.397   5.142 -0.0045 -0.3830  1.2080
 2348TIP3    H228460   5.118   5.257   5.114  0.7246 -0.5724  0.8563
 2349TIP3   OH228461   2.119   6.361  11.596  0.7161 -0.2860  0.3775
 2349TIP3    H128462   2.214   6.364  11.593  0.6783  1.7341 -0.4771
 2349TIP3    H228463   2.091   6.429  11.535 -1.2513  1.1197  2.6986
 2350TIP3   OH228464   1.451   3.124   4.674  0.0889 -0.5766  0.8109
 2350TIP3    H128465   1.378   3.183   4.656 -0.2487 -1.1834  0.1545
 2350TIP3    H228466   1.525   3.162   4.627  0.4943  0.6317  2.3431
 2351TIP3   OH228467   4.433   0.290  16.434  0.1426  0.2995 -0.4919
 2351TIP3    H128468   4.494   0.331  16.494  0.2720  1.7610 -1.5620
 2351TIP3    H228469   4.350   0.337  16.448 -0.6023 -1.2522  0.5199
 2352TIP3   OH228470   0.574   1.406  11.285  0.4874 -0.4447  0.2185
 2352TIP3    H128471   0.510   1.387  11.216 -0.3579  1.7200  0.3124
 2352TIP3    H228472   0.659   1.397  11.242  0.1826 -3.1009  0.0119
 2353TIP3   OH228473   6.403   2.809  16.156 -0.1606  0.2006 -0.1750
 2353TIP3    H128474   6.322   2.758  16.161 -0.9362  1.1467 -2.1623
 2353TIP3    H228475   6.375   2.899  16.143  1.2310  0.8193  0.7543
 2354TIP3   OH228476   6.462   5.054  16.757  0.3575  0.2116  0.0463
 2354TIP3    H128477   6.405   5.131  16.766 -1.0003 -0.6318 -0.9732
 2354TIP3    H228478   6.482   5.050  16.663  2.1207  0.4619  0.3724
 2355TIP3   OH228479   1.454   3.923   1.320  0.7751  0.1406  0.0452
 2355TIP3    H128480   1.522   3.914   1.387 -0.4660  0.8700  1.4760
 2355TIP3    H228481   1.501   3.950   1.241  2.2529 -0.4595  0.6785
 2356TIP3   OH228482   0.354   2.998  17.005  0.1273 -0.5236  0.1021
 2356TIP3    H128483   0.428   3.002  16.944  0.8236 -0.1533  0.9493
 2356TIP3    H228484   0.316   3.085  17.002  0.4000 -0.3881  0.4728
 2357TIP3   OH228485   4.530   6.073  14.564  0.9505 -0.3133 -0.2835
 2357TIP3    H128486   4.439   6.092  14.585  0.2019 -0.8810 -2.6998
 2357TIP3    H228487   4.571   6.159  14.554  0.7620 -0.0542  1.0111
 2358TIP3   OH228488   1.816   4.944   6.756  0.6764  0.1491 -0.0731
 2358TIP3    H128489   1.732   4.987   6.768  0.7086  0.0881  0.4025
 2358TIP3    H228490   1.856   4.988   6.681  0.9951  1.3982  0.8077
 2359TIP3   OH228491   4.652   0.357  16.035 -0.5242 -0.1217 -0.0405
 2359TIP3    H128492   4.642   0.311  15.951 -0.6971  0.3153 -0.2619
 2359TIP3    H228493   4.573   0.335  16.084 -0.2493 -0.6872  0.1635
 2360TIP3   OH228494   6.532   1.333   4.365  0.0484  0.0135  0.0956
 2360TIP3    H128495   6.575   1.379   4.293 -1.4656  1.5045  0.0959
 2360TIP3    H228496   6.571   1.245   4.364  2.6031  1.0630 -0.2739
 2361TIP3   OH228497   0.867   1.986   6.611  0.2037  0.3250 -0.2716
 2361TIP3    H128498   0.886   1.962   6.702  0.8562 -0.1851 -0.5403
 2361TIP3    H228499   0.953   1.998   6.570 -0.0705  2.4231 -0.3485
 2362TIP3   OH228500   2.189   2.316   3.358  0.3966  0.9739  0.1382
 2362TIP3    H128501   2.274   2.308   3.313  0.6783  2.8528  0.2616
 2362TIP3    H228502   2.211   2.339   3.448 -0.2366  0.4404  0.4373
 2363TIP3   OH228503   1.337   1.688  16.704 -0.4704 -0.6885 -0.1395
 2363TIP3    H128504   1.308   1.779  16.704 -0.9732 -0.7691  2.2071
 2363TIP3    H228505   1.323   1.658  16.615 -0.6718  1.4058 -0.8705
 2364TIP3   OH228506   2.485   3.739  11.909  0.3369 -0.0943 -0.3607
 2364TIP3    H128507   2.463   3.774  11.823  2.1036  2.7504  0.2433
 2364TIP3    H228508   2.540   3.663  11.890  0.9087  0.6328 -1.7681
 2365TIP3   OH228509   6.444   3.496   1.337  0.0267  0.2516  0.0435
 2365TIP3    H128510   6.410   3.578   1.372  0.2192 -0.2263  1.4427
 2365TIP3    H228511   6.537   3.512   1.323  0.1331  0.1916  0.6361
 2366TIP3   OH228512   1.013   6.005   3.626 -0.2609  0.0220  0.2623
 2366TIP3    H128513   0.986   5.941   3.561 -2.0112 -1.0961  1.9838
 2366TIP3    H228514   0.959   5.987   3.703 -1.1518  3.8215  0.7538
 2367TIP3   OH228515   4.579   1.891  17.009  0.4017  0.2596  0.5343
 2367TIP3    H128516   4.492   1.892  16.970  0.9990  1.1129 -0.8389
 2367TIP3    H228517   4.619   1.810  16.977  0.4854  0.3936  0.2977
 2368TIP3   OH228518   0.171   0.006   4.404  0.2809  0.4761  0.1608
 2368TIP3    H128519   0.161   0.076   4.339 -1.6242  2.0763  2.0166
 2368TIP3    H228520   0.157   0.049   4.488 -0.5741 -2.0790  1.4363
 2369TIP3   OH228521   5.051   1.313   1.168 -0.1890 -0.1915 -0.0396
 2369TIP3    H128522   4.984   1.381   1.174 -0.2561 -0.0757 -1.6702
 2369TIP3    H228523   5.004   1.232   1.190 -0.8508 -0.0883 -0.9959
 2370TIP3   OH228524   1.065   1.316  12.955 -0.3931 -0.4789  0.1256
 2370TIP3    H128525   1.065   1.318  13.051 -0.1366 -0.2801  0.1222
 2370TIP3    H228526   0.982   1.273  12.932  0.1283 -1.7055  0.4627
 2371TIP3   OH228527   2.850   6.170  15.745  0.5440 -0.1926 -0.0431
 2371TIP3    H128528   2.879   6.105  15.680  1.6923  0.6558 -0.4167
 2371TIP3    H228529   2.761   6.194  15.717  0.8276 -0.2201 -1.0084
 2372TIP3   OH228530   3.151   0.875   6.287  0.0769 -0.3919  0.2163
 2372TIP3    H128531   3.136   0.781   6.281  0.1771 -0.3565 -0.6827
 2372TIP3    H228532   3.232   0.890   6.237  1.5259 -0.1718  2.4943
 2373TIP3   OH228533   4.203   4.230   4.974  0.5193 -0.0716 -0.0764
 2373TIP3    H128534   4.265   4.267   4.912 -0.4476 -0.2294 -1.1841
 2373TIP3    H228535   4.135   4.191   4.919 -1.1498  1.0822  1.0493
 2374TIP3   OH228536   1.212   4.219  11.888  0.1959 -0.0296  0.0709
 2374TIP3    H128537   1.272   4.196  11.817 -0.0466  0.4119 -0.2869
 2374TIP3    H228538   1.225   4.313  11.901 -0.4568  0.0823 -0.0542
 2375TIP3   OH228539   4.618   6.310  14.493 -0.1605 -0.3064 -0.3465
 2375TIP3    H128540   4.572   6.394  14.486 -0.3392 -0.4709 -1.3612
 2375TIP3    H228541   4.675   6.320  14.570 -1.2517  0.2058  0.4192
 2376TIP3   OH228542   1.694   3.699   0.965  0.3846  0.2266  0.6474
 2376TIP3    H128543   1.686   3.704   0.870  1.4902 -0.1908  0.5232
 2376TIP3    H228544   1.632   3.631   0.991  0.8512 -0.4092  0.1123
 2377TIP3   OH228545   5.371   4.416  11.190  0.5932  0.3465  0.4602
 2377TIP3    H128546   5.399   4.477  11.258  2.4240 -2.1603  2.1117
 2377TIP3    H228547   5.449   4.401  11.137 -0.4790  1.2559 -1.5153
 2378TIP3   OH228548   4.010   0.721   3.883  0.2498 -0.2270  0.6060
 2378TIP3    H128549   4.016   0.627   3.866  2.3517 -0.1544  0.7117
 2378TIP3    H228550   3.968   0.727   3.969  0.8655 -1.1290  0.9897
 2379TIP3   OH228551   1.296   4.030   0.524 -0.1079  0.6888  0.1532
 2379TIP3    H128552   1.337   4.039   0.609 -2.2727  1.8927  1.1576
 2379TIP3    H228553   1.302   3.936   0.504 -0.2718  0.2554  2.0180
 2380TIP3   OH228554   1.120   0.702  14.689  0.2156  0.0325  0.2660
 2380TIP3    H128555   1.118   0.691  14.594 -0.6693 -0.8613  0.3709
 2380TIP3    H228556   1.136   0.613  14.723  2.4002  0.6141  0.9222
 2381TIP3   OH228557   6.562   4.660  16.779 -0.1488 -0.0879  0.4409
 2381TIP3    H128558   6.629   4.727  16.792  1.4066 -1.5130  0.2097
 2381TIP3    H228559   6.554   4.618  16.865  0.2979 -0.8180  0.1365
 2382TIP3   OH228560   5.426   1.491  14.079  0.3922 -0.1963  0.8495
 2382TIP3    H128561   5.423   1.398  14.056 -0.7345 -0.2208  1.0573
 2382TIP3    H228562   5.496   1.497  14.145  1.7605 -0.5633 -0.5108
 2383TIP3   OH228563   5.236   5.543  15.600 -0.2225  0.0785 -0.6235
 2383TIP3    H128564   5.265   5.549  15.691  0.1352 -0.6732 -0.6827
 2383TIP3    H228565   5.168   5.476  15.601 -1.3065  1.1488 -0.6524
 2384TIP3   OH228566   4.279   0.728  16.080 -0.1820  0.2307  0.2499
 2384TIP3    H128567   4.317   0.813  16.100 -0.1699  0.5990 -1.2654
 2384TIP3    H228568   4.310   0.671  16.151  1.5051  1.0040  0.1757
 2385TIP3   OH228569   1.782   3.171  11.492 -0.6658 -0.1184 -0.1606
 2385TIP3    H128570   1.799   3.263  11.471  0.1417 -0.1727  0.1981
 2385TIP3    H228571   1.866   3.127  11.476 -0.7351 -0.5971  0.7015
 2386TIP3   OH228572   4.906   0.689   5.754  0.1574 -0.0536 -0.0929
 2386TIP3    H128573   4.971   0.625   5.726  0.8122  0.4921  0.1435
 2386TIP3    H228574   4.925   0.767   5.701  0.5571  0.5480  0.8931
 2387TIP3   OH228575   1.756   1.282   4.933  0.3069 -0.0484  0.1963
 2387TIP3    H128576   1.798   1.202   4.902  1.1214 -0.3385  1.9353
 2387TIP3    H228577   1.732   1.329   4.853 -1.1570 -2.4773 -0.9130
 2388TIP3   OH228578   4.859   5.955  15.067 -0.6762  0.3040  0.4084
 2388TIP3    H128579   4.846   5.974  14.974 -0.5884  0.8522  0.5022
 2388TIP3    H228580   4.950   5.981  15.084 -0.3051 -0.9263  0.3796
 2389TIP3   OH228581   1.478   2.453   5.023 -0.4680 -0.4602  0.1984
 2389TIP3    H128582   1.450   2.535   4.982  1.2861 -0.1914 -0.5735
 2389TIP3    H228583   1.408   2.431   5.084 -1.4061  1.1258 -0.2515
 2390TIP3   OH228584   3.022   3.781   6.399  0.5903  0.0141 -0.3395
 2390TIP3    H128585   3.118   3.779   6.397  0.6055  0.8558 -0.5524
 2390TIP3    H228586   2.997   3.805   6.310  0.2749  2.5422  0.3570
 2391TIP3   OH228587   0.575   4.586  15.751  0.2262 -0.1227  0.4964
 2391TIP3    H128588   0.612   4.512  15.798 -0.9022 -0.5412  0.7485
 2391TIP3    H228589   0.485   4.560  15.732  0.7064 -0.1144 -2.1778
 2392TIP3   OH228590   4.923   3.253  17.240  0.1420  0.1904 -0.2297
 2392TIP3    H128591   4.982   3.325  17.261  0.3048 -0.1888  0.6610
 2392TIP3    H228592   4.846   3.295  17.202  0.6958  0.7396 -0.7741
 2393TIP3   OH228593   3.298   2.250   5.326  0.3977 -0.2810  0.4669
 2393TIP3    H128594   3.272   2.244   5.418 -0.6888 -1.3576  0.1089
 2393TIP3    H228595   3.222   2.219   5.277  0.3412  1.8288 -0.8992
 2394TIP3   OH228596   4.189   6.331  15.472  0.0333  0.0253 -0.3622
 2394TIP3    H128597   4.121   6.325  15.405 -0.5130  0.2956  0.1520
 2394TIP3    H228598   4.143   6.365  15.549  0.7210  0.0527  0.0427
 2395TIP3   OH228599   4.332   2.188  13.530 -0.2070  0.5458  0.0168
 2395TIP3    H128600   4.286   2.131  13.468  1.7359 -1.1181 -0.0283
 2395TIP3    H228601   4.406   2.222  13.480  1.3498 -0.7634  1.3335
 2396TIP3   OH228602   5.032   5.765   5.607  0.0804 -0.2089  0.0993
 2396TIP3    H128603   5.083   5.827   5.556 -2.8054  2.1717 -0.1348
 2396TIP3    H228604   5.091   5.738   5.678  2.4324  0.3662 -1.5321
 2397TIP3   OH228605   5.518   6.534   2.864  0.4652 -0.0387  0.1856
 2397TIP3    H128606   5.590   6.593   2.883  1.5850 -1.5432  0.7721
 2397TIP3    H228607   5.493   6.499   2.949 -0.3717 -0.2123 -0.1235
 2398TIP3   OH228608   5.262   3.403   2.145 -0.7088 -0.1047  0.3801
 2398TIP3    H128609   5.333   3.454   2.186  1.1435 -1.3851 -1.0274
 2398TIP3    H228610   5.254   3.442   2.058  0.6745 -2.0165 -0.6887
 2399TIP3   OH228611   5.133   2.559  14.236  0.2002  0.0921  0.2165
 2399TIP3    H128612   5.142   2.522  14.148 -0.3058  3.3761 -1.3572
 2399TIP3    H228613   5.083   2.640  14.223 -0.8643  0.1489  3.7185
 2400TIP3   OH228614   2.273   5.846   1.783  0.3007  0.3017  1.0297
 2400TIP3    H128615   2.294   5.816   1.872  0.8881  0.1323  0.8354
 2400TIP3    H228616   2.214   5.779   1.748 -0.7566  0.8772  1.6451
 2401TIP3   OH228617   3.243   3.725   2.468 -0.0566  0.5211 -0.1896
 2401TIP3    H128618   3.276   3.725   2.558  1.7772  0.9591 -0.8383
 2401TIP3    H228619   3.263   3.637   2.435 -1.5387  0.0496  0.0775
 2402TIP3   OH228620   1.110   0.033   1.027 -0.2499 -0.3239  0.2391
 2402TIP3    H128621   1.182  -0.030   1.018  1.2555  1.1416  1.4597
 2402TIP3    H228622   1.067   0.033   0.941  0.4638 -2.0967 -0.1572
 2403TIP3   OH228623   2.907   0.168  12.625 -0.1086  0.8138  0.3143
 2403TIP3    H128624   2.890   0.263  12.625 -1.2377  0.6379 -1.0139
 2403TIP3    H228625   2.972   0.156  12.555  0.0705  0.6129  0.5165
 2404TIP3   OH228626   2.292   3.666  14.551 -0.1408 -0.5549  0.8605
 2404TIP3    H128627   2.239   3.600  14.595 -0.3981 -0.0971  1.2538
 2404TIP3    H228628   2.247   3.683  14.468 -0.4943 -0.3253  1.0977
 2405TIP3   OH228629   0.033   4.676   3.834 -0.0281 -0.8280 -0.1897
 2405TIP3    H128630  -0.009   4.725   3.764 -0.8199 -1.2941 -0.0492
 2405TIP3    H228631  -0.008   4.707   3.914  1.4340  0.2863  0.1754
 2406TIP3   OH228632   4.546   2.717  16.810 -0.4107 -0.5885  0.4337
 2406TIP3    H128633   4.536   2.699  16.717  0.1544  0.1534  0.2243
 2406TIP3    H228634   4.604   2.648  16.842  1.0796  0.3441 -0.1959
 2407TIP3   OH228635   3.712   0.169   6.645  0.0804 -0.0107  0.0923
 2407TIP3    H128636   3.734   0.147   6.555  2.1683  0.7463  0.3781
 2407TIP3    H228637   3.652   0.244   6.636 -0.6820 -0.6840 -0.6617
 2408TIP3   OH228638   2.931   2.591  16.613 -0.1324  0.0107 -0.5814
 2408TIP3    H128639   2.847   2.555  16.640 -0.3277  1.8868  1.6431
 2408TIP3    H228640   2.918   2.614  16.521 -2.1492  0.4021 -0.2576
 2409TIP3   OH228641   2.027   5.834   3.852  0.4270 -0.1410 -0.9755
 2409TIP3    H128642   2.012   5.843   3.758  3.3357 -1.7878 -1.7172
 2409TIP3    H228643   2.058   5.744   3.863  0.2446  0.0180  1.5706
 2410TIP3   OH228644   0.492   6.352  11.960  0.4158 -0.4012 -0.3513
 2410TIP3    H128645   0.450   6.283  12.012  2.2707 -0.1598  1.6150
 2410TIP3    H228646   0.578   6.317  11.938  1.1467  0.9905  0.1319
 2411TIP3   OH228647   5.510   1.115   6.107  0.0902 -0.0155 -0.4023
 2411TIP3    H128648   5.474   1.029   6.086 -1.0489  0.1721  0.6832
 2411TIP3    H228649   5.523   1.113   6.202  2.9539 -0.0439 -0.7006
 2412TIP3   OH228650   0.626   2.979   5.660  0.5385 -0.4498 -0.5633
 2412TIP3    H128651   0.539   2.951   5.633  0.8550 -0.4646 -1.6193
 2412TIP3    H228652   0.640   3.062   5.614  0.0078  1.0340  1.7256
 2413TIP3   OH228653   5.676   5.633   1.460  0.3281  0.5595 -0.3214
 2413TIP3    H128654   5.721   5.712   1.488  0.2661  0.4492  0.1065
 2413TIP3    H228655   5.681   5.634   1.365  0.6434  0.8913 -0.3020
 2414TIP3   OH228656   3.837   0.733  15.815  0.4415 -0.2597  0.0699
 2414TIP3    H128657   3.810   0.805  15.757 -0.9620 -1.1977 -0.4710
 2414TIP3    H228658   3.814   0.764  15.902  2.0980  0.9457  0.1479
 2415TIP3   OH228659   3.996   0.044  11.511 -0.3564 -0.4049 -0.1717
 2415TIP3    H128660   3.959  -0.038  11.478  2.0503 -1.7668  0.2889
 2415TIP3    H228661   4.064   0.066  11.448  0.7594 -0.1807  1.0878
 2416TIP3   OH228662   5.672   6.312  14.829 -0.0177  0.0897 -0.0315
 2416TIP3    H128663   5.701   6.283  14.743 -1.0428 -0.8553 -0.0846
 2416TIP3    H228664   5.693   6.405  14.831  1.5466 -0.2211 -0.6355
 2417TIP3   OH228665   2.158   1.830  16.328 -0.4144 -0.1916  0.0252
 2417TIP3    H128666   2.232   1.776  16.303  0.1603 -0.0864  1.3985
 2417TIP3    H228667   2.092   1.768  16.359  0.3471 -0.1617  1.8608
 2418TIP3   OH228668   3.380   4.629  17.347 -0.7265  0.0313 -0.7540
 2418TIP3    H128669   3.408   4.708  17.394 -2.1561  0.0378  0.1491
 2418TIP3    H228670   3.456   4.570  17.352 -0.8941 -0.0982  1.9211
 2419TIP3   OH228671   0.138   0.834   0.993 -0.4734 -0.1046 -0.4796
 2419TIP3    H128672   0.162   0.844   0.900 -1.7711 -1.1878 -0.9754
 2419TIP3    H228673   0.050   0.796   0.990  0.2929 -2.1998  1.1637
 2420TIP3   OH228674   5.357   1.677   0.056 -0.2656 -0.2364  0.1905
 2420TIP3    H128675   5.412   1.670  -0.022 -1.5180 -1.4504 -0.6257
 2420TIP3    H228676   5.366   1.768   0.083  0.5455  0.1005 -1.1172
 2421TIP3   OH228677   5.128   1.629  16.787 -0.1311 -0.0314 -0.6955
 2421TIP3    H128678   5.191   1.692  16.750 -2.1760  1.4908 -1.7777
 2421TIP3    H228679   5.113   1.566  16.717 -0.6813  0.2969 -0.8786
 2422TIP3   OH228680   0.717   2.337  14.937 -0.2426  0.1184  0.4345
 2422TIP3    H128681   0.681   2.284  14.865 -1.2235  0.5074  0.6222
 2422TIP3    H228682   0.806   2.357  14.909 -0.2831 -0.5519 -0.2290
 2423TIP3   OH228683   2.759   5.377   1.484  0.5092 -0.1597 -0.5449
 2423TIP3    H128684   2.675   5.331   1.487  0.4688 -0.0335  0.6497
 2423TIP3    H228685   2.825   5.307   1.482  0.3949 -0.2567 -1.1440
 2424TIP3   OH228686   1.697   2.692  15.099 -0.1913  0.2697  0.0245
 2424TIP3    H128687   1.751   2.728  15.028 -0.6672  0.3836 -0.2806
 2424TIP3    H228688   1.726   2.601  15.105  1.8533  0.9476  1.5936
 2425TIP3   OH228689   3.482   4.915   3.988  0.1369 -0.1465 -0.5493
 2425TIP3    H128690   3.457   4.939   4.077 -0.4789 -0.6258 -0.5825
 2425TIP3    H228691   3.561   4.863   3.998 -1.0197 -1.8936 -0.0964
 2426TIP3   OH228692   5.526   1.923  14.221  0.2203 -0.4586  0.2493
 2426TIP3    H128693   5.535   1.975  14.301 -0.5843  0.1304 -0.0290
 2426TIP3    H228694   5.548   1.834  14.247  1.8018  0.0392  0.6975
 2427TIP3   OH228695   4.564   1.030   4.667 -0.1920  0.1277 -0.3718
 2427TIP3    H128696   4.564   1.045   4.762  0.3303 -0.7780 -0.2203
 2427TIP3    H228697   4.641   1.076   4.635  1.0545 -1.6155  0.0054
 2428TIP3   OH228698   5.300   0.757  13.915  0.6580 -0.6005 -0.5517
 2428TIP3    H128699   5.251   0.765  13.833  0.0381  1.1062 -0.0549
 2428TIP3    H228700   5.391   0.752  13.888  0.5187  0.7080 -1.3481
 2429TIP3   OH228701   5.322   6.163  14.978 -0.2490 -0.0507 -0.0806
 2429TIP3    H128702   5.249   6.101  14.981  0.4709 -0.8892  0.9482
 2429TIP3    H228703   5.396   6.115  15.017  0.7784  0.8750 -0.8413
 2430TIP3   OH228704   4.820   1.814   4.689  0.1160  0.3496  0.9108
 2430TIP3    H128705   4.734   1.774   4.686 -0.8359  2.3192  0.3956
 2430TIP3    H228706   4.859   1.783   4.770 -1.5157  0.2625  1.6905
 2431TIP3   OH228707   5.518   2.699   2.910  0.1398 -0.1401 -0.1720
 2431TIP3    H128708   5.539   2.668   2.997 -0.8289 -0.7580 -0.1499
 2431TIP3    H228709   5.425   2.721   2.913  0.0251 -0.4233 -1.1172
 2432TIP3   OH228710   6.032   0.724  17.068 -0.0013 -0.5756  0.2214
 2432TIP3    H128711   6.067   0.704  17.155  0.8048 -1.0474 -0.2087
 2432TIP3    H228712   6.036   0.641  17.021 -0.0864 -0.2346 -0.3942
 2433TIP3   OH228713   4.152   5.788  13.508 -0.3788 -0.2257  0.4676
 2433TIP3    H128714   4.184   5.734  13.436 -3.1370  0.4318 -1.4174
 2433TIP3    H228715   4.204   5.868  13.503  0.0081 -0.5134 -0.3040
 2434TIP3   OH228716   6.379   5.491  13.091 -0.0033 -0.1922 -0.1680
 2434TIP3    H128717   6.443   5.492  13.020 -0.2022 -2.2408 -0.4599
 2434TIP3    H228718   6.368   5.582  13.116  2.7365  0.2754 -0.3610
 2435TIP3   OH228719   5.708   5.240   6.077  0.4648 -0.3946 -0.0235
 2435TIP3    H128720   5.737   5.209   6.162  0.8496  1.5622  0.6276
 2435TIP3    H228721   5.635   5.183   6.053 -1.0334  0.2676  2.6065
 2436TIP3   OH228722   5.800   2.996   1.701  0.4209  0.2373 -0.1022
 2436TIP3    H128723   5.882   3.018   1.746  0.1425  0.3735  0.3426
 2436TIP3    H228724   5.807   3.038   1.615  0.6273  0.6126  0.0977
 2437TIP3   OH228725   2.487   4.916   5.476  0.1280 -0.2336  0.1760
 2437TIP3    H128726   2.567   4.914   5.528 -0.5634 -2.3639  1.2829
 2437TIP3    H228727   2.515   4.891   5.388  0.6978 -1.1901  0.6053
 2438TIP3   OH228728   2.049   6.002  13.512 -0.5112  0.2668  0.5149
 2438TIP3    H128729   2.130   6.040  13.478 -0.0363 -2.0769 -1.2338
 2438TIP3    H228730   2.041   6.036  13.601  2.4079  0.5426  0.7476
 2439TIP3   OH228731   3.674   5.927  16.164 -0.5921 -0.2828 -0.4054
 2439TIP3    H128732   3.706   5.930  16.254  0.1102  0.4599 -0.6622
 2439TIP3    H228733   3.628   5.844  16.157 -2.2081  0.4359  1.1447
 2440TIP3   OH228734   3.638   1.654  14.556 -0.0870 -0.0703  0.1620
 2440TIP3    H128735   3.564   1.715  14.552 -2.3803 -2.6854 -1.2435
 2440TIP3    H228736   3.636   1.619  14.645  0.7025  1.2279  0.7079
 2441TIP3   OH228737   4.571   5.128   5.835  0.1843 -0.0933  0.0557
 2441TIP3    H128738   4.484   5.089   5.821  0.0978  0.9325 -2.9878
 2441TIP3    H228739   4.565   5.169   5.921 -2.8383  1.0116 -0.5554
 2442TIP3   OH228740   0.148   4.889  11.691 -0.4105  0.1941 -0.5953
 2442TIP3    H128741   0.227   4.926  11.731 -0.7831 -0.3799  0.7410
 2442TIP3    H228742   0.180   4.822  11.631  0.1094 -1.0473  1.0065
 2443TIP3   OH228743   1.644   2.586   3.088 -0.3309  0.1241 -0.7046
 2443TIP3    H128744   1.564   2.572   3.037 -1.4171  0.5046  0.8353
 2443TIP3    H228745   1.628   2.667   3.136  1.9275  1.4852 -2.0833
 2444TIP3   OH228746   3.952   0.926   0.377 -0.3868 -0.1916 -0.3995
 2444TIP3    H128747   3.856   0.927   0.385 -0.2519  0.1893  1.6511
 2444TIP3    H228748   3.983   0.965   0.459  1.5706 -2.2281 -0.0858
 2445TIP3   OH228749   4.096   3.007  17.345  0.5037 -0.1922 -0.1094
 2445TIP3    H128750   4.037   3.082  17.342  0.1415 -0.4453  0.6335
 2445TIP3    H228751   4.055   2.945  17.405  1.8066 -0.1181  0.9275
 2446TIP3   OH228752   5.442   1.527  13.202 -0.0132  0.4403  0.6355
 2446TIP3    H128753   5.512   1.500  13.261 -1.3343 -0.6286  1.7911
 2446TIP3    H228754   5.373   1.462  13.216 -0.2769 -0.0639 -2.3516
 2447TIP3   OH228755   2.008   6.086   3.421 -0.0152 -0.6881  0.2190
 2447TIP3    H128756   2.036   6.161   3.474 -0.2603 -1.0707  0.9109
 2447TIP3    H228757   2.024   6.112   3.331  1.0821 -0.2869  0.5148
 2448TIP3   OH228758   3.775   0.869  13.587  0.2850 -0.7249 -0.4970
 2448TIP3    H128759   3.755   0.944  13.530 -0.0012  0.2349  0.8271
 2448TIP3    H228760   3.812   0.804  13.527  0.0886  0.2753 -1.7696
 2449TIP3   OH228761   3.049   2.117   6.756 -0.5663  0.2352  0.2115
 2449TIP3    H128762   3.080   2.188   6.700 -2.6270  0.3595 -0.8295
 2449TIP3    H228763   3.082   2.139   6.843  1.5646  0.7320 -0.6654
 2450TIP3   OH228764   1.945   5.689  16.809 -0.2210 -0.0388  0.1291
 2450TIP3    H128765   2.027   5.734  16.792 -0.0906 -0.2681  0.1442
 2450TIP3    H228766   1.967   5.596  16.805 -0.7080 -0.1186 -0.9865
 2451TIP3   OH228767   3.698   0.996   0.899  0.7131  0.1057 -0.6657
 2451TIP3    H128768   3.715   1.062   0.966 -0.7405  0.4921 -0.6508
 2451TIP3    H228769   3.675   0.917   0.947 -1.0471  0.5812 -0.6844
 2452TIP3   OH228770   3.208   6.695   2.199 -0.5097 -0.2330 -0.1633
 2452TIP3    H128771   3.116   6.688   2.226 -0.2784 -1.4517  0.3975
 2452TIP3    H228772   3.234   6.783   2.225 -0.6255 -0.9382  2.6759
 2453TIP3   OH228773   0.209   2.385  12.363 -0.0578 -0.5637 -0.1954
 2453TIP3    H128774   0.279   2.321  12.378 -1.1027 -1.8285 -0.4934
 2453TIP3    H228775   0.219   2.411  12.272  0.5596 -0.0483  0.0121
 2454TIP3   OH228776   0.669   2.046  12.431 -0.0141  0.2986  0.1551
 2454TIP3    H128777   0.576   2.046  12.453 -0.1949 -0.9416 -0.5556
 2454TIP3    H228778   0.675   1.995  12.350  1.3261  0.0803  0.3723
 2455TIP3   OH228779   0.830   5.228   0.853 -0.1280 -0.0486 -0.1737
 2455TIP3    H128780   0.867   5.286   0.786  3.1733 -0.2790  1.2898
 2455TIP3    H228781   0.789   5.288   0.915 -0.3961  0.3781 -0.7448
 2456TIP3   OH228782   3.631   4.611   2.375  0.6481  0.1333 -0.0866
 2456TIP3    H128783   3.725   4.603   2.358  0.7127 -1.2907  0.7810
 2456TIP3    H228784   3.625   4.622   2.470 -0.0597  0.3767 -0.1545
 2457TIP3   OH228785   1.390   0.530  16.948 -0.1579 -0.2681  0.0764
 2457TIP3    H128786   1.362   0.621  16.940  0.0699 -0.2937 -1.1685
 2457TIP3    H228787   1.310   0.479  16.935 -0.0378 -0.2729 -0.6789
 2458TIP3   OH228788   4.570   2.136  14.898  0.6862  0.2273 -0.4574
 2458TIP3    H128789   4.626   2.113  14.972  0.5051 -1.0658 -0.7023
 2458TIP3    H228790   4.605   2.085  14.825 -0.5925 -0.3722 -0.6859
 2459TIP3   OH228791   0.164   2.383  12.986 -0.2204 -0.3725 -0.4984
 2459TIP3    H128792   0.172   2.317  13.055  0.1063 -0.7945 -0.9378
 2459TIP3    H228793   0.221   2.352  12.916 -0.9798 -0.2344 -1.1922
 2460TIP3   OH228794   6.035   1.267  12.915 -0.3097 -0.0288 -0.4189
 2460TIP3    H128795   6.089   1.237  12.842 -0.0234  0.3774 -0.3774
 2460TIP3    H228796   6.002   1.352  12.888  0.2019  0.3545  0.1117
 2461TIP3   OH228797   2.584   3.058  14.813 -0.4165  0.2240 -0.3044
 2461TIP3    H128798   2.617   2.968  14.818  1.4198  0.9260  0.9419
 2461TIP3    H228799   2.660   3.111  14.791 -1.3568  1.5735 -0.4596
 2462TIP3   OH228800   3.115   0.292  11.077  0.2925  0.2948 -0.2777
 2462TIP3    H128801   3.056   0.360  11.043 -1.4756 -0.5443  0.9857
 2462TIP3    H228802   3.096   0.215  11.024  0.1166 -0.0331  0.2592
 2463TIP3   OH228803   1.627   5.489  15.782  0.7098 -0.2939 -0.3842
 2463TIP3    H128804   1.646   5.405  15.823 -0.5449 -0.1205  0.6027
 2463TIP3    H228805   1.698   5.547  15.810 -0.9414  0.2905  3.0178
 2464TIP3   OH228806   5.474   0.284  14.344  0.2250  0.3829 -0.0549
 2464TIP3    H128807   5.470   0.203  14.394 -0.6206  1.0662  1.0462
 2464TIP3    H228808   5.562   0.285  14.306  1.0510  0.0126  1.7488
 2465TIP3   OH228809   3.066   2.823  11.100 -0.3245 -0.1837 -0.0268
 2465TIP3    H128810   3.155   2.822  11.063  0.6292 -2.4754  2.0642
 2465TIP3    H228811   3.009   2.799  11.027  1.1075 -1.4536 -0.7820
 2466TIP3   OH228812   5.323   6.326   4.306 -0.1545 -0.2404 -0.0061
 2466TIP3    H128813   5.315   6.420   4.286 -1.2559 -0.0501  1.1282
 2466TIP3    H228814   5.410   6.317   4.345  0.4597  0.0593 -1.2491
 2467TIP3   OH228815   4.150   3.813  14.683  0.4599 -0.1327  0.1649
 2467TIP3    H128816   4.089   3.882  14.710 -0.6968 -1.2820  0.5515
 2467TIP3    H228817   4.108   3.732  14.708  1.3965 -1.0523 -1.0857
 2468TIP3   OH228818   0.649   5.806  14.087  0.3122 -0.2934 -0.0489
 2468TIP3    H128819   0.557   5.787  14.068 -0.5447  2.9100  0.2501
 2468TIP3    H228820   0.676   5.865  14.017  1.3107  0.8501  1.2406
 2469TIP3   OH228821   5.615   6.423   4.391 -0.1149  0.0026 -0.2505
 2469TIP3    H128822   5.636   6.358   4.325 -0.6806 -1.2795  0.7828
 2469TIP3    H228823   5.660   6.393   4.470  2.1891  2.5685 -0.4672
 2470TIP3   OH228824   2.246   0.252  14.307 -0.1877  0.4043  0.3065
 2470TIP3    H128825   2.186   0.295  14.368 -0.7335 -1.6176  1.2772
 2470TIP3    H228826   2.193   0.184  14.265  1.1246 -0.6782  0.3411
 2471TIP3   OH228827   1.309   1.816   1.998  0.0312 -0.0895 -0.4692
 2471TIP3    H128828   1.311   1.912   2.003 -0.3407  0.0463 -2.3047
 2471TIP3    H228829   1.401   1.791   1.987  0.2022 -0.0138  0.6624
 2472TIP3   OH228830   4.704   1.449   2.160 -0.0704 -0.1119  0.5537
 2472TIP3    H128831   4.655   1.518   2.205  0.9119  0.9739  0.0225
 2472TIP3    H228832   4.639   1.381   2.143 -1.0005  0.5291  1.3856
 2473TIP3   OH228833   5.785   1.461  13.143  1.1136 -0.0731  0.6727
 2473TIP3    H128834   5.761   1.369  13.132  1.1276 -0.2255  1.7719
 2473TIP3    H228835   5.879   1.459  13.162  1.1624  0.1885  0.4593
 2474TIP3   OH228836   3.783   0.907  15.602 -0.1698  0.5518 -0.2494
 2474TIP3    H128837   3.786   0.836  15.537  1.9651  0.0326  0.3245
 2474TIP3    H228838   3.720   0.969  15.567 -1.4182 -1.1911 -1.2360
 2475TIP3   OH228839   5.552   2.793  13.211  0.2075 -0.1369  0.2947
 2475TIP3    H128840   5.506   2.738  13.148  2.2662 -3.1689  1.1867
 2475TIP3    H228841   5.504   2.780  13.293  0.2396  0.0252  0.3391
 2476TIP3   OH228842   1.494   6.541   5.220 -0.4151 -0.7649  0.2735
 2476TIP3    H128843   1.497   6.495   5.136  0.9817 -1.8556  0.8874
 2476TIP3    H228844   1.425   6.496   5.270  0.1547 -1.4596  0.4478
 2477TIP3   OH228845   0.551   5.980   2.863 -0.4220 -0.3971  0.4850
 2477TIP3    H128846   0.486   6.048   2.880 -0.4469 -0.4045  0.4212
 2477TIP3    H228847   0.611   6.019   2.799  0.9283  0.4172  2.1648
 2478TIP3   OH228848   1.843   6.260  11.872  0.6229 -0.0989  0.1288
 2478TIP3    H128849   1.774   6.205  11.909  1.2073 -0.9307 -0.0008
 2478TIP3    H228850   1.838   6.244  11.778 -1.1109  2.2960 -0.2603
 2479TIP3   OH228851   5.379   0.740   4.899  0.6060 -0.2288  0.1488
 2479TIP3    H128852   5.320   0.779   4.835 -2.1701 -1.0427  2.0204
 2479TIP3    H228853   5.404   0.656   4.860  1.2128  0.4645 -1.0074
 2480TIP3   OH228854   5.958   6.500   2.729  0.0138 -0.0494 -0.0677
 2480TIP3    H128855   5.964   6.409   2.760 -0.3792  0.6813  2.3403
 2480TIP3    H228856   6.042   6.539   2.753 -0.5252  0.7018  0.6508
 2481TIP3   OH228857   2.726   4.569   5.232 -0.4667 -0.3800 -0.7354
 2481TIP3    H128858   2.639   4.604   5.252 -0.2486 -0.7103  0.9130
 2481TIP3    H228859   2.710   4.480   5.201 -0.6254 -1.4985  2.2498
 2482TIP3   OH228860   5.142   4.053   6.328 -0.4166  0.0245 -0.2183
 2482TIP3    H128861   5.048   4.072   6.324 -0.3299  0.3361 -0.9152
 2482TIP3    H228862   5.146   3.961   6.353 -0.9402 -0.2775 -1.1984
 2483TIP3   OH228863   5.357   5.465  12.838 -0.2245  0.1078  0.6721
 2483TIP3    H128864   5.294   5.529  12.804  0.4102  0.9555  1.0605
 2483TIP3    H228865   5.315   5.429  12.916 -0.0403  1.0022  1.1887
 2484TIP3   OH228866   4.529   2.699  13.120  0.2800 -0.2428 -0.0634
 2484TIP3    H128867   4.454   2.646  13.146  0.6035 -0.2194  0.9472
 2484TIP3    H228868   4.499   2.789  13.126  0.2900 -0.2457  0.0304
 2485TIP3   OH228869   5.997   3.275   3.721 -0.7367  0.2373  0.4271
 2485TIP3    H128870   5.978   3.368   3.733 -0.3403  0.3735  0.0341
 2485TIP3    H228871   6.076   3.274   3.666  0.8391 -0.2925  2.5926
 2486TIP3   OH228872   2.324   6.566   0.437  0.3238 -0.4387  0.1459
 2486TIP3    H128873   2.373   6.487   0.458 -0.9917 -0.7985  2.0596
 2486TIP3    H228874   2.335   6.623   0.513 -1.2538 -0.0758  0.1467
 2487TIP3   OH228875   6.592   3.367   0.862  0.1294 -0.7639  0.0692
 2487TIP3    H128876   6.639   3.368   0.945 -0.6551 -1.6672  0.5526
 2487TIP3    H228877   6.502   3.344   0.886 -0.1145 -1.0109 -1.0263
 2488TIP3   OH228878   0.643   5.309  16.935 -0.5545  0.4917 -0.3256
 2488TIP3    H128879   0.580   5.377  16.958 -0.7270  0.6161 -1.1452
 2488TIP3    H228880   0.610   5.271  16.854 -1.3770 -1.7442  0.9711
 2489TIP3   OH228881   4.618   1.901   0.356 -0.2843 -0.2694 -0.1027
 2489TIP3    H128882   4.682   1.972   0.364 -1.3138  0.5728  0.8781
 2489TIP3    H228883   4.570   1.902   0.438 -1.4462 -1.0092 -0.7401
 2490TIP3   OH228884   0.588   0.121   3.196 -0.5689 -0.6090 -0.1296
 2490TIP3    H128885   0.535   0.083   3.265 -1.6435 -0.3862 -0.8170
 2490TIP3    H228886   0.638   0.047   3.161  0.1958 -0.6763  1.0353
 2491TIP3   OH228887   1.932   3.594   4.371  0.2089 -0.1933  0.3779
 2491TIP3    H128888   1.986   3.517   4.354  0.5429 -0.0403  0.7173
 2491TIP3    H228889   1.952   3.617   4.462  0.7113  0.7578  0.0458
 2492TIP3   OH228890   3.869   2.544  14.316  0.0297  0.3064  0.1771
 2492TIP3    H128891   3.836   2.519  14.230  4.8405 -0.5625 -1.7116
 2492TIP3    H228892   3.866   2.463  14.367 -0.2737  0.1290 -0.1175
 2493TIP3   OH228893   2.815   0.900  12.406 -0.1280 -0.6628  0.1909
 2493TIP3    H128894   2.857   0.822  12.370 -0.3064 -1.1357  0.9861
 2493TIP3    H228895   2.880   0.938  12.465  0.4505  0.5388 -1.1622
 2494TIP3   OH228896   6.630   4.761  11.439  0.9130 -0.5494 -0.1077
 2494TIP3    H128897   6.658   4.669  11.434 -0.1094 -1.0473  2.1290
 2494TIP3    H228898   6.584   4.768  11.523 -0.8456  1.5261 -1.1312
 2495TIP3   OH228899   0.240   4.259  14.763  0.3809 -0.8214  0.2271
 2495TIP3    H128900   0.315   4.211  14.796  2.4112  2.7584  1.2915
 2495TIP3    H228901   0.247   4.346  14.801 -4.1941 -0.1302  0.1358
 2496TIP3   OH228902   5.599   3.624   3.353  0.2676  0.3798 -0.3891
 2496TIP3    H128903   5.640   3.599   3.435 -2.0192 -0.7656  0.4600
 2496TIP3    H228904   5.506   3.628   3.372 -0.1988  1.6160 -2.5608
 2497TIP3   OH228905   3.938   1.407  12.521 -0.6695  0.1119  0.2469
 2497TIP3    H128906   3.866   1.368  12.472  1.0295 -2.6280 -0.2854
 2497TIP3    H228907   3.958   1.487  12.473 -1.8017 -0.3143 -1.0139
 2498TIP3   OH228908   0.316   6.266   3.850  0.0732 -0.5233 -0.5990
 2498TIP3    H128909   0.311   6.293   3.942  1.1684 -0.8003 -0.4402
 2498TIP3    H228910   0.228   6.236   3.829 -0.4729  0.5501  0.0326
 2499TIP3   OH228911   0.764   4.194  13.480  0.1678  0.0513  0.2138
 2499TIP3    H128912   0.823   4.190  13.404 -0.5487  0.0935 -0.3614
 2499TIP3    H228913   0.804   4.258  13.538  0.4008  0.5034 -0.4271
 2500TIP3   OH228914   5.305   2.544   1.943 -0.0335  0.0734 -0.2992
 2500TIP3    H128915   5.319   2.636   1.963  1.7024 -0.5063  1.4476
 2500TIP3    H228916   5.391   2.503   1.954 -0.6722 -1.7059 -1.4128
 2501TIP3   OH228917   3.221   6.229  14.347 -0.5106  0.0315 -0.1701
 2501TIP3    H128918   3.135   6.248  14.308 -0.6238  0.5184  0.3015
 2501TIP3    H228919   3.270   6.185  14.277 -1.7402 -1.8702  0.0890
 2502TIP3   OH228920   2.095   2.835   4.033 -0.0194 -0.1016  0.4599
 2502TIP3    H128921   2.157   2.833   3.960 -0.4514  0.4168  0.0737
 2502TIP3    H228922   2.054   2.748   4.032 -0.7252  0.2276 -0.5347
 2503TIP3   OH228923   5.348   4.728  16.518  0.2782  0.1349 -0.5013
 2503TIP3    H128924   5.265   4.705  16.474  0.3918 -0.0555 -0.6192
 2503TIP3    H228925   5.395   4.645  16.524  0.9681  0.4315 -1.4992
 2504TIP3   OH228926   2.414   0.626  12.588 -0.4777  0.0135  0.2637
 2504TIP3    H128927   2.470   0.703  12.599  2.1549 -1.8651  1.2833
 2504TIP3    H228928   2.418   0.581  12.672 -1.7077 -1.3738 -0.3691
 2505TIP3   OH228929   5.394   2.419  14.560  0.1871 -0.2975  0.9149
 2505TIP3    H128930   5.346   2.455  14.635  1.5461 -1.6451  2.5100
 2505TIP3    H228931   5.471   2.377  14.599  1.3525 -0.3857 -1.3226
 2506TIP3   OH228932   4.821   4.841  12.356 -0.5413 -0.9363 -0.4017
 2506TIP3    H128933   4.882   4.865  12.426 -0.3530 -1.9161 -0.2126
 2506TIP3    H228934   4.877   4.812  12.284 -0.7640 -0.9213 -0.5847
 2507TIP3   OH228935   2.187   0.506  13.098 -0.6747  0.1001 -0.2188
 2507TIP3    H128936   2.208   0.447  13.025 -1.8484 -1.8216  0.9071
 2507TIP3    H228937   2.092   0.520  13.091 -0.7079  0.3484  0.6147
 2508TIP3   OH228938   4.871   2.244  11.382 -0.1029 -0.3275 -0.2326
 2508TIP3    H128939   4.853   2.259  11.475  0.2798  0.7863 -0.3220
 2508TIP3    H228940   4.966   2.242  11.375 -0.1309 -0.5744 -0.5701
 2509TIP3   OH228941   4.733   6.029  15.286 -0.3905  0.1414 -0.0822
 2509TIP3    H128942   4.768   5.984  15.209 -0.7248 -0.3245  0.0328
 2509TIP3    H228943   4.810   6.045  15.341 -0.0757  0.9397 -0.7389
 2510TIP3   OH228944   5.819   4.535  12.899  0.6109  0.4115 -0.8059
 2510TIP3    H128945   5.839   4.606  12.960 -1.3270  0.7185 -0.4641
 2510TIP3    H228946   5.855   4.457  12.941 -0.8091  0.5944  0.8400
 2511TIP3   OH228947   5.010   2.160   3.901 -0.4316  0.1228  0.0224
 2511TIP3    H128948   5.076   2.097   3.871  0.6461  1.6976 -1.0392
 2511TIP3    H228949   5.028   2.172   3.994 -0.3142 -0.7218  0.1166
 2512TIP3   OH228950   0.372   4.109   2.278 -0.1999  0.0231 -0.5639
 2512TIP3    H128951   0.363   4.038   2.215 -0.2191 -0.9768  0.5203
 2512TIP3    H228952   0.300   4.095   2.340  1.3936 -0.7258  1.2409
 2513TIP3   OH228953   4.651   3.129  12.669 -0.2393 -0.0640 -0.0627
 2513TIP3    H128954   4.558   3.128  12.691  0.0336 -0.9923  1.1588
 2513TIP3    H228955   4.655   3.169  12.582 -1.9121 -1.2070 -0.7202
 2514TIP3   OH228956   1.419   0.641  11.792 -0.0046  0.0243  0.3882
 2514TIP3    H128957   1.398   0.665  11.702 -3.1606  0.0624  0.9924
 2514TIP3    H228958   1.388   0.715  11.844  2.0873  0.1657  1.5308
 2515TIP3   OH228959   4.075   5.855  11.632  0.0206 -0.1707 -0.5725
 2515TIP3    H128960   4.078   5.759  11.636  2.8664 -0.1589 -0.1922
 2515TIP3    H228961   4.167   5.881  11.637 -0.6837  2.5951 -0.8649
 2516TIP3   OH228962   5.512   6.134   1.773  0.1315 -0.3008 -0.9783
 2516TIP3    H128963   5.600   6.158   1.744  1.2532 -1.4978  1.1629
 2516TIP3    H228964   5.515   6.141   1.868 -2.2519  0.0273 -0.8594
 2517TIP3   OH228965   5.709   2.327   3.754 -0.1962 -0.0578 -0.4897
 2517TIP3    H128966   5.776   2.261   3.769 -1.4446 -1.2695  0.0174
 2517TIP3    H228967   5.647   2.314   3.826 -0.3243  1.8849 -0.1955
 2518TIP3   OH228968   0.712   3.653  11.661 -0.1200 -0.1822  0.2868
 2518TIP3    H128969   0.677   3.734  11.623 -0.5017  0.2920  1.5859
 2518TIP3    H228970   0.655   3.584  11.627  0.1814  0.0897 -0.7986
 2519TIP3   OH228971   2.724   3.084   3.220  0.0185  0.2534  0.0684
 2519TIP3    H128972   2.650   3.142   3.203 -0.1883 -0.4397 -1.6424
 2519TIP3    H228973   2.753   3.056   3.133  1.3490 -0.6621  0.7697
 2520TIP3   OH228974   3.789   5.993  11.832 -0.3988 -0.1324 -0.0031
 2520TIP3    H128975   3.795   6.013  11.739  0.2121 -3.0929 -0.6917
 2520TIP3    H228976   3.703   5.951  11.842 -0.1922 -0.4216  0.6363
 2521TIP3   OH228977   4.826   2.790   0.994  0.4574 -0.1492 -0.1262
 2521TIP3    H128978   4.839   2.812   1.086  0.2529  0.3151 -0.2027
 2521TIP3    H228979   4.742   2.745   0.991  0.4945 -0.2206 -0.0748
 2522TIP3   OH228980   2.524   4.500   4.470 -0.0851 -0.2709 -0.4826
 2522TIP3    H128981   2.583   4.570   4.498 -0.5380  0.4003 -1.1852
 2522TIP3    H228982   2.578   4.421   4.474  0.8638  0.3253 -1.0550
 2523TIP3   OH228983   2.771   0.528  12.434 -0.6279 -0.0078 -0.0427
 2523TIP3    H128984   2.855   0.570  12.450 -0.4906 -0.7194  1.2742
 2523TIP3    H228985   2.751   0.482  12.516 -2.2213  0.0112 -0.3825
 2524TIP3   OH228986   5.719   1.621   4.656  0.3079 -0.0057  0.0335
 2524TIP3    H128987   5.791   1.559   4.669 -0.3938 -0.9001 -0.1665
 2524TIP3    H228988   5.710   1.666   4.740  1.3760  0.4275 -0.0768
 2525TIP3   OH228989   3.964   4.874   1.981 -0.4529 -0.1584  0.1047
 2525TIP3    H128990   4.001   4.786   1.979  0.7894  0.3486 -0.5356
 2525TIP3    H228991   3.870   4.861   1.967 -0.0781 -1.2794 -1.7013
 2526TIP3   OH228992   5.306   0.660  12.844 -0.1198  0.0188 -0.7180
 2526TIP3    H128993   5.334   0.583  12.893 -2.1672 -0.2255  0.1371
 2526TIP3    H228994   5.333   0.643  12.754  0.7159 -1.0341 -0.2813
 2527TIP3   OH228995   1.301   6.611  15.479 -0.1922  0.0755  0.5409
 2527TIP3    H128996   1.394   6.615  15.501 -0.0738  0.2601  0.0221
 2527TIP3    H228997   1.293   6.659  15.396 -0.3651 -1.8255 -0.6201
 2528TIP3   OH228998   1.981   3.485  13.813  0.6244 -0.9315  0.0683
 2528TIP3    H128999   2.068   3.506  13.846  0.4323 -0.8253  0.5186
 2528TIP3    H229000   1.974   3.390  13.825  0.7235 -0.9591 -0.0845
 2529TIP3   OH229001   1.621   1.904  15.150  0.3876 -0.0926  0.2486
 2529TIP3    H129002   1.603   1.923  15.242 -0.8645 -2.4529  0.5577
 2529TIP3    H229003   1.539   1.870  15.116  0.8534  0.6623 -1.7526
 2530TIP3   OH229004   5.752   3.616  13.989 -0.0423 -0.1898  0.2202
 2530TIP3    H129005   5.723   3.536  14.033  1.7259 -1.1567 -0.2495
 2530TIP3    H229006   5.684   3.681  14.008 -1.1861 -1.6147  1.1781
 2531TIP3   OH229007   2.894   4.857   2.999 -0.1026 -0.0166  0.3109
 2531TIP3    H129008   2.866   4.805   3.074 -0.6098  0.2971  0.3408
 2531TIP3    H229009   2.903   4.946   3.033 -0.8153  0.2201 -0.1133
 2532TIP3   OH229010   2.497   4.696   3.624  0.3285 -0.1399 -0.0612
 2532TIP3    H129011   2.421   4.654   3.663  0.7043 -2.5334 -1.6712
 2532TIP3    H229012   2.460   4.760   3.563 -0.5648 -2.3343 -1.9781
 2533TIP3   OH229013   1.345   1.020   0.316  0.0539 -0.0431  0.4169
 2533TIP3    H129014   1.295   0.948   0.354 -1.0099  0.3514 -0.1763
 2533TIP3    H229015   1.363   0.992   0.226  0.4637  0.0339  0.4729
 2534TIP3   OH229016   6.485   3.151  17.109 -0.6810  0.5820 -0.5716
 2534TIP3    H129017   6.407   3.113  17.069 -0.2828  0.3908 -1.1721
 2534TIP3    H229018   6.551   3.150  17.040 -0.0361  0.4123  0.0341
 2535TIP3   OH229019   4.100   2.833   0.482  0.1405 -0.1548 -0.0558
 2535TIP3    H129020   4.007   2.854   0.487  0.1580 -0.1793  0.3416
 2535TIP3    H229021   4.109   2.786   0.399  0.4060  2.9743 -1.9564
 2536TIP3   OH229022   4.624   1.469  13.718  0.1754 -0.6262 -0.4794
 2536TIP3    H129023   4.635   1.434  13.629 -2.0746 -0.7010 -0.7838
 2536TIP3    H229024   4.606   1.392  13.772  0.0633 -0.4379 -0.2448
 2537TIP3   OH229025   5.430   5.750  17.340 -0.1637 -0.0752  0.2967
 2537TIP3    H129026   5.439   5.661  17.376 -0.5273 -0.1109  0.3024
 2537TIP3    H229027   5.381   5.738  17.259 -1.0164  0.2191  0.7541
 2538TIP3   OH229028   4.168   4.456  12.030  0.5891 -0.5135 -0.6429
 2538TIP3    H129029   4.140   4.535  12.075  1.3239 -0.8500  0.4730
 2538TIP3    H229030   4.261   4.470  12.013  1.1452 -1.7575  1.0705
 2539TIP3   OH229031   1.521   1.565  14.366  0.0537  0.1929 -0.0558
 2539TIP3    H129032   1.594   1.608  14.321  1.3148 -0.9136  0.8603
 2539TIP3    H229033   1.450   1.629  14.361  0.1911  0.2832 -3.2851
 2540TIP3   OH229034   5.596   3.376  11.621  0.0222  0.1320  0.1009
 2540TIP3    H129035   5.559   3.461  11.600 -2.0027 -1.0734 -1.6118
 2540TIP3    H229036   5.607   3.333  11.536  2.3465 -0.8321  0.8045
 2541TIP3   OH229037   0.063   6.696  16.472 -0.1256 -0.1427 -0.1146
 2541TIP3    H129038   0.119   6.618  16.463 -0.8295 -0.5226 -1.5422
 2541TIP3    H229039   0.124   6.768  16.487  0.5631 -0.8924  0.8700
 2542TIP3   OH229040   6.185   5.728   0.719 -0.5459  0.3611  0.2207
 2542TIP3    H129041   6.105   5.688   0.754 -1.5659  1.1986 -1.0733
 2542TIP3    H229042   6.244   5.655   0.702 -0.6133 -0.1910  2.1486
 2543TIP3   OH229043   5.764   2.198   4.153  0.3609 -0.3074  0.3388
 2543TIP3    H129044   5.693   2.211   4.217 -0.6890  0.7089 -0.9626
 2543TIP3    H229045   5.816   2.126   4.189 -0.0179  0.4045  2.4602
 2544TIP3   OH229046   6.016   0.723   5.170 -0.0410 -0.0991  0.6127
 2544TIP3    H129047   6.045   0.784   5.238 -2.3508 -0.5596  2.1348
 2544TIP3    H229048   5.957   0.774   5.115 -1.4628 -0.7172  1.5029
 2545TIP3   OH229049   6.248   0.591  13.963 -0.7100 -0.5051  0.6073
 2545TIP3    H129050   6.217   0.605  14.053 -0.6472 -1.1772  0.7392
 2545TIP3    H229051   6.168   0.588  13.910 -0.8757 -1.9871  0.9119
 2546TIP3   OH229052   4.055   3.641   5.541  0.0641  0.2345  0.0260
 2546TIP3    H129053   4.150   3.644   5.536  0.2924 -2.9584  0.0299
 2546TIP3    H229054   4.028   3.612   5.453 -0.7224 -0.4933  0.4895
 2547TIP3   OH229055   5.570   5.011   0.302 -0.3577  0.6036 -0.1726
 2547TIP3    H129056   5.615   4.931   0.275  0.0365  0.5136  0.6930
 2547TIP3    H229057   5.529   4.989   0.386  2.0753  2.0135  1.5515
 2548TIP3   OH229058   4.666   1.947  15.307 -0.6320 -0.4834  0.4210
 2548TIP3    H129059   4.605   2.001  15.357 -0.5810 -0.5689  0.5772
 2548TIP3    H229060   4.613   1.908  15.238 -0.8583 -0.9553  0.8603
 2549TIP3   OH229061   0.093   0.987   2.017  0.4691 -1.0122  0.3830
 2549TIP3    H129062   0.124   0.998   1.927  0.3118 -0.4095  0.3935
 2549TIP3    H229063   0.076   1.077   2.047  0.5754 -1.2041  1.0321
 2550TIP3   OH229064   0.659   1.269  12.242  0.2080  0.0284 -0.4275
 2550TIP3    H129065   0.597   1.261  12.169  0.6344  2.0565 -1.0610
 2550TIP3    H229066   0.743   1.290  12.200  0.4260  1.4180  0.6474
 2551TIP3   OH229067   3.169   6.062  12.430  0.3999 -0.2876 -0.6199
 2551TIP3    H129068   3.080   6.040  12.403  0.1291 -0.3105  0.2412
 2551TIP3    H229069   3.162   6.149  12.468  0.5876 -0.5755  0.1110
 2552TIP3   OH229070   1.655   4.679   4.984  0.2497  0.4772 -0.1716
 2552TIP3    H129071   1.564   4.652   4.972  0.4371 -0.8470  1.1273
 2552TIP3    H229072   1.703   4.632   4.916 -0.0146  1.1612 -0.8455
 2553TIP3   OH229073   0.873   5.441   6.428  0.0764  0.3217 -0.0308
 2553TIP3    H129074   0.839   5.353   6.412 -0.7391  0.6786 -0.3010
 2553TIP3    H229075   0.875   5.481   6.341  0.6363  0.5150  0.0634
 2554TIP3   OH229076   3.377   2.178  16.714 -0.3721 -0.2823 -0.2385
 2554TIP3    H129077   3.427   2.160  16.793  0.2571 -0.9301 -0.7663
 2554TIP3    H229078   3.286   2.166  16.739 -0.1041 -2.0788  0.0110
 2555TIP3   OH229079   5.815   5.400   3.533 -0.3581 -0.3110  0.3335
 2555TIP3    H129080   5.906   5.427   3.523  0.5174 -3.2827 -0.6624
 2555TIP3    H229081   5.801   5.400   3.627 -0.2380  2.6761  0.4396
 2556TIP3   OH229082   1.229   6.540  15.806  0.2228  0.0722 -0.2385
 2556TIP3    H129083   1.240   6.530  15.901  0.4668 -0.1351 -0.2858
 2556TIP3    H229084   1.319   6.547  15.773  0.4947 -4.2460 -0.9363
 2557TIP3   OH229085   6.752   1.563   0.246  0.2864  0.4143  0.0224
 2557TIP3    H129086   6.820   1.541   0.182  1.3943  1.0129  0.9563
 2557TIP3    H229087   6.715   1.645   0.214 -1.6807 -1.0896 -1.7653
 2558TIP3   OH229088   1.250   2.072   0.184 -0.1167 -0.5586 -0.0056
 2558TIP3    H129089   1.288   2.145   0.233  3.9113 -2.6126  0.3716
 2558TIP3    H229090   1.268   2.091   0.093  0.7330 -0.9358  0.0763
 2559TIP3   OH229091   6.423   0.227  11.906  0.4209  0.3724  0.2215
 2559TIP3    H129092   6.401   0.317  11.882  2.2826  0.8615  0.1671
 2559TIP3    H229093   6.377   0.173  11.842 -1.2193  1.2193  0.6216
 2560TIP3   OH229094   2.459   3.374   5.003  0.4402 -0.1837 -0.2245
 2560TIP3    H129095   2.394   3.310   4.976  0.8049  0.1797 -2.1040
 2560TIP3    H229096   2.520   3.325   5.058 -0.6353 -0.8316  0.4306
 2561TIP3   OH229097   4.901   2.994   6.014  0.5806 -0.0431  0.5705
 2561TIP3    H129098   4.934   2.927   6.075 -1.4739  0.2399  2.0930
 2561TIP3    H229099   4.825   3.031   6.058  0.3522  1.7840 -1.2259
 2562TIP3   OH229100   6.052   4.419   1.925  0.4582  0.0181 -0.3392
 2562TIP3    H129101   5.962   4.391   1.911 -0.2614  1.1158  1.6959
 2562TIP3    H229102   6.091   4.348   1.977  0.5528 -0.1201 -0.5975
 2563TIP3   OH229103   0.297   0.145   3.248  0.2453  0.5761 -0.8749
 2563TIP3    H129104   0.279   0.236   3.270  0.3942  0.0727  1.6220
 2563TIP3    H229105   0.211   0.108   3.227 -0.5740  0.2965  2.4322
 2564TIP3   OH229106   3.336   5.690  15.069 -0.4472 -0.3956 -0.1424
 2564TIP3    H129107   3.301   5.752  15.006  1.1410  0.8051  0.1085
 2564TIP3    H229108   3.260   5.639  15.097 -1.6904  1.0248 -0.8048
 2565TIP3   OH229109   2.040   6.671   4.793 -0.0904  0.8039 -0.3810
 2565TIP3    H129110   2.118   6.645   4.743 -0.4463 -0.6461 -0.2152
 2565TIP3    H229111   2.067   6.666   4.884  0.4109  2.9886 -0.3413
 2566TIP3   OH229112   2.346   1.600  14.749 -0.4322 -0.3741  0.4651
 2566TIP3    H129113   2.303   1.613  14.833 -0.5635  0.5322  0.2670
 2566TIP3    H229114   2.276   1.569  14.691 -0.4047 -0.7168  0.6124
 2567TIP3   OH229115   4.571   5.627   2.499 -0.5860  0.5723 -0.5458
 2567TIP3    H129116   4.576   5.533   2.481 -0.5638  0.5116 -0.2407
 2567TIP3    H229117   4.661   5.657   2.494 -0.7969  0.9822 -2.6718
 2568TIP3   OH229118   6.741   0.903  17.402  0.1814  0.4294 -0.2260
 2568TIP3    H129119   6.768   0.961  17.330  0.0148  0.9706  0.1411
 2568TIP3    H229120   6.691   0.960  17.461  0.1978 -0.0421  0.2473
 2569TIP3   OH229121   6.452   3.776  16.207  0.2670  0.3089  0.1171
 2569TIP3    H129122   6.456   3.832  16.284  1.1871  0.6538 -0.1605
 2569TIP3    H229123   6.376   3.806  16.158  0.3025  0.7945  0.3596
 2570TIP3   OH229124   1.403   6.281  16.175  0.2106 -0.3530 -0.4162
 2570TIP3    H129125   1.390   6.269  16.269 -2.5204  0.0322 -0.6583
 2570TIP3    H229126   1.399   6.192  16.139  0.6544 -0.4464 -0.2431
 2571TIP3   OH229127   1.998   5.792   2.901 -0.2164  0.4036  0.6709
 2571TIP3    H129128   1.967   5.837   2.980  0.9934  1.9612  0.3088
 2571TIP3    H229129   2.078   5.748   2.929 -0.2696  0.2076  0.5165
 2572TIP3   OH229130   2.730   1.542   1.197 -0.0922  0.0777 -0.3253
 2572TIP3    H129131   2.747   1.449   1.213 -0.5788  0.2289  1.2511
 2572TIP3    H229132   2.676   1.569   1.271  2.4440  2.3209  0.8678
 2573TIP3   OH229133   2.541   1.032   4.099 -0.4485  0.0577 -0.4908
 2573TIP3    H129134   2.482   1.035   4.023  0.6545  0.5733 -1.3476
 2573TIP3    H229135   2.594   1.111   4.092 -0.4577  0.2196  0.9440
 2574TIP3   OH229136   5.612   2.041  16.582 -0.6022 -0.6190  0.0248
 2574TIP3    H129137   5.653   2.124  16.559 -0.2071 -0.9356 -0.4322
 2574TIP3    H229138   5.592   2.049  16.675 -3.0486  1.0560 -0.5500
 2575TIP3   OH229139   3.916   6.467   2.112  0.2887 -0.1691  0.4234
 2575TIP3    H129140   3.934   6.484   2.205 -1.4969  1.9498  0.4659
 2575TIP3    H229141   3.995   6.497   2.067  0.4506  0.5489  1.1496
 2576TIP3   OH229142   0.674   0.792   4.282 -0.8412  0.1385 -0.2121
 2576TIP3    H129143   0.718   0.708   4.295  1.0701  1.3813  2.4089
 2576TIP3    H229144   0.594   0.786   4.334  1.4256  1.2493  3.8643
 2577TIP3   OH229145   4.722   2.441   5.819  0.0956  0.2925  0.4717
 2577TIP3    H129146   4.654   2.440   5.886 -0.6579  2.0191 -0.2204
 2577TIP3    H229147   4.779   2.368   5.842 -1.1837 -0.3107  1.8971
 2578TIP3   OH229148   1.905   0.561  13.475  0.3815  0.0751 -0.2503
 2578TIP3    H129149   1.949   0.483  13.509  0.5805  1.1158  2.1114
 2578TIP3    H229150   1.974   0.610  13.430  0.3440 -0.8776 -1.3833
 2579TIP3   OH229151   1.810   0.280  13.550 -0.2484 -0.2797  0.3201
 2579TIP3    H129152   1.716   0.271  13.559 -0.5739 -0.1626 -2.1310
 2579TIP3    H229153   1.838   0.198  13.508  0.7418 -0.3177  1.0253
 2580TIP3   OH229154   2.224   0.733  13.625  0.1363  0.4498  0.3591
 2580TIP3    H129155   2.184   0.811  13.664  0.1654  0.5261  0.2358
 2580TIP3    H229156   2.214   0.665  13.692 -0.5875  0.3551  0.1582
 2581TIP3   OH229157   5.739   0.336   4.925 -0.0038 -0.1414  0.3856
 2581TIP3    H129158   5.723   0.430   4.937 -0.3916  0.1732 -1.9780
 2581TIP3    H229159   5.830   0.332   4.895 -0.0899 -0.4847  0.1657
 2582TIP3   OH229160   0.794   3.936   6.733 -0.0661 -0.1116 -0.1855
 2582TIP3    H129161   0.822   4.017   6.777 -2.2203  0.9684 -0.6389
 2582TIP3    H229162   0.739   3.966   6.660 -0.1180 -1.9781 -0.9727
 2583TIP3   OH229163   3.212   5.610   5.754  0.3550  0.6522 -0.0737
 2583TIP3    H129164   3.184   5.580   5.667  0.0703  1.3349 -0.2315
 2583TIP3    H229165   3.306   5.625   5.745  0.0522  2.4750 -0.8390
 2584TIP3   OH229166   1.264   4.192   1.976  0.2432 -0.3170  0.3759
 2584TIP3    H129167   1.244   4.265   1.918  1.1170 -0.6209 -0.3349
 2584TIP3    H229168   1.288   4.121   1.918 -0.8395 -1.2706  1.0559
 2585TIP3   OH229169   4.372   4.763   0.702 -0.4432  0.5737 -0.6977
 2585TIP3    H129170   4.353   4.819   0.627 -2.4116 -1.9708 -2.2887
 2585TIP3    H229171   4.297   4.775   0.760  0.4713  1.5829  0.3276
 2586TIP3   OH229172   5.080   2.831   3.467  0.5430 -0.4333  0.2463
 2586TIP3    H129173   5.142   2.759   3.480  0.4319 -0.5329  0.2255
 2586TIP3    H229174   5.053   2.856   3.555 -0.3312 -1.2137  0.2198
 2587TIP3   OH229175   2.622   6.520  11.509  0.2074 -0.4693  0.5688
 2587TIP3    H129176   2.657   6.515  11.420 -0.3277 -1.7401  0.4032
 2587TIP3    H229177   2.694   6.491  11.565  0.2975 -0.4307  0.4739
 2588TIP3   OH229178   3.598   6.740  12.496  0.0908  0.4860 -0.7785
 2588TIP3    H129179   3.511   6.707  12.516 -0.5688  1.6265 -1.6937
 2588TIP3    H229180   3.656   6.666  12.514 -1.2527 -0.9043 -1.9700
 2589TIP3   OH229181   2.903   2.316  17.159  0.4011  0.6073  0.0187
 2589TIP3    H129182   2.927   2.401  17.121 -0.5642  1.0425  0.3621
 2589TIP3    H229183   2.841   2.337  17.228  0.5809 -0.3447  0.4895
 2590TIP3   OH229184   4.843   4.718  12.678 -0.0278 -0.1286  0.2366
 2590TIP3    H129185   4.814   4.801  12.716  0.1498  0.2185 -0.3745
 2590TIP3    H229186   4.820   4.652  12.744  0.0798  0.4328  0.8504
 2591TIP3   OH229187   6.693   2.378   3.448  0.2474 -0.0496  0.3620
 2591TIP3    H129188   6.689   2.463   3.493  1.1281 -0.6273  1.5690
 2591TIP3    H229189   6.767   2.333   3.488 -1.1194 -2.0032  0.8121
 2592TIP3   OH229190   4.240   0.722   5.557 -0.5263  0.3053  0.4558
 2592TIP3    H129191   4.307   0.784   5.584 -1.0658  0.2732  1.9427
 2592TIP3    H229192   4.158   0.772   5.558 -0.6252  0.1946 -0.7742
 2593TIP3   OH229193   6.608   4.051   2.671  0.2057 -0.9916 -0.0938
 2593TIP3    H129194   6.620   4.043   2.577  0.7978 -0.8256 -0.0361
 2593TIP3    H229195   6.612   3.961   2.704  2.0674 -0.8946  0.0059
 2594TIP3   OH229196   1.571   2.111   2.424  0.0374  0.0686 -0.3086
 2594TIP3    H129197   1.580   2.058   2.345 -2.7346  1.4908 -1.7348
 2594TIP3    H229198   1.661   2.130   2.450  1.0626 -1.6391 -2.2731
 2595TIP3   OH229199   2.669   4.572   3.980  0.4559  0.0589 -0.4964
 2595TIP3    H129200   2.606   4.509   4.014 -1.1170  0.7218 -2.0502
 2595TIP3    H229201   2.661   4.648   4.038  1.4093 -0.6317  0.5856
 2596TIP3   OH229202   5.121   4.301  13.560 -0.2530 -0.3042 -0.1778
 2596TIP3    H129203   5.109   4.219  13.512  0.6635 -0.1635 -0.6868
 2596TIP3    H229204   5.215   4.304  13.578 -0.2319  0.7541 -0.3906
 2597TIP3   OH229205   4.255   6.640  13.473 -0.0069 -0.1690  0.4482
 2597TIP3    H129206   4.326   6.580  13.449  0.4314  0.3911  0.2994
 2597TIP3    H229207   4.274   6.720  13.424  0.2650  0.6177  1.7707
 2598TIP3   OH229208   1.702   5.350  12.710  0.6376 -0.2517  0.0204
 2598TIP3    H129209   1.623   5.332  12.659  1.3237  0.1783 -1.2332
 2598TIP3    H229210   1.677   5.332  12.800 -0.1770 -2.5335 -0.5841
 2599TIP3   OH229211   0.821   3.090  13.446 -0.0109 -0.2927 -0.3820
 2599TIP3    H129212   0.829   3.149  13.521  0.1295  0.0120 -0.6321
 2599TIP3    H229213   0.735   3.110  13.409  0.2420  0.1113 -0.7606
 2600TIP3   OH229214   3.574   1.066   3.572  0.0224 -0.1123  0.4039
 2600TIP3    H129215   3.529   1.146   3.546  0.5085 -0.1439 -0.5479
 2600TIP3    H229216   3.659   1.095   3.605  0.0077 -0.1992  0.5199
 2601TIP3   OH229217   3.310   4.575   5.624 -0.1783 -0.2961 -0.3897
 2601TIP3    H129218   3.306   4.504   5.688  0.2834 -1.0833 -1.2047
 2601TIP3    H229219   3.325   4.531   5.541 -2.1982  0.5896 -1.2844
 2602TIP3   OH229220   4.759   0.968   6.164  0.1282  0.6356  0.2181
 2602TIP3    H129221   4.783   1.049   6.209  1.4364  0.3970  0.0055
 2602TIP3    H229222   4.830   0.954   6.101 -0.8167  0.0906 -0.7671
 2603TIP3   OH229223   5.821   1.016   0.264 -0.4578  0.3767  0.4712
 2603TIP3    H129224   5.873   1.091   0.235  0.2800 -0.6988 -1.0900
 2603TIP3    H229225   5.867   0.984   0.342  0.2281  0.5084  0.1305
 2604TIP3   OH229226   3.491   1.437   2.668  0.1172  0.0719 -0.6159
 2604TIP3    H129227   3.494   1.532   2.662 -1.6328  0.1057 -1.6063
 2604TIP3    H229228   3.583   1.410   2.674  0.5970  1.8538  0.7700
 2605TIP3   OH229229   3.723   2.106  16.023 -0.0874 -0.3707 -0.7051
 2605TIP3    H129230   3.654   2.061  15.974 -0.1392 -0.8795 -0.1873
 2605TIP3    H229231   3.802   2.055  16.005  0.0713 -0.0391 -0.9588
 2606TIP3   OH229232   0.761   0.893   0.679  0.4149  0.3226  0.5453
 2606TIP3    H129233   0.734   0.898   0.771 -0.1104  1.2767  0.3466
 2606TIP3    H229234   0.726   0.809   0.649  1.2515 -0.3603  1.4111
 2607TIP3   OH229235   4.815   2.312  14.671  0.3790  0.4632  0.2591
 2607TIP3    H129236   4.742   2.272  14.625 -0.4056  0.3155  1.5867
 2607TIP3    H229237   4.851   2.242  14.726  0.3680  0.9902  0.9580
 2608TIP3   OH229238   4.753   2.893  12.546 -0.0582  0.6899 -0.2686
 2608TIP3    H129239   4.704   2.941  12.479 -2.2995 -0.6339  0.3193
 2608TIP3    H229240   4.751   2.949  12.623  2.5562  2.2346 -1.2124
 2609TIP3   OH229241   3.118   4.173  12.060  0.3738  0.1234  0.0775
 2609TIP3    H129242   3.177   4.199  12.130 -0.0330  0.0479  0.4534
 2609TIP3    H229243   3.154   4.091  12.027  1.1449  0.6766 -0.4993
 2610TIP3   OH229244   5.247   0.216  15.719 -0.3620 -0.5593 -0.9582
 2610TIP3    H129245   5.318   0.152  15.708  0.3135  0.0316 -0.1916
 2610TIP3    H229246   5.289   0.301  15.703 -0.5996 -0.1115  0.6309
 2611TIP3   OH229247   3.986   2.798  12.969  0.5707  0.3679 -0.4158
 2611TIP3    H129248   4.043   2.810  12.893 -0.6656  1.2442 -1.2438
 2611TIP3    H229249   3.933   2.721  12.947  0.1632  0.6642 -0.5028
 2612TIP3   OH229250   6.190   1.168   3.078 -0.4571  0.1285 -0.7963
 2612TIP3    H129251   6.261   1.124   3.125  0.1749  2.4695  0.6409
 2612TIP3    H229252   6.110   1.129   3.114  0.0645 -0.6080 -0.4018
 2613TIP3   OH229253   2.433   0.051  16.511 -0.2844 -0.0184  0.2314
 2613TIP3    H129254   2.470   0.109  16.445  0.8919 -0.1220  0.7765
 2613TIP3    H229255   2.392  -0.020  16.462 -0.7789  0.7010 -0.4142
 2614TIP3   OH229256   0.647   1.746   5.252  0.1146 -0.4913  0.3120
 2614TIP3    H129257   0.722   1.773   5.305 -0.1108 -1.0334  0.9289
 2614TIP3    H229258   0.673   1.764   5.162  0.8147 -0.2703  0.5522
 2615TIP3   OH229259   3.173   1.616   5.371  0.1363 -0.2080 -0.3581
 2615TIP3    H129260   3.230   1.687   5.342  0.2156  0.1606  0.6442
 2615TIP3    H229261   3.121   1.593   5.294 -0.4595  1.4899 -0.5103
 2616TIP3   OH229262   4.400   3.925   2.374 -0.4228 -0.7697 -0.2172
 2616TIP3    H129263   4.414   3.852   2.313 -0.8666  0.4123 -1.8004
 2616TIP3    H229264   4.359   3.884   2.450  1.8781 -2.5998  0.1425
 2617TIP3   OH229265   6.672   5.631  15.582 -0.2219  0.0131  0.2053
 2617TIP3    H129266   6.661   5.550  15.532  2.0072 -0.1914 -0.0918
 2617TIP3    H229267   6.710   5.602  15.666  0.7857  0.7170  0.0133
 2618TIP3   OH229268   0.223   5.773   2.785  0.3795 -0.3840  0.0164
 2618TIP3    H129269   0.228   5.835   2.712  1.5150 -2.3930 -1.7227
 2618TIP3    H229270   0.130   5.769   2.807  0.0579  0.5198 -1.0741
 2619TIP3   OH229271   5.016   1.013  13.207 -0.1116 -1.3461 -0.1053
 2619TIP3    H129272   5.044   1.019  13.115  0.3012  1.6716  0.1001
 2619TIP3    H229273   4.921   1.012  13.204 -0.1038 -0.9366 -0.5686
 2620TIP3   OH229274   4.491   4.999  12.018 -0.1648  0.2601  0.3233
 2620TIP3    H129275   4.456   5.060  11.953  0.2399  0.7161  0.5249
 2620TIP3    H229276   4.578   4.975  11.985 -1.4728 -2.6722 -1.3782
 2621TIP3   OH229277   1.964   5.558   5.449  0.3119 -0.4652  0.0008
 2621TIP3    H129278   1.899   5.491   5.470 -2.2796  1.4708 -1.2625
 2621TIP3    H229279   1.962   5.618   5.523  1.5215 -0.9499  0.4490
 2622TIP3   OH229280   5.799   4.052  12.370  0.6568  0.3994  0.1196
 2622TIP3    H129281   5.773   3.960  12.374 -0.0549  0.5529 -0.7471
 2622TIP3    H229282   5.723   4.100  12.402  0.5059  0.7583 -0.7478
 2623TIP3   OH229283   3.128   1.566  12.567 -0.3495 -0.2588  0.3642
 2623TIP3    H129284   3.204   1.577  12.509 -0.9817  0.2665 -0.3837
 2623TIP3    H229285   3.166   1.540  12.651  0.6866  0.3539  0.1071
 2624TIP3   OH229286   3.730   4.980   4.312  0.3789  0.1868 -0.1819
 2624TIP3    H129287   3.755   4.888   4.322 -0.3623 -0.1158 -0.9888
 2624TIP3    H229288   3.645   4.987   4.355  0.2245  0.3987 -0.5235
 2625TIP3   OH229289   0.437   1.808  13.184  0.5639 -0.1491 -0.6569
 2625TIP3    H129290   0.481   1.771  13.261  0.6337  0.8314 -0.2076
 2625TIP3    H229291   0.508   1.826  13.123  0.6788  0.4489 -0.3535
 2626TIP3   OH229292   4.531   5.136  13.374  0.1642  0.3385 -0.0227
 2626TIP3    H129293   4.444   5.120  13.410 -0.8171  1.1381 -1.9327
 2626TIP3    H229294   4.591   5.113  13.446 -1.5281 -1.5021  0.8871
 2627TIP3   OH229295   0.375   2.500  15.498 -0.5744  0.0384  0.0479
 2627TIP3    H129296   0.310   2.502  15.428 -2.1353 -1.6744  1.3501
 2627TIP3    H229297   0.425   2.420  15.482  0.9116  1.0350 -0.5981
 2628TIP3   OH229298   3.720   2.760  15.337  0.4487  0.3278 -0.0779
 2628TIP3    H129299   3.787   2.711  15.289 -0.2988 -1.2176  0.3994
 2628TIP3    H229300   3.674   2.694  15.388 -0.5054  1.5694  0.7204
 2629TIP3   OH229301   1.274   4.238   1.489  0.2007 -0.2594 -0.1258
 2629TIP3    H129302   1.367   4.254   1.474  0.1011 -0.2430 -0.7563
 2629TIP3    H229303   1.268   4.142   1.495 -0.1432 -0.5208 -3.1410
 2630TIP3   OH229304   2.381   2.824   3.410  0.2393 -0.3241 -0.8692
 2630TIP3    H129305   2.333   2.876   3.345  0.7208  0.5160 -0.5736
 2630TIP3    H229306   2.356   2.862   3.494 -0.5474 -1.5404 -0.5309
 2631TIP3   OH229307   1.241   2.376   2.702 -0.1913 -0.0934 -0.1770
 2631TIP3    H129308   1.316   2.341   2.653 -1.0463  0.0424 -1.6309
 2631TIP3    H229309   1.264   2.467   2.718  0.3859 -0.3087  0.2896
 2632TIP3   OH229310   3.558   4.062   1.839 -0.0137 -0.5831 -0.1484
 2632TIP3    H129311   3.488   4.035   1.780 -1.1111  0.3324  0.6738
 2632TIP3    H229312   3.521   4.137   1.886  0.8329 -1.2479  1.6591
 2633TIP3   OH229313   6.440   4.701  14.547  0.3009  0.0707  0.0331
 2633TIP3    H129314   6.381   4.681  14.475 -0.6385 -0.5890  0.9685
 2633TIP3    H229315   6.428   4.629  14.610  2.2768 -0.2328  0.1470
 2634TIP3   OH229316   0.280   6.129  14.554 -0.2350  0.3490  0.3277
 2634TIP3    H129317   0.263   6.222  14.537 -1.1267  0.1685  0.1813
 2634TIP3    H229318   0.193   6.090  14.562  0.1174 -0.6202 -0.3931
 2635TIP3   OH229319   4.829   2.105  13.029  0.1768 -0.3701  0.3255
 2635TIP3    H129320   4.772   2.031  13.013 -0.2550 -0.4431  1.9664
 2635TIP3    H229321   4.772   2.171  13.069  0.6358  0.7035 -0.7477
 2636TIP3   OH229322   2.361   0.264   3.534 -0.4247 -0.4161 -0.0309
 2636TIP3    H129323   2.436   0.320   3.512 -1.3710  1.6015  1.5388
 2636TIP3    H229324   2.327   0.236   3.449  1.0007  0.1472 -0.8246
 2637TIP3   OH229325   5.532   5.529   3.332  0.1095 -0.6573 -0.3461
 2637TIP3    H129326   5.446   5.505   3.364  0.4369 -2.9043 -0.9209
 2637TIP3    H229327   5.552   5.463   3.265  1.8949  0.3361 -0.8838
 2638TIP3   OH229328   1.058   4.210   1.036 -0.0527  0.1511 -0.3352
 2638TIP3    H129329   1.082   4.194   0.944 -2.0922  1.1991 -1.1365
 2638TIP3    H229330   1.112   4.150   1.086  1.6234  0.0176 -2.1737
 2639TIP3   OH229331   1.300   5.479   1.121  0.2350 -0.4983 -0.0234
 2639TIP3    H129332   1.250   5.543   1.172  1.5411  0.8925 -0.4044
 2639TIP3    H229333   1.367   5.532   1.076  2.2113 -2.3056  0.6656
 2640TIP3   OH229334   3.105   3.265   4.858 -0.1929  0.2882 -0.1467
 2640TIP3    H129335   3.171   3.327   4.889 -1.2835  0.9491  0.9596
 2640TIP3    H229336   3.141   3.230   4.777  0.4768  2.3668 -0.8131
 2641TIP3   OH229337   5.380   2.973  13.857 -0.2683 -0.1529  0.0830
 2641TIP3    H129338   5.308   3.010  13.907 -0.2370  0.6646 -0.4585
 2641TIP3    H229339   5.412   3.045  13.803  0.6414 -0.6304 -0.0470
 2642TIP3   OH229340   6.384   4.678   0.210  0.3857 -0.5132  0.1733
 2642TIP3    H129341   6.410   4.759   0.254 -1.2763  0.4288 -0.4778
 2642TIP3    H229342   6.335   4.707   0.133 -1.8742 -2.1243  0.9021
 2643TIP3   OH229343   0.380   0.209  16.002 -0.4027  0.6436  0.4325
 2643TIP3    H129344   0.435   0.172  15.933 -1.5655 -0.0585 -0.1499
 2643TIP3    H229345   0.313   0.259  15.956 -0.9673  0.4961  1.0700
 2644TIP3   OH229346   5.040   3.048   5.005 -0.0223  0.2389  0.2541
 2644TIP3    H129347   5.049   3.004   5.089 -1.7372  0.3851  0.5512
 2644TIP3    H229348   4.966   3.003   4.962  1.3600 -0.4268 -1.5665
 2645TIP3   OH229349   2.656   3.070  16.959  0.1256  0.0540 -0.5784
 2645TIP3    H129350   2.631   3.112  17.042  1.9916 -0.2381  0.1669
 2645TIP3    H229351   2.636   3.136  16.893 -2.4498 -0.1047 -0.0884
 2646TIP3   OH229352   4.749   5.853  15.665 -0.2339 -0.0444 -0.3066
 2646TIP3    H129353   4.780   5.897  15.586  0.9097  0.7028  0.5247
 2646TIP3    H229354   4.783   5.906  15.737 -1.8752 -0.2718  0.7026
 2647TIP3   OH229355   2.686   2.107   0.909 -0.2264 -0.8703  1.0369
 2647TIP3    H129356   2.741   2.130   0.835 -0.3231 -1.8299  0.6523
 2647TIP3    H229357   2.746   2.103   0.984 -0.5188  2.9321  1.6947
 2648TIP3   OH229358   5.298   6.371  11.103 -0.4954 -0.2789 -0.9324
 2648TIP3    H129359   5.256   6.324  11.176 -0.1155 -1.9266 -1.7107
 2648TIP3    H229360   5.389   6.341  11.105 -0.0728  0.9731 -1.0580
 2649TIP3   OH229361   3.068   2.789  14.404  0.4180 -0.0564 -0.3404
 2649TIP3    H129362   3.115   2.726  14.458 -0.3101  0.0055  0.3858
 2649TIP3    H229363   3.111   2.873  14.422  0.4110 -0.0966 -0.1341
 2650TIP3   OH229364   3.591   4.250   6.257  0.2121 -0.1062  0.0750
 2650TIP3    H129365   3.675   4.210   6.234  0.2402  0.4085 -0.7277
 2650TIP3    H229366   3.566   4.206   6.339  0.8685 -0.8311 -0.1015
 2651TIP3   OH229367   2.861   2.102   5.412  0.8276  0.2259  0.1224
 2651TIP3    H129368   2.786   2.058   5.371  1.8701 -1.4876 -0.0699
 2651TIP3    H229369   2.886   2.045   5.485  2.8850 -0.1426 -0.7768
 2652TIP3   OH229370   4.697   3.911  12.711  0.1216  0.1545 -0.4301
 2652TIP3    H129371   4.728   3.957  12.789 -0.0463 -2.7547  1.4873
 2652TIP3    H229372   4.774   3.907  12.654  0.9679  0.2054  0.6626
 2653TIP3   OH229373   1.949   0.116  15.182  0.2757 -0.1468  0.5104
 2653TIP3    H129374   1.859   0.132  15.156  1.1168  1.7609 -1.4668
 2653TIP3    H229375   1.969   0.185  15.246  0.9198  0.7237 -0.5985
 2654TIP3   OH229376   3.568   4.685   1.508  0.0575  0.4211  0.0386
 2654TIP3    H129377   3.499   4.630   1.472  0.9966 -0.0798 -1.0643
 2654TIP3    H229378   3.648   4.656   1.463  1.2757 -0.0606  2.3716
 2655TIP3   OH229379   2.505   6.641  16.117 -0.0015 -0.1077  0.2650
 2655TIP3    H129380   2.587   6.604  16.084  0.6200  0.3370  1.2692
 2655TIP3    H229381   2.515   6.735  16.103 -0.8190 -0.1414 -0.6239
 2656TIP3   OH229382   5.707   1.398   6.239  0.1532  0.6511 -0.1194
 2656TIP3    H129383   5.771   1.361   6.178  0.0333 -1.0108  0.7058
 2656TIP3    H229384   5.698   1.332   6.308 -0.4857  2.0121  1.1760
 2657TIP3   OH229385   1.946   2.561   5.631  0.0611 -0.6486 -0.0550
 2657TIP3    H129386   1.975   2.472   5.653  2.6810  0.2348  0.4830
 2657TIP3    H229387   1.864   2.549   5.583 -0.4139 -3.2497  1.2487
 2658TIP3   OH229388   2.575   6.615  12.424 -0.0175 -0.2080  0.0202
 2658TIP3    H129389   2.526   6.533  12.413 -0.6423  0.0813  0.5920
 2658TIP3    H229390   2.516   6.682  12.390  0.3358  0.0520 -0.0795
 2659TIP3   OH229391   5.367   1.084   4.297 -0.1775 -0.0938 -0.3481
 2659TIP3    H129392   5.272   1.088   4.309 -0.0329 -0.8230  1.3416
 2659TIP3    H229393   5.396   1.174   4.305 -0.7560  0.2157 -1.4323
 2660TIP3   OH229394   2.230   5.828   4.877 -0.2436 -0.2578 -0.2075
 2660TIP3    H129395   2.232   5.788   4.964 -2.0107  2.2822  1.1331
 2660TIP3    H229396   2.137   5.839   4.857  0.1159 -0.8776 -2.5373
 2661TIP3   OH229397   6.097   5.054   1.789 -0.0524 -0.3921  0.4293
 2661TIP3    H129398   6.149   5.003   1.727  2.6081  0.3823  1.8391
 2661TIP3    H229399   6.109   5.145   1.761 -2.9126 -0.2693 -0.7356
 2662TIP3   OH229400   4.086   3.626   5.842 -0.5164  0.0586  0.2844
 2662TIP3    H129401   4.125   3.609   5.756 -0.6946 -0.6563  0.3460
 2662TIP3    H229402   4.131   3.566   5.901  0.8693  1.7305  1.0486
 2663TIP3   OH229403   3.927   2.472  13.815 -0.0927 -0.0469  0.5570
 2663TIP3    H129404   4.007   2.420  13.807 -0.2454 -0.3228  0.7633
 2663TIP3    H229405   3.912   2.507  13.728  0.1768 -0.1079  0.4842
 2664TIP3   OH229406   6.511   4.001   4.505  0.3308  0.4326  0.2206
 2664TIP3    H129407   6.442   3.953   4.550 -0.2384  0.1311 -0.9312
 2664TIP3    H229408   6.465   4.064   4.450  1.0423  1.5509  0.8727
 2665TIP3   OH229409   5.207   0.552   0.539  0.3754 -0.0456 -0.6095
 2665TIP3    H129410   5.271   0.483   0.527  2.1679  1.6258 -1.1065
 2665TIP3    H229411   5.201   0.595   0.454 -1.9398 -0.5216 -0.7685
 2666TIP3   OH229412   6.044   5.875  15.943  0.5105 -0.3614  0.4511
 2666TIP3    H129413   6.068   5.965  15.966  0.5513  0.1467 -1.4368
 2666TIP3    H229414   6.113   5.845  15.884  1.2420 -2.1710  2.1082
 2667TIP3   OH229415   4.428   5.249   3.578 -0.6479 -0.2543 -1.0344
 2667TIP3    H129416   4.353   5.209   3.623 -0.3490  1.7751  1.4657
 2667TIP3    H229417   4.496   5.181   3.580 -1.1313 -0.7328  0.2886
 2668TIP3   OH229418   3.603   4.903  11.616 -0.4982  0.4525  0.6137
 2668TIP3    H129419   3.658   4.848  11.672  0.2490 -1.1139 -1.5022
 2668TIP3    H229420   3.514   4.873  11.633 -0.4906  1.2893  2.2678
 2669TIP3   OH229421   6.538   0.256   0.462  0.1850 -0.2070  0.1394
 2669TIP3    H129422   6.559   0.288   0.374 -0.0562 -1.3942 -0.3736
 2669TIP3    H229423   6.522   0.335   0.513  1.4404  0.5432 -0.5885
 2670TIP3   OH229424   4.940   1.189   5.529 -0.2427  0.3556  0.2394
 2670TIP3    H129425   4.921   1.252   5.460 -1.4509 -0.0069  0.2118
 2670TIP3    H229426   4.969   1.241   5.604  3.5045  0.6337 -1.2245
 2671TIP3   OH229427   6.674   5.812   3.821 -0.3312  0.1116  0.4266
 2671TIP3    H129428   6.640   5.729   3.789 -0.1074 -0.4306  1.5217
 2671TIP3    H229429   6.622   5.879   3.777  0.8812 -0.4985 -2.1192
 2672TIP3   OH229430   6.090   2.062   0.274  0.9592 -0.2144  0.1583
 2672TIP3    H129431   6.155   2.010   0.321 -1.3004 -2.5235  1.0013
 2672TIP3    H229432   6.052   2.120   0.341 -0.2809 -1.4734  0.6038
 2673TIP3   OH229433   3.679   6.226  12.333  0.0660 -0.1517 -0.0083
 2673TIP3    H129434   3.669   6.130  12.332  0.6888 -0.2292  0.2520
 2673TIP3    H229435   3.712   6.248  12.246  1.7480 -0.4118  0.5234
 2674TIP3   OH229436   3.630   1.394  15.858  0.4158 -0.0287 -0.0281
 2674TIP3    H129437   3.703   1.343  15.893  0.3252  0.0626  0.2977
 2674TIP3    H229438   3.665   1.433  15.777  0.6342 -0.2199 -0.0277
 2675TIP3   OH229439   1.352   4.037  14.654 -0.1828 -0.0008 -0.0198
 2675TIP3    H129440   1.433   4.030  14.706 -0.3151  2.6988  0.6755
 2675TIP3    H229441   1.382   4.048  14.564  0.1645 -0.4537  0.0340
 2676TIP3   OH229442   2.111   1.648  13.387  0.0379  0.0029  0.2677
 2676TIP3    H129443   2.165   1.651  13.465  1.0764  2.2278 -0.4558
 2676TIP3    H229444   2.132   1.729  13.340 -0.7942 -1.0827 -2.1428
 2677TIP3   OH229445   0.671   2.336  16.624  0.0476  0.3472 -0.0235
 2677TIP3    H129446   0.649   2.344  16.717 -0.0487  0.4317 -0.0532
 2677TIP3    H229447   0.586   2.330  16.580  0.0980 -1.2512  0.0288
 2678TIP3   OH229448   1.561   3.681   4.813  0.6618 -0.4794 -0.0776
 2678TIP3    H129449   1.633   3.682   4.750  0.6059  0.1062 -0.1429
 2678TIP3    H229450   1.593   3.627   4.886  0.9362 -0.7082 -0.3657
 2679TIP3   OH229451   5.698   5.427  14.257  0.1465 -0.2759 -0.1269
 2679TIP3    H129452   5.722   5.335  14.263  0.2838 -0.5002 -2.7240
 2679TIP3    H229453   5.769   5.466  14.205  0.2229  1.3738  1.1344
 2680TIP3   OH229454   3.461   4.015  14.889  0.0575 -0.7268 -0.2647
 2680TIP3    H129455   3.432   4.055  14.808 -1.4508 -0.5045  0.3421
 2680TIP3    H229456   3.380   3.993  14.935  0.7932  0.9931  2.0794
 2681TIP3   OH229457   1.486   4.943   3.421  0.0378 -0.2546  0.2957
 2681TIP3    H129458   1.460   4.857   3.388 -0.0875 -0.0888 -0.0350
 2681TIP3    H229459   1.461   5.004   3.352 -1.0207  0.1945  1.0490
 2682TIP3   OH229460   1.976   1.769  10.903  0.5377 -0.3212 -0.0422
 2682TIP3    H129461   1.893   1.723  10.912 -0.7669  1.7255 -0.8397
 2682TIP3    H229462   2.009   1.744  10.817 -0.7963  1.0940 -1.0210
 2683TIP3   OH229463   2.148   0.470   6.288 -0.2687 -0.6146  0.3511
 2683TIP3    H129464   2.058   0.470   6.256  0.6478  0.8754 -2.5587
 2683TIP3    H229465   2.178   0.560   6.276  2.4111 -1.6155 -1.3172
 2684TIP3   OH229466   4.076   5.795  12.690 -0.0818  0.3403  0.2710
 2684TIP3    H129467   4.044   5.884  12.706 -0.1780  0.5828 -1.1508
 2684TIP3    H229468   4.153   5.787  12.746 -0.5266  1.0319  1.0078
 2685TIP3   OH229469   5.088   1.139   1.534  0.7084  0.0597  0.6556
 2685TIP3    H129470   5.053   1.118   1.448  0.2610  2.8827  0.0787
 2685TIP3    H229471   5.012   1.164   1.586  1.3432  2.4741  0.5435
 2686TIP3   OH229472   0.632   2.677  12.588 -0.2439  0.3867  0.6068
 2686TIP3    H129473   0.650   2.726  12.668 -2.7104  2.1781  0.1945
 2686TIP3    H229474   0.544   2.705  12.562 -0.2727 -1.5261 -1.7380
 2687TIP3   OH229475   6.046   0.058   1.953  0.2696 -0.8671 -0.0384
 2687TIP3    H129476   6.015   0.128   1.895 -0.9492 -1.5316 -0.2219
 2687TIP3    H229477   6.082   0.104   2.029  1.8217  0.0284 -1.2437
 2688TIP3   OH229478   6.143   2.098  17.400 -0.1549 -0.3181  0.1785
 2688TIP3    H129479   6.128   2.109  17.494 -2.7150  0.9203 -0.2800
 2688TIP3    H229480   6.058   2.069  17.365  0.2946  0.7014 -1.9226
 2689TIP3   OH229481   0.230   4.781  13.282  0.2410 -0.1745 -0.5522
 2689TIP3    H129482   0.301   4.819  13.230 -0.2413  0.0811 -1.0256
 2689TIP3    H229483   0.275   4.733  13.351  0.9368  2.7562  1.2310
 2690TIP3   OH229484   5.566   4.035  11.383  0.3479  0.1032  0.8246
 2690TIP3    H129485   5.590   3.962  11.327 -1.0379 -1.2777  1.9181
 2690TIP3    H229486   5.470   4.040  11.376  0.2747  0.7770  1.9783
 2691TIP3   OH229487   5.660   3.442   4.880 -0.8276 -0.4450 -0.1129
 2691TIP3    H129488   5.643   3.429   4.787 -1.9439 -2.4278  0.3033
 2691TIP3    H229489   5.576   3.469   4.916 -0.2408  0.9853  0.2507
 2692TIP3   OH229490   2.887   2.585   1.658 -0.2812  0.3644  0.2874
 2692TIP3    H129491   2.956   2.650   1.646  0.0339  0.1410  0.8881
 2692TIP3    H229492   2.924   2.520   1.717  0.5686 -2.0056 -2.5731
 2693TIP3   OH229493   2.084   2.530   3.079  0.5460 -0.5026  0.1810
 2693TIP3    H129494   2.014   2.488   3.030  1.0646 -0.5007 -0.5631
 2693TIP3    H229495   2.164   2.501   3.037  0.9581  0.2879  0.4022
 2694TIP3   OH229496   1.509   1.094   5.654  0.1184 -0.2533 -0.1397
 2694TIP3    H129497   1.508   1.008   5.611 -1.4195  0.1613 -1.0058
 2694TIP3    H229498   1.419   1.107   5.684  0.5924  0.5866  0.9840
 2695TIP3   OH229499   2.549   0.159  17.108  0.0692  0.2058  0.1907
 2695TIP3    H129500   2.616   0.092  17.121  0.5767  0.9066  1.2748
 2695TIP3    H229501   2.591   0.241  17.133 -1.2528  0.6323  1.1278
 2696TIP3   OH229502   0.589   0.775   3.288 -0.2719 -0.2731  0.0907
 2696TIP3    H129503   0.531   0.851   3.284 -0.1834 -0.2260 -0.3353
 2696TIP3    H229504   0.559   0.725   3.364 -0.6972 -0.1098  0.0283
 2697TIP3   OH229505   5.150   4.079  14.256 -0.0701  0.4755  0.7532
 2697TIP3    H129506   5.216   4.141  14.225 -0.2896 -0.4398 -1.7705
 2697TIP3    H229507   5.069   4.131  14.260 -1.0330 -0.0675 -4.5450
 2698TIP3   OH229508   4.963   5.357  10.586 -0.5372  0.1171  0.5042
 2698TIP3    H129509   5.057   5.361  10.602 -0.7784  0.1303  2.0394
 2698TIP3    H229510   4.953   5.293  10.516  0.5576 -0.3669  0.7759
 2699TIP3   OH229511   3.853   4.450   0.392  0.0752  0.4125  0.0015
 2699TIP3    H129512   3.809   4.517   0.443 -1.5007 -0.0991 -0.6256
 2699TIP3    H229513   3.796   4.373   0.399  0.9622 -0.3313 -0.7009
 2700TIP3   OH229514   4.755   3.629   1.855  0.1884 -0.1162 -0.1633
 2700TIP3    H129515   4.701   3.588   1.923 -1.7202  1.6395 -0.5343
 2700TIP3    H229516   4.792   3.707   1.897  0.1812  0.1841 -0.7018
 2701TIP3   OH229517   0.606   3.237  13.685 -0.3778  0.4918 -0.1732
 2701TIP3    H129518   0.638   3.324  13.710 -1.1608  0.4963  0.8846
 2701TIP3    H229519   0.668   3.176  13.726 -0.6523  0.5330  0.3100
 2702TIP3   OH229520   3.139   1.543  12.138 -0.0868  0.4023 -0.1076
 2702TIP3    H129521   3.182   1.610  12.085  0.0364 -1.1106 -2.0442
 2702TIP3    H229522   3.046   1.554  12.120 -0.1925  0.9899  0.7600
 2703TIP3   OH229523   1.372   0.596  11.212  0.3003  0.1776 -0.5227
 2703TIP3    H129524   1.314   0.599  11.136 -0.0793 -1.5960 -0.3640
 2703TIP3    H229525   1.460   0.586  11.175  0.2128  0.1926 -0.7369
 2704TIP3   OH229526   6.009   5.025   3.833  0.0600 -0.6040 -0.4131
 2704TIP3    H129527   6.084   4.968   3.851 -0.7847 -1.6473 -0.0633
 2704TIP3    H229528   6.001   5.026   3.738  1.2206  0.4763 -0.5160
 2705TIP3   OH229529   5.756   6.303   5.922  0.0273  0.8082 -0.9270
 2705TIP3    H129530   5.717   6.286   6.008  1.3288  1.5851 -0.1672
 2705TIP3    H229531   5.693   6.361   5.879 -2.0331 -1.7873 -1.6525
 2706TIP3   OH229532   4.433   3.889   4.736 -0.2127 -0.1389 -0.1366
 2706TIP3    H129533   4.448   3.797   4.755  0.3227  0.1105  0.7516
 2706TIP3    H229534   4.489   3.935   4.799 -0.5698  0.7873 -0.4811
 2707TIP3   OH229535   0.442   1.580   2.792  0.0662  0.0601  0.0222
 2707TIP3    H129536   0.419   1.632   2.869 -0.3093 -0.6778  0.4218
 2707TIP3    H229537   0.508   1.633   2.746  1.1280  0.0235  1.4351
 2708TIP3   OH229538   3.801   5.309   3.192  0.0219  0.4206  0.7096
 2708TIP3    H129539   3.862   5.321   3.265  0.4230  1.8631  0.1688
 2708TIP3    H229540   3.718   5.346   3.222 -0.4662 -1.0387  1.2396
 2709TIP3   OH229541   6.185   0.648  13.584  0.1565  0.2736 -0.4288
 2709TIP3    H129542   6.230   0.565  13.597  0.3885  0.1474 -1.9015
 2709TIP3    H229543   6.256   0.711  13.566 -0.0777  0.6195 -0.1631
 2710TIP3   OH229544   1.005   3.504   0.306  0.3334 -0.8663 -0.0422
 2710TIP3    H129545   1.072   3.459   0.358  0.2326 -1.0913 -0.1060
 2710TIP3    H229546   0.923   3.486   0.352  0.2196 -1.2103 -0.3687
 2711TIP3   OH229547   3.811   6.147  16.575 -0.1268  0.0047 -0.7223
 2711TIP3    H129548   3.722   6.144  16.610  0.4794  0.5000  0.9454
 2711TIP3    H229549   3.859   6.203  16.635  1.5491 -0.9939 -1.0546
 2712TIP3   OH229550   1.409   6.526  16.623 -0.7265  0.1852 -0.1062
 2712TIP3    H129551   1.366   6.440  16.628 -0.1953 -0.0460  0.6262
 2712TIP3    H229552   1.338   6.587  16.602 -1.3144 -0.2785  0.4833
 2713TIP3   OH229553   4.664   6.631   0.684 -0.4917  0.1169  0.0968
 2713TIP3    H129554   4.588   6.635   0.742 -0.0930  0.2597  0.6144
 2713TIP3    H229555   4.627   6.608   0.598 -0.9729 -1.2034  0.6238
 2714TIP3   OH229556   0.737   1.213   5.847 -0.6494 -0.3255 -0.2066
 2714TIP3    H129557   0.826   1.207   5.812  0.0778 -1.2338  1.6578
 2714TIP3    H229558   0.684   1.160   5.787  0.5625 -1.9288  0.0660
 2715TIP3   OH229559   0.885   3.321  15.923  0.3563 -0.2330 -0.2724
 2715TIP3    H129560   0.848   3.233  15.918  0.1564 -0.2474  1.0176
 2715TIP3    H229561   0.830   3.375  15.866 -1.7811 -0.2272  1.6768
 2716TIP3   OH229562   1.613   4.764   5.543  0.3281 -0.0183  0.4626
 2716TIP3    H129563   1.620   4.843   5.488 -3.3421  0.5458  0.5108
 2716TIP3    H229564   1.681   4.775   5.609  0.7549  2.5073 -0.2643
 2717TIP3   OH229565   3.426   6.390  15.140  0.2142 -0.1028 -0.4822
 2717TIP3    H129566   3.521   6.391  15.132  0.3334 -2.1944  0.1842
 2717TIP3    H229567   3.400   6.303  15.111 -1.2594 -0.4036  1.5181
 2718TIP3   OH229568   3.340   4.514   4.631 -0.0172  0.3122  0.4638
 2718TIP3    H129569   3.427   4.540   4.601 -0.3395  0.0522 -0.7445
 2718TIP3    H229570   3.346   4.420   4.646 -0.5657 -0.0733 -1.4735
 2719TIP3   OH229571   4.716   1.994  12.426  0.2124  0.0129  0.0853
 2719TIP3    H129572   4.632   2.018  12.389 -0.2033  0.9649  1.5759
 2719TIP3    H229573   4.780   2.020  12.359 -0.6219 -0.3406 -0.8806
 2720TIP3   OH229574   6.228   0.852   4.434  0.1367  0.0500 -0.2051
 2720TIP3    H129575   6.289   0.814   4.372  2.5571  2.0294  0.7797
 2720TIP3    H229576   6.167   0.902   4.380  0.2848 -0.7450 -1.1409
 2721TIP3   OH229577   6.219   1.832   5.971  0.2023 -0.2863 -0.6228
 2721TIP3    H129578   6.250   1.783   6.048 -0.1584 -0.8719 -0.8400
 2721TIP3    H229579   6.183   1.913   6.007  0.2084 -0.4716 -0.1905
 2722TIP3   OH229580   0.599   3.841  11.216  0.1269  0.0642  0.2833
 2722TIP3    H129581   0.611   3.837  11.122 -1.4583  0.4388  0.0306
 2722TIP3    H229582   0.513   3.883  11.228 -0.1994 -0.9357  1.8611
 2723TIP3   OH229583   3.465   2.425  16.656 -0.1518  0.0887 -0.3309
 2723TIP3    H129584   3.425   2.338  16.651 -2.1929  0.9994 -0.9488
 2723TIP3    H229585   3.492   2.433  16.748  1.3042 -1.6721 -0.5482
 2724TIP3   OH229586   6.518   3.747   5.999  0.4591 -0.1365  0.3533
 2724TIP3    H129587   6.518   3.781   5.909  1.4729  2.2240  1.1817
 2724TIP3    H229588   6.438   3.782   6.038  0.0574 -1.1022  0.4175
 2725TIP3   OH229589   4.700   1.779  11.355  0.0681  0.2362  0.2265
 2725TIP3    H129590   4.645   1.844  11.312 -1.3173  0.4661  2.1986
 2725TIP3    H229591   4.789   1.815  11.351 -0.2101  0.8227 -1.2405
 2726TIP3   OH229592   5.546   3.474  15.876  0.0884  0.0634 -0.0634
 2726TIP3    H129593   5.501   3.415  15.936  0.7468 -0.9490 -0.5293
 2726TIP3    H229594   5.487   3.483  15.801  0.0778 -0.1679 -0.0816
 2727TIP3   OH229595   3.265   5.346   1.754 -0.5411 -0.1497  0.0427
 2727TIP3    H129596   3.195   5.289   1.785  0.6043 -1.7880 -0.2329
 2727TIP3    H229597   3.297   5.303   1.675  0.0322  1.1682 -0.4684
 2728TIP3   OH229598   4.669   1.953   0.718  0.0796  0.0710 -0.0253
 2728TIP3    H129599   4.755   1.913   0.708  0.7430  1.4597 -0.0487
 2728TIP3    H229600   4.674   2.003   0.799 -1.4573 -1.5687  1.1867
 2729TIP3   OH229601   5.862   5.828   1.552 -0.0088 -0.1529  0.1948
 2729TIP3    H129602   5.899   5.820   1.640  1.3862  1.6468 -0.1872
 2729TIP3    H229603   5.893   5.913   1.520  0.6442 -1.3037 -2.5353
 2730TIP3   OH229604   1.517   4.777   1.376  0.3150  0.3171 -0.6884
 2730TIP3    H129605   1.488   4.852   1.429  1.0269  0.3102 -0.2681
 2730TIP3    H229606   1.490   4.799   1.287 -0.5887  0.4943 -0.3823
 2731TIP3   OH229607   3.628   3.584  16.337 -0.0326 -0.1066 -0.0438
 2731TIP3    H129608   3.635   3.608  16.245  0.4504 -0.8092 -0.1924
 2731TIP3    H229609   3.608   3.667  16.382 -0.9004  0.1335 -0.8437
 2732TIP3   OH229610   6.104   6.397   3.558  0.6239  0.5165  0.4304
 2732TIP3    H129611   6.072   6.317   3.600  2.0789 -0.8483 -0.9355
 2732TIP3    H229612   6.170   6.432   3.618 -0.0095  0.7012  1.0255
 2733TIP3   OH229613   0.803   1.438  16.337  0.2921 -0.3643 -0.5950
 2733TIP3    H129614   0.880   1.411  16.287  1.5256  2.6770 -0.5489
 2733TIP3    H229615   0.729   1.422  16.278  1.3210 -0.2617 -1.9651
 2734TIP3   OH229616   2.911   1.861  12.974 -0.0596 -0.1082 -0.1218
 2734TIP3    H129617   2.886   1.773  12.948  0.4553 -0.3431  0.1661
 2734TIP3    H229618   2.879   1.870  13.063 -1.8900  0.7241 -0.8081
 2735TIP3   OH229619   3.147   6.342  17.081 -0.2239  0.1095 -0.0793
 2735TIP3    H129620   3.152   6.433  17.111 -0.1006  0.1492 -0.2184
 2735TIP3    H229621   3.129   6.291  17.160  0.5237  0.1624  0.1321
 2736TIP3   OH229622   5.766   2.111   5.730 -0.3299 -0.3710 -0.3491
 2736TIP3    H129623   5.719   2.194   5.719 -0.0067 -0.2318 -0.6839
 2736TIP3    H229624   5.852   2.126   5.691  1.0203  0.2456  2.6080
 2737TIP3   OH229625   3.890   4.682  12.401  0.2674 -0.4653 -0.4066
 2737TIP3    H129626   3.979   4.708  12.378  0.0473 -0.3657 -1.1839
 2737TIP3    H229627   3.877   4.599  12.356 -0.5060  0.2005 -1.4581
 2738TIP3   OH229628   4.356   0.792   2.873  0.3887 -0.4688 -0.5174
 2738TIP3    H129629   4.433   0.773   2.926  1.4939  0.8324 -1.5677
 2738TIP3    H229630   4.283   0.754   2.922  1.7464 -2.3360  0.1800
 2739TIP3   OH229631   4.684   3.474  12.779  0.5393 -0.1461 -0.0045
 2739TIP3    H129632   4.595   3.469  12.814  0.6259  1.0502  0.4346
 2739TIP3    H229633   4.675   3.448  12.687 -0.2734  0.0084  0.0225
 2740TIP3   OH229634   6.199   3.711  15.254  1.0888  0.0356 -0.4834
 2740TIP3    H129635   6.195   3.790  15.200 -3.4641  0.5255  0.1672
 2740TIP3    H229636   6.210   3.744  15.343  2.7775 -0.4100 -0.4884
 2741TIP3   OH229637   1.452   4.318  16.190 -0.6408  0.0467 -0.5746
 2741TIP3    H129638   1.412   4.405  16.185  0.0617  0.2994 -2.5753
 2741TIP3    H229639   1.404   4.267  16.125 -0.7006 -0.9363  0.2289
 2742TIP3   OH229640   0.938   5.557  12.597 -0.0109 -0.3348  0.8525
 2742TIP3    H129641   0.989   5.532  12.673 -0.8266  0.3841  1.6501
 2742TIP3    H229642   0.979   5.510  12.524  0.9546 -0.7957  1.6770
 2743TIP3   OH229643   0.534   3.421  11.120 -0.2071  0.1184 -0.4511
 2743TIP3    H129644   0.448   3.378  11.123 -0.5536  0.8178 -0.0774
 2743TIP3    H229645   0.528   3.483  11.048 -0.0951  0.3262 -0.2846
 2744TIP3   OH229646   5.267   5.279  12.534  0.0630  0.7580  0.4283
 2744TIP3    H129647   5.311   5.362  12.554  1.3540  0.2868 -0.3345
 2744TIP3    H229648   5.246   5.242  12.620 -0.1137  1.6457  0.7796
 2745TIP3   OH229649   0.011   3.829   1.253 -0.0977 -0.3671  0.2346
 2745TIP3    H129650   0.068   3.841   1.328 -1.1062  1.3946  0.7682
 2745TIP3    H229651   0.051   3.881   1.184  0.1467 -0.9760 -0.0959
 2746TIP3   OH229652   4.875   6.733  17.271  0.3000 -0.4680  0.3213
 2746TIP3    H129653   4.829   6.734  17.355 -1.9744  3.8337 -0.7102
 2746TIP3    H229654   4.825   6.671  17.217 -0.9127 -0.0268  0.8972
 2747TIP3   OH229655   0.805   1.008   6.010 -0.4664 -0.0149 -0.0739
 2747TIP3    H129656   0.749   1.079   5.978 -2.7432 -1.5522  0.2619
 2747TIP3    H229657   0.811   0.946   5.937 -0.2783 -0.4898  0.3372
 2748TIP3   OH229658   2.766   6.441   1.114  0.4811 -0.3376  0.0137
 2748TIP3    H129659   2.679   6.455   1.077  0.7268 -1.4035 -1.0355
 2748TIP3    H229660   2.825   6.443   1.039  1.5437  1.4794  0.8287
 2749TIP3   OH229661   3.677   2.208   3.396  0.2095  0.5656 -0.0114
 2749TIP3    H129662   3.694   2.202   3.489 -0.1997  2.4591  0.2347
 2749TIP3    H229663   3.589   2.170   3.385 -0.4104  1.7376  0.6606
 2750TIP3   OH229664   6.368   2.429  12.564  0.0509 -0.3962 -0.2395
 2750TIP3    H129665   6.377   2.372  12.488 -2.0827 -1.0988 -0.0176
 2750TIP3    H229666   6.366   2.369  12.639  0.4450  0.1780  0.2445
 2751TIP3   OH229667   5.044   6.313   6.379 -0.1661  0.3276 -0.1675
 2751TIP3    H129668   5.070   6.402   6.355 -0.0009  0.7355  1.4195
 2751TIP3    H229669   5.115   6.281   6.434  0.3861 -1.2923 -1.7307
 2752TIP3   OH229670   1.611   2.307   0.644 -0.0812 -0.0348  0.2619
 2752TIP3    H129671   1.631   2.380   0.585 -1.9859  0.3850  0.0548
 2752TIP3    H229672   1.528   2.272   0.611 -0.3328 -0.8688  1.6840
 2753TIP3   OH229673   5.490   3.520   5.941  0.5347  0.5112  0.1137
 2753TIP3    H129674   5.496   3.565   5.857  1.9654 -0.5444 -0.3793
 2753TIP3    H229675   5.409   3.553   5.979 -1.1237 -0.3088 -2.4521
 2754TIP3   OH229676   1.869   2.821  17.109 -0.4123  0.3278 -0.3187
 2754TIP3    H129677   1.876   2.805  17.015 -1.7316 -0.9495 -0.2283
 2754TIP3    H229678   1.960   2.825  17.139  0.0310 -0.7807 -1.4029
 2755TIP3   OH229679   3.887   3.209   2.928 -0.0771 -0.6624  0.1094
 2755TIP3    H129680   3.814   3.268   2.906  1.0422  0.4696 -0.6673
 2755TIP3    H229681   3.961   3.242   2.877  1.2203 -1.2538  1.5462
 2756TIP3   OH229682   2.596   4.642   5.702 -0.3515  0.1809 -0.0376
 2756TIP3    H129683   2.611   4.629   5.795  0.7728  0.1777 -0.2012
 2756TIP3    H229684   2.516   4.593   5.683  0.3388 -1.2431  0.5987
 2757TIP3   OH229685   3.242   4.482   2.953  0.7271 -0.3056  0.1968
 2757TIP3    H129686   3.170   4.527   2.909 -0.9098 -1.6683  1.3236
 2757TIP3    H229687   3.238   4.392   2.920  0.6640 -0.8802  1.6624
 2758TIP3   OH229688   2.962   5.713  16.169  0.1807  0.1797  0.0823
 2758TIP3    H129689   2.886   5.675  16.213 -0.7520  0.7529 -0.9917
 2758TIP3    H229690   2.999   5.640  16.119  0.0270  0.0196  0.1998
 2759TIP3   OH229691   6.402   3.665   6.638  0.1818 -0.4051 -0.0139
 2759TIP3    H129692   6.495   3.681   6.656  0.4300  0.2289 -1.7137
 2759TIP3    H229693   6.399   3.574   6.608  0.5900  0.1453 -1.8491
 2760TIP3   OH229694   4.765   2.066  14.233  0.4222 -0.0142  0.0451
 2760TIP3    H129695   4.841   2.028  14.191  1.5342  1.1818  0.8944
 2760TIP3    H229696   4.725   1.994  14.282 -0.5624 -1.2952 -2.4784
 2761TIP3   OH229697   2.028   3.194  13.580 -1.1833 -0.1602  0.4643
 2761TIP3    H129698   2.045   3.280  13.540 -1.2052  0.2714  1.3692
 2761TIP3    H229699   1.933   3.185  13.578 -1.3249  0.6924  2.0873
 2762TIP3   OH229700   3.328   3.068  13.981  0.2628 -0.3677  0.6153
 2762TIP3    H129701   3.298   3.110  13.900  0.7455 -0.5186  0.3535
 2762TIP3    H229702   3.420   3.050  13.966  0.2069 -0.9703  0.9591
 2763TIP3   OH229703   2.740   4.459   2.707 -0.1644 -0.0134  0.0825
 2763TIP3    H129704   2.765   4.481   2.617 -0.1425  4.1789  0.8976
 2763TIP3    H229705   2.803   4.507   2.761 -0.4373 -2.0656  2.3729
 2764TIP3   OH229706   4.739   4.914   3.514  1.0871 -0.0337 -0.1405
 2764TIP3    H129707   4.655   4.868   3.514  2.4621 -2.7825  1.1083
 2764TIP3    H229708   4.772   4.905   3.425  0.0796  1.1547 -0.6681
 2765TIP3   OH229709   4.743   1.147  12.045 -0.4341 -0.1804  0.3010
 2765TIP3    H129710   4.732   1.052  12.048  0.1105 -0.3566 -1.6959
 2765TIP3    H229711   4.725   1.170  11.954 -2.3245  1.9001  1.1206
 2766TIP3   OH229712   1.605   4.689  13.334  0.2815  0.2762 -0.2089
 2766TIP3    H129713   1.566   4.636  13.404 -0.6025  1.4556  0.2401
 2766TIP3    H229714   1.624   4.773  13.376  1.7920  0.2840 -0.8616
 2767TIP3   OH229715   0.659   2.782  14.724 -0.2347  0.0738  0.1607
 2767TIP3    H129716   0.720   2.769  14.797 -2.5668 -0.9550  2.0596
 2767TIP3    H229717   0.648   2.876  14.718 -0.4773  0.1615  1.6074
 2768TIP3   OH229718   4.890   1.539   5.765 -0.0958  0.2009 -0.1261
 2768TIP3    H129719   4.812   1.529   5.711 -0.3416 -0.0040  0.2670
 2768TIP3    H229720   4.862   1.594   5.838  0.2134  0.3997 -0.1557
 2769TIP3   OH229721   3.423   6.396  12.302  0.4038 -0.1204 -0.1219
 2769TIP3    H129722   3.412   6.440  12.386 -0.1903 -0.3036 -0.0998
 2769TIP3    H229723   3.507   6.350  12.310  0.8338  0.6605  0.0003
 2770TIP3   OH229724   1.713   3.182  10.559  0.0924  0.2551 -0.0034
 2770TIP3    H129725   1.654   3.107  10.569 -0.1762  0.4477 -0.1367
 2770TIP3    H229726   1.799   3.148  10.585 -0.1438  0.0731  0.5708
 2771TIP3   OH229727   4.001   6.051   2.403  0.0554 -0.4365 -0.5274
 2771TIP3    H129728   4.091   6.021   2.392 -0.2287 -1.6509  0.2862
 2771TIP3    H229729   3.989   6.116   2.334  1.7229  0.1582 -0.2970
 2772TIP3   OH229730   6.343   2.717   1.243  0.1579 -0.5538  0.7075
 2772TIP3    H129731   6.278   2.727   1.173  0.2131  0.7718  0.8185
 2772TIP3    H229732   6.385   2.802   1.249  1.3853 -1.1654  1.1734
 2773TIP3   OH229733   2.963   0.955  16.879 -0.6883 -0.8445 -0.0291
 2773TIP3    H129734   2.965   0.974  16.785 -3.7143 -0.7504 -0.1618
 2773TIP3    H229735   2.985   0.862  16.884  0.9795 -0.5236 -0.6395
 2774TIP3   OH229736   5.816   2.651   1.969  0.1709 -0.4671 -0.0114
 2774TIP3    H129737   5.848   2.591   1.902 -0.6484 -0.7516 -0.1617
 2774TIP3    H229738   5.721   2.653   1.956  0.2140  1.0932 -0.1923
 2775TIP3   OH229739   2.933   3.577   6.135  0.2658  0.2444 -0.0816
 2775TIP3    H129740   2.867   3.579   6.205 -0.4983  0.3926 -0.7934
 2775TIP3    H229741   2.908   3.503   6.080  0.2262  0.7768 -0.7975
 2776TIP3   OH229742   5.781   6.318  15.622 -0.3252  0.1894 -0.1077
 2776TIP3    H129743   5.735   6.274  15.692  0.1713  0.1133  0.1738
 2776TIP3    H229744   5.796   6.407  15.655 -0.4242  0.2684 -0.2696
 2777TIP3   OH229745   4.086   1.193   3.824  0.4275 -0.3342 -0.1536
 2777TIP3    H129746   4.170   1.196   3.778  1.2406  1.3772  1.3587
 2777TIP3    H229747   4.100   1.129   3.894  0.2881 -0.4244 -0.2075
 2778TIP3   OH229748   2.372   6.744  14.363 -0.3304  0.0040  0.1736
 2778TIP3    H129749   2.317   6.685  14.414 -1.6661 -2.3271 -3.6036
 2778TIP3    H229750   2.318   6.821  14.348 -0.8010 -0.2813  0.3777
 2779TIP3   OH229751   3.792   3.677   1.136 -0.3548  0.4745  0.2857
 2779TIP3    H129752   3.766   3.591   1.169  0.1181 -0.0394 -0.6624
 2779TIP3    H229753   3.819   3.725   1.215  0.3922 -0.6014  0.7157
 2780TIP3   OH229754   2.063   1.879   5.734  0.1430 -0.3428  0.4183
 2780TIP3    H129755   2.102   1.959   5.770  1.0188 -0.6641  0.2067
 2780TIP3    H229756   2.017   1.908   5.656 -1.4130  0.2936  1.5219
 2781TIP3   OH229757   4.496   2.147   4.562 -0.1247 -0.2764 -1.2188
 2781TIP3    H129758   4.484   2.086   4.490 -1.7680  0.3448 -1.5143
 2781TIP3    H229759   4.473   2.233   4.526 -3.0221 -0.1920  0.4649
 2782TIP3   OH229760   6.008   0.553  12.168 -0.4415  0.3678 -0.5169
 2782TIP3    H129761   6.028   0.502  12.090 -0.0678  1.1356 -0.9292
 2782TIP3    H229762   5.966   0.490  12.227 -1.8360  0.0616 -1.7771
 2783TIP3   OH229763   3.332   0.748  15.142  0.2532  0.1962  0.5026
 2783TIP3    H129764   3.390   0.823  15.132  0.5407 -0.2978 -2.2975
 2783TIP3    H229765   3.390   0.672  15.140 -0.3768 -0.2879 -1.9257
 2784TIP3   OH229766   0.353   6.003  13.940  0.6650  0.5026 -0.0706
 2784TIP3    H129767   0.442   6.035  13.955  0.8308  1.3879 -2.4620
 2784TIP3    H229768   0.330   6.037  13.854 -2.3554  1.0848  0.8433
 2785TIP3   OH229769   4.695   0.782   3.348 -0.2956 -0.1122  0.3461
 2785TIP3    H129770   4.701   0.708   3.409 -1.1074 -0.4406  0.0534
 2785TIP3    H229771   4.695   0.860   3.404 -0.3921 -0.3799  0.7259
 2786TIP3   OH229772   4.246   3.767  15.408  0.1719  0.1520  0.3661
 2786TIP3    H129773   4.214   3.716  15.333  0.9073 -0.3568  0.3863
 2786TIP3    H229774   4.338   3.784  15.387  0.2418  0.4511  0.9153
 2787TIP3   OH229775   6.500   4.881   1.272 -0.5401  0.1570  0.1594
 2787TIP3    H129776   6.455   4.825   1.335  0.2164  1.7886  2.2543
 2787TIP3    H229777   6.559   4.821   1.225 -1.5605 -1.2039  0.5290
 2788TIP3   OH229778   2.402   1.712   0.707  0.0549 -0.0697 -0.4867
 2788TIP3    H129779   2.460   1.743   0.776  0.7775  1.5093 -1.7551
 2788TIP3    H229780   2.323   1.683   0.753  1.1991 -0.7652  1.1255
 2789TIP3   OH229781   3.014   5.775  15.859  0.3488 -0.6279  0.0499
 2789TIP3    H129782   2.998   5.698  15.803 -0.1569 -0.9421  0.6114
 2789TIP3    H229783   3.097   5.756  15.902  1.6976  0.4280 -1.9158
 2790TIP3   OH229784   5.454   2.738   1.236 -0.5489  0.5258 -0.0220
 2790TIP3    H129785   5.404   2.761   1.158 -0.0744  0.8429 -0.2317
 2790TIP3    H229786   5.488   2.821   1.269  0.4688  0.2305 -0.3092
 2791TIP3   OH229787   2.933   4.977  13.765 -0.0233  0.4815  0.2428
 2791TIP3    H129788   3.006   4.936  13.719 -0.3015  0.4576 -0.1812
 2791TIP3    H229789   2.971   5.055  13.806  0.2196  0.5251 -0.0622
 2792TIP3   OH229790   0.426   5.065  14.595 -0.2642  0.5957 -0.6805
 2792TIP3    H129791   0.494   5.114  14.549 -1.2717  1.7036 -1.0477
 2792TIP3    H229792   0.346   5.083  14.546 -0.8211 -0.7933 -0.3420
 2793TIP3   OH229793   3.138   4.944  16.257 -0.0757 -0.4857 -0.2878
 2793TIP3    H129794   3.122   4.913  16.168 -0.8096  0.1119 -0.3712
 2793TIP3    H229795   3.151   4.864  16.308 -2.4112 -1.0064 -0.3952
 2794TIP3   OH229796   4.082   4.210   1.642  0.0788  0.2156  0.2503
 2794TIP3    H129797   4.156   4.226   1.583 -0.1787 -0.3029 -0.2288
 2794TIP3    H229798   4.087   4.280   1.707  1.4124 -0.2275  0.6534
 2795TIP3   OH229799   1.144   6.200  16.066  1.0610 -0.2042  0.0846
 2795TIP3    H129800   1.212   6.235  16.123 -0.1917 -0.5588  1.8964
 2795TIP3    H229801   1.087   6.275  16.048  2.5465  0.4208 -2.5414
 2796TIP3   OH229802   5.169   5.193  12.294  0.1220  0.4177 -0.2457
 2796TIP3    H129803   5.204   5.256  12.356  2.7554 -0.3146 -0.8800
 2796TIP3    H229804   5.075   5.210  12.293  0.0505  0.9483  3.3377
 2797TIP3   OH229805   4.749   3.604   3.615 -0.5845  0.3808 -0.7178
 2797TIP3    H129806   4.757   3.685   3.565  1.7633  0.8199  0.1860
 2797TIP3    H229807   4.819   3.548   3.581  1.2419  0.7689  2.0111
 2798TIP3   OH229808   0.890   0.828  16.420  0.3477 -0.5696  0.2357
 2798TIP3    H129809   0.835   0.840  16.497  0.2274 -0.9145  0.2075
 2798TIP3    H229810   0.979   0.849  16.449  0.2762 -0.5246  0.4219
 2799TIP3   OH229811   2.399   2.435  13.525 -0.3880  0.7276  0.2539
 2799TIP3    H129812   2.435   2.427  13.613 -2.0581 -0.0298  0.9048
 2799TIP3    H229813   2.313   2.394  13.530 -0.7654  1.1930 -1.5909
 2800TIP3   OH229814   1.224   4.052   1.181  0.1182  0.4723 -0.4083
 2800TIP3    H129815   1.208   3.979   1.121 -1.0310 -0.4740  0.9667
 2800TIP3    H229816   1.314   4.040   1.211  0.1391 -0.0179 -0.6610
 2801TIP3   OH229817   3.207   0.273  10.562  0.5135 -0.3591  0.1865
 2801TIP3    H129818   3.119   0.243  10.539  0.0308  2.1500 -1.6389
 2801TIP3    H229819   3.202   0.291  10.656 -0.9994 -0.0379  0.0734
 2802TIP3   OH229820   1.027   0.746   4.737 -0.0471 -0.8885 -0.3507
 2802TIP3    H129821   1.108   0.729   4.689  0.2489 -0.3517 -0.0449
 2802TIP3    H229822   1.056   0.769   4.825 -0.5054 -0.1822 -0.3793
 2803TIP3   OH229823   1.601   1.056  13.688  0.2795 -0.1673 -0.1772
 2803TIP3    H129824   1.613   0.961  13.696 -0.9639 -0.4469 -1.3400
 2803TIP3    H229825   1.687   1.092  13.709  1.2019 -1.6304 -1.2197
 2804TIP3   OH229826   4.606   2.195  16.143 -0.0685 -0.2652  0.0257
 2804TIP3    H129827   4.556   2.197  16.061  0.8346 -0.1135 -0.5326
 2804TIP3    H229828   4.653   2.112  16.140  0.2334 -0.1028  0.2285
 2805TIP3   OH229829   0.774   3.924  17.391 -0.4717 -0.1370 -0.5021
 2805TIP3    H129830   0.747   3.852  17.449  0.0188  1.1602  1.4364
 2805TIP3    H229831   0.857   3.895  17.354 -1.5039 -1.6175 -1.8137
 2806TIP3   OH229832   6.750   1.242   0.181 -0.2451  0.6102 -0.9607
 2806TIP3    H129833   6.672   1.296   0.184  0.3914  1.5096 -0.0726
 2806TIP3    H229834   6.720   1.155   0.206 -0.8584  1.0815  0.0006
 2807TIP3   OH229835   6.364   4.161  14.125  0.3578  0.4490  0.3952
 2807TIP3    H129836   6.272   4.183  14.143  0.2625  0.1390  0.2830
 2807TIP3    H229837   6.361   4.076  14.082  0.7312  0.2114  0.8284
 2808TIP3   OH229838   0.944   3.326  12.603  0.2961  0.0165  0.0447
 2808TIP3    H129839   0.902   3.255  12.651  1.5041 -0.4316  0.4909
 2808TIP3    H229840   0.928   3.404  12.657  1.0956 -0.3715  0.8779
 2809TIP3   OH229841   1.437   5.193   5.147  0.3434 -0.1422 -0.2058
 2809TIP3    H129842   1.397   5.249   5.214  0.7653 -0.6179  0.4667
 2809TIP3    H229843   1.374   5.123   5.133 -1.2250  1.5992 -2.6900
 2810TIP3   OH229844   6.008   3.137  16.517 -0.5588 -0.7315  0.0004
 2810TIP3    H129845   5.933   3.141  16.458 -0.3552  0.7412 -0.2079
 2810TIP3    H229846   5.974   3.102  16.598 -1.5988  0.3752  0.0658
 2811TIP3   OH229847   3.529   0.688  13.425 -0.0179 -0.1853  0.0741
 2811TIP3    H129848   3.618   0.696  13.389 -1.0603  0.4798 -2.5833
 2811TIP3    H229849   3.514   0.594  13.431  1.5727 -0.3686  2.6572
 2812TIP3   OH229850   6.450   5.694   1.800 -0.7863 -0.1919 -0.1800
 2812TIP3    H129851   6.478   5.780   1.771 -0.9327 -0.3371 -0.7663
 2812TIP3    H229852   6.532   5.645   1.813 -0.6844  0.1764  0.6275
 2813TIP3   OH229853   4.906   1.199   0.723  0.8983 -0.9012 -0.1407
 2813TIP3    H129854   4.883   1.202   0.816 -1.4503  0.2332 -0.6785
 2813TIP3    H229855   4.864   1.120   0.690 -1.4152  0.5686 -0.9020
 2814TIP3   OH229856   6.310   5.644   6.597 -0.7410  0.1202  0.1139
 2814TIP3    H129857   6.327   5.631   6.690 -0.5713  1.4495  0.2863
 2814TIP3    H229858   6.363   5.577   6.553 -0.2372 -0.0319  0.9313
 2815TIP3   OH229859   1.078   3.131   4.526 -0.4119 -0.5966 -0.1347
 2815TIP3    H129860   1.027   3.139   4.445  0.2018 -0.8126 -0.5484
 2815TIP3    H229861   1.153   3.078   4.502  0.5726  0.5859  0.2002
 2816TIP3   OH229862   2.732   3.976   6.032  0.2794 -0.3355  0.5840
 2816TIP3    H129863   2.643   3.997   6.060  1.0426 -0.0348  3.0144
 2816TIP3    H229864   2.772   4.061   6.014 -0.2345 -0.5280 -1.7558
 2817TIP3   OH229865   5.387   2.034  13.093  0.1025  0.3618 -0.0179
 2817TIP3    H129866   5.390   2.019  13.188 -2.5472  3.0419  0.6506
 2817TIP3    H229867   5.301   2.002  13.067 -1.1417  3.6381 -0.4962
 2818TIP3   OH229868   0.687   0.953  13.117 -0.0716 -0.0593 -0.1395
 2818TIP3    H129869   0.669   0.956  13.023 -1.8521  0.0047  0.1699
 2818TIP3    H229870   0.736   1.033  13.134  2.6872 -1.3359 -1.4149
 2819TIP3   OH229871   1.225   2.589  17.409 -0.1982  0.0510  0.1572
 2819TIP3    H129872   1.220   2.663  17.470 -0.2920  0.4258 -0.3009
 2819TIP3    H229873   1.176   2.519  17.452 -0.6603  0.4622  0.3072
 2820TIP3   OH229874   3.325   5.011  14.542 -0.1061  0.5059 -0.7398
 2820TIP3    H129875   3.268   5.067  14.594 -0.1373 -0.0748 -0.1291
 2820TIP3    H229876   3.341   4.935  14.598  0.0965  0.0022 -1.4700
 2821TIP3   OH229877   1.529   2.982  17.365 -0.1398  0.4981 -0.1694
 2821TIP3    H129878   1.514   3.076  17.377 -0.8998  0.7486 -2.5044
 2821TIP3    H229879   1.518   2.968  17.271  1.7938 -1.6279 -0.1585
 2822TIP3   OH229880   2.008   1.648   0.153  0.2361  0.4149  0.3753
 2822TIP3    H129881   1.979   1.701   0.079  1.7753 -1.0030 -1.3360
 2822TIP3    H229882   2.101   1.635   0.138  0.8091  0.7840  3.0727
 2823TIP3   OH229883   1.812   2.138   0.440 -0.0598 -0.5543 -0.0846
 2823TIP3    H129884   1.845   2.209   0.384 -1.0066  0.4790  0.6092
 2823TIP3    H229885   1.833   2.166   0.529 -0.4595 -1.1426  0.2021
 2824TIP3   OH229886   4.949   4.006  12.645 -0.0185  0.6206 -0.2505
 2824TIP3    H129887   4.944   4.101  12.638  1.5495  0.6688 -1.0992
 2824TIP3    H229888   4.995   3.991  12.727  1.8690  0.6940 -1.2510
 2825TIP3   OH229889   5.768   5.598  13.021  0.3902  0.1578 -0.6707
 2825TIP3    H129890   5.864   5.597  13.029  0.2782  1.0133  1.3796
 2825TIP3    H229891   5.752   5.608  12.927  2.3744  3.0385 -0.8369
 2826TIP3   OH229892   0.719   3.657  12.520 -0.5379 -0.5554  0.1050
 2826TIP3    H129893   0.748   3.596  12.589  0.1088 -1.7394 -1.1626
 2826TIP3    H229894   0.730   3.608  12.439  1.0382  1.6264 -1.1022
 2827TIP3   OH229895   3.653   1.837   0.210  0.2558  0.1180 -0.5326
 2827TIP3    H129896   3.565   1.836   0.249 -0.4032  0.0252 -1.9729
 2827TIP3    H229897   3.649   1.773   0.139  0.8097  1.6403 -1.9994
 2828TIP3   OH229898   0.507   6.262   5.909  0.1285  0.2811  0.2735
 2828TIP3    H129899   0.527   6.319   5.983 -1.1665  0.7324  0.2965
 2828TIP3    H229900   0.527   6.173   5.940  0.8459  0.5902  0.7043
 2829TIP3   OH229901   1.817   5.499   3.705 -0.5524 -0.6066  0.7240
 2829TIP3    H129902   1.740   5.444   3.689 -0.8316  0.3177 -1.3743
 2829TIP3    H229903   1.781   5.580   3.741 -0.4949 -0.4350  0.3951
 2830TIP3   OH229904   2.957   1.662  13.931 -0.0111 -0.4057  0.0404
 2830TIP3    H129905   2.893   1.697  13.994 -0.0494 -1.0013  0.3397
 2830TIP3    H229906   2.952   1.567  13.943  2.7851 -0.4291  1.9631
 2831TIP3   OH229907   4.324   4.991   0.536  0.3375 -0.3645  0.4904
 2831TIP3    H129908   4.346   5.046   0.611 -1.5267  0.8462  0.2283
 2831TIP3    H229909   4.379   5.025   0.465  1.3628 -0.8486  1.0216
 2832TIP3   OH229910   0.466   2.818   0.118  0.2715 -0.5332  0.3660
 2832TIP3    H129911   0.483   2.829   0.025 -0.5969  0.4082  0.2966
 2832TIP3    H229912   0.534   2.870   0.161 -1.9499  2.9248  0.1028
 2833TIP3   OH229913   5.955   1.465   4.755 -0.1982 -0.0603  1.3548
 2833TIP3    H129914   6.040   1.501   4.730 -0.8918  0.6629 -0.0772
 2833TIP3    H229915   5.953   1.378   4.716  0.7629 -1.0060  3.3099
 2834TIP3   OH229916   0.042   5.046   3.297  0.1171 -0.6798  0.9823
 2834TIP3    H129917   0.061   5.012   3.210 -0.1252 -2.7915  1.6928
 2834TIP3    H229918   0.101   4.998   3.355  0.7877  1.1940  1.9554
 2835TIP3   OH229919   2.073   4.978  14.668  0.3755 -0.0089 -0.0244
 2835TIP3    H129920   2.109   5.050  14.616  0.5404 -0.8963 -1.1742
 2835TIP3    H229921   2.055   4.909  14.604 -2.4306  0.0167  0.6109
 2836TIP3   OH229922   3.041   2.361  15.682  0.0094 -0.3328  0.9143
 2836TIP3    H129923   2.948   2.358  15.704 -0.5645  0.5289 -1.1513
 2836TIP3    H229924   3.046   2.418  15.605  2.3101  0.0038  1.2223
 2837TIP3   OH229925   3.565   5.248   3.743  0.0981 -0.2135 -0.0067
 2837TIP3    H129926   3.597   5.241   3.833 -1.5246  2.3071  0.8811
 2837TIP3    H229927   3.481   5.203   3.744 -0.5734  0.9904  0.1670
 2838TIP3   OH229928   1.953   2.716  14.918  0.7472 -0.1959 -0.2989
 2838TIP3    H129929   2.017   2.731  14.848 -0.7749  0.1116 -1.6899
 2838TIP3    H229930   1.868   2.735  14.878 -0.2912 -1.1424  1.3112
 2839TIP3   OH229931   0.665   5.804  15.891 -0.2437  0.3865  0.5009
 2839TIP3    H129932   0.651   5.767  15.804 -0.3677  0.6251  0.4181
 2839TIP3    H229933   0.578   5.810  15.930 -0.2321  0.6717  0.4813
 2840TIP3   OH229934   0.540   2.739   0.563  0.0331  0.6036  0.1040
 2840TIP3    H129935   0.488   2.763   0.486 -1.0003 -2.9020 -0.4810
 2840TIP3    H229936   0.479   2.692   0.619  1.7258 -0.4439  1.1500
 2841TIP3   OH229937   3.066   5.807   1.463  0.3149 -0.1007  0.8777
 2841TIP3    H129938   3.156   5.801   1.432 -0.2087  1.5524 -1.2600
 2841TIP3    H229939   3.014   5.814   1.383 -1.5610  0.4940  2.0896
 2842TIP3   OH229940   1.787   4.084  16.662 -0.4471 -0.0657  0.1225
 2842TIP3    H129941   1.789   4.165  16.612 -0.0029 -0.8264 -1.1301
 2842TIP3    H229942   1.737   4.023  16.607 -1.3549 -0.4648  1.3396
 2843TIP3   OH229943   2.701   3.032  13.311 -0.2526  0.9388 -0.2299
 2843TIP3    H129944   2.702   3.123  13.341 -2.1666  1.0987 -0.5310
 2843TIP3    H229945   2.693   2.980  13.391 -1.0048  1.1403 -0.1686
 2844TIP3   OH229946   2.033   2.239   4.492 -0.0768  0.4497 -0.0875
 2844TIP3    H129947   1.971   2.166   4.489 -1.8571  1.8657  0.5246
 2844TIP3    H229948   2.019   2.286   4.409  0.7491  0.3466 -0.2917
 2845TIP3   OH229949   0.641   1.949  12.154 -1.0268 -0.3963 -0.3302
 2845TIP3    H129950   0.652   1.854  12.159 -1.9206 -0.5260 -0.6770
 2845TIP3    H229951   0.701   1.977  12.085  0.6842 -0.4408  1.0600
 2846TIP3   OH229952   0.714   6.046  16.253 -0.3206  0.1045  0.0637
 2846TIP3    H129953   0.693   6.122  16.199  0.2615  0.2541  0.0410
 2846TIP3    H229954   0.632   6.025  16.298 -0.7871  0.0394 -0.7937
 2847TIP3   OH229955   4.767   3.278  16.373  0.1236 -0.5403 -0.2415
 2847TIP3    H129956   4.822   3.249  16.300  2.1717  1.2040  0.4851
 2847TIP3    H229957   4.729   3.360  16.343 -1.3170 -1.2281 -0.3496
 2848TIP3   OH229958   1.916   3.844   5.679 -0.0503  0.1220  0.0588
 2848TIP3    H129959   1.948   3.886   5.759 -1.7573  1.1651  0.2614
 2848TIP3    H229960   1.948   3.754   5.683  0.0453  0.2117  1.8336
 2849TIP3   OH229961   4.210   5.805  10.907  0.2127  0.0484  0.4178
 2849TIP3    H129962   4.138   5.865  10.927  0.5059  0.2188  0.9827
 2849TIP3    H229963   4.166   5.723  10.884 -0.1819 -0.4855  2.7692
 2850TIP3   OH229964   0.676   1.753   3.807 -0.0905  0.2985  0.1327
 2850TIP3    H129965   0.652   1.807   3.732  0.2649 -0.5586 -0.6095
 2850TIP3    H229966   0.739   1.806   3.856  0.4827  0.4380 -0.7453
 2851TIP3   OH229967   4.145   2.467   0.375 -0.2864 -0.1201  0.6078
 2851TIP3    H129968   4.147   2.563   0.384 -2.5319  0.2049 -1.3576
 2851TIP3    H229969   4.236   2.443   0.360  0.2118  1.8712  0.0656
 2852TIP3   OH229970   1.405   5.685  14.089  0.0506  0.2534  1.0495
 2852TIP3    H129971   1.494   5.719  14.102 -0.2452  0.7761  1.7975
 2852TIP3    H229972   1.391   5.693  13.995  1.1489 -0.7566  0.7763
 2853TIP3   OH229973   4.999   3.428   3.828  0.1801  0.0919 -0.0190
 2853TIP3    H129974   4.908   3.448   3.807  0.2644  1.3070  0.6591
 2853TIP3    H229975   5.018   3.482   3.905  1.1381 -1.0033  0.5429
 2854TIP3   OH229976   1.271   2.480   0.489 -0.3837 -0.4089  0.3086
 2854TIP3    H129977   1.342   2.468   0.551 -0.9357  1.1287  1.2835
 2854TIP3    H229978   1.192   2.478   0.542 -0.9291  0.0879 -0.4600
 2855TIP3   OH229979   3.144   2.692   3.678 -0.2957 -0.2875 -0.4983
 2855TIP3    H129980   3.081   2.687   3.750  0.1259  1.0626 -0.0086
 2855TIP3    H229981   3.090   2.685   3.599 -1.0277  0.5567 -0.0820
 2856TIP3   OH229982   1.647   2.929  15.221 -0.4475 -0.4082  0.1801
 2856TIP3    H129983   1.680   2.853  15.174 -2.6266 -1.8926  0.8975
 2856TIP3    H229984   1.626   2.896  15.309  1.1006  1.6916  1.4371
 2857TIP3   OH229985   1.631   0.827   5.159  0.5492  0.1044  0.3711
 2857TIP3    H129986   1.713   0.874   5.170  1.3686 -1.3776  0.8944
 2857TIP3    H229987   1.644   0.772   5.082 -0.0809  0.1161  0.2491
 2858TIP3   OH229988   0.637   2.862   2.764 -0.3798 -0.6423  0.6238
 2858TIP3    H129989   0.566   2.900   2.713  0.3935  0.7517  0.5433
 2858TIP3    H229990   0.677   2.797   2.705 -0.5693 -0.2682  0.0746
 2859TIP3   OH229991   6.089   4.792  13.775 -0.1799  0.4869  0.5201
 2859TIP3    H129992   6.178   4.789  13.809  0.4167  0.2815 -0.9646
 2859TIP3    H229993   6.078   4.707  13.731 -1.3048  0.2954  1.1410
 2860TIP3   OH229994   2.474   3.094   4.642  0.7173  0.0995  0.3222
 2860TIP3    H129995   2.398   3.071   4.695 -0.4268  3.5056  0.4244
 2860TIP3    H229996   2.461   3.046   4.560 -3.2646  2.5583 -0.8030
 2861TIP3   OH229997   3.848   4.755   4.747 -0.3126 -0.0634  0.2328
 2861TIP3    H129998   3.911   4.741   4.676  0.2553 -0.0234  0.7204
 2861TIP3    H229999   3.824   4.667   4.775  0.8257 -0.1046  1.1673
 2862TIP3   OH230000   2.480   5.880   2.713  0.0743  0.0653  0.3378
 2862TIP3    H130001   2.424   5.846   2.643 -0.2902  1.6637 -0.1962
 2862TIP3    H230002   2.500   5.804   2.767 -0.3385 -1.0583 -1.0253
 2863TIP3   OH230003   1.684   0.129  12.465 -0.3103 -0.0535 -0.0068
 2863TIP3    H130004   1.743   0.197  12.498 -1.1561  0.9963 -0.6274
 2863TIP3    H230005   1.705   0.052  12.518 -1.8733  1.6183  3.3416
 2864TIP3   OH230006   6.570   4.903  15.987  0.0600 -0.1263 -0.2411
 2864TIP3    H130007   6.606   4.876  16.072 -0.2861 -2.0647 -0.6584
 2864TIP3    H230008   6.615   4.985  15.967  0.8069 -0.0869  1.3923
 2865TIP3   OH230009   4.228   4.381  17.028 -0.1477  0.5482 -0.6044
 2865TIP3    H130010   4.155   4.348  17.081  0.7360  1.3980  1.2366
 2865TIP3    H230011   4.300   4.322  17.046  0.4286  1.3852 -0.1207
 2866TIP3   OH230012   6.566   3.733  15.956  0.2537 -0.6416 -0.2883
 2866TIP3    H130013   6.633   3.668  15.937  1.1297  0.6702 -1.9721
 2866TIP3    H230014   6.595   3.775  16.037  1.3011 -0.3309 -0.8076
 2867TIP3   OH230015   2.022   5.298  14.092  0.1822  0.4899 -0.4600
 2867TIP3    H130016   2.075   5.329  14.018 -0.1854 -0.6059 -1.2146
 2867TIP3    H230017   2.085   5.280  14.161  0.6394  0.5788 -0.8453
 2868TIP3   OH230018   0.752   0.969  16.955 -0.3395  0.1347 -0.0475
 2868TIP3    H130019   0.715   0.896  17.005  0.0567 -0.9394 -1.2758
 2868TIP3    H230020   0.804   1.017  17.019  0.7799 -1.6311  0.4456
 2869TIP3   OH230021   6.353   3.318   3.616  0.1123  0.1172 -0.1730
 2869TIP3    H130022   6.381   3.246   3.672  0.4483  1.4213  1.4060
 2869TIP3    H230023   6.372   3.397   3.666  1.4676  1.4381 -2.5964
 2870TIP3   OH230024   6.397   3.691   5.401  0.0669 -0.2015 -0.1002
 2870TIP3    H130025   6.357   3.618   5.448 -0.5030 -1.0373 -1.8258
 2870TIP3    H230026   6.447   3.738   5.468 -2.6161  0.0573  1.8667
 2871TIP3   OH230027   4.230   5.370  14.009 -0.1246 -0.2672 -0.2466
 2871TIP3    H130028   4.279   5.385  14.090  0.3168 -1.0534 -0.3646
 2871TIP3    H230029   4.230   5.275  13.998 -2.2196 -0.3594  0.0853
 2872TIP3   OH230030   2.165   0.125  16.024  0.1358  0.6394  0.7059
 2872TIP3    H130031   2.087   0.170  15.990 -0.1509  1.3612  2.2308
 2872TIP3    H230032   2.144   0.107  16.115  1.1051 -0.7146  0.6853
 2873TIP3   OH230033   3.395   6.526   0.332  0.3710 -0.2142 -0.2353
 2873TIP3    H130034   3.447   6.454   0.296  0.1150 -0.8428  0.6133
 2873TIP3    H230035   3.375   6.499   0.422  0.3875  0.9810  0.1555
 2874TIP3   OH230036   4.599   0.139  13.550 -0.1827 -0.5611 -0.0153
 2874TIP3    H130037   4.610   0.045  13.530  3.9118 -0.2630 -0.1143
 2874TIP3    H230038   4.586   0.180  13.465  1.5599 -0.7933 -0.4411
 2875TIP3   OH230039   0.880   6.550  11.956  0.4422  0.1591 -0.3155
 2875TIP3    H130040   0.803   6.598  11.927  0.6984 -0.1211 -1.5113
 2875TIP3    H230041   0.845   6.474  12.003 -0.0946 -1.0595 -2.5722
 2876TIP3   OH230042   1.577   6.633  14.155  0.6851  0.2415 -0.2728
 2876TIP3    H130043   1.586   6.539  14.169 -1.1104 -0.1710 -1.6136
 2876TIP3    H230044   1.516   6.641  14.082  0.4975  2.4587  0.0609
 2877TIP3   OH230045   5.922   2.499  16.735 -0.2534  0.0998  0.4145
 2877TIP3    H130046   5.969   2.582  16.740  2.1648 -1.0700 -1.0789
 2877TIP3    H230047   5.928   2.473  16.643 -2.8296 -0.7658  0.4061
 2878TIP3   OH230048   1.844   0.605   3.081  0.6042  0.1055  0.0039
 2878TIP3    H130049   1.758   0.595   3.039  0.7351 -1.6918  0.0940
 2878TIP3    H230050   1.830   0.673   3.147 -1.0573 -0.8942  0.7526
 2879TIP3   OH230051   0.772   5.625  12.157 -0.1332 -0.5435  0.2243
 2879TIP3    H130052   0.829   5.675  12.099 -0.8826  0.9168  0.7044
 2879TIP3    H230053   0.815   5.539  12.165  0.5378 -0.4137 -1.5868
 2880TIP3   OH230054   2.065   3.908  12.114  0.1159  0.3570 -0.1959
 2880TIP3    H130055   1.969   3.909  12.116  0.1069  0.4613 -0.5799
 2880TIP3    H230056   2.090   3.998  12.134  0.1823 -0.0243  1.5940
 2881TIP3   OH230057   0.380   3.282  15.348  0.2064 -0.1866  0.0863
 2881TIP3    H130058   0.396   3.296  15.255  0.3841  0.7268  0.2430
 2881TIP3    H230059   0.434   3.206  15.371  1.0024  0.2425 -0.3297
 2882TIP3   OH230060   5.105   1.029  15.565 -0.1162 -0.0816  0.2758
 2882TIP3    H130061   5.030   0.970  15.560 -0.6238  0.6576 -1.4533
 2882TIP3    H230062   5.067   1.117  15.567  0.6823  0.2948 -0.3230
 2883TIP3   OH230063   4.048   5.243   2.670  0.3588 -0.0637 -0.3221
 2883TIP3    H130064   4.052   5.272   2.762  3.2308  1.5524 -0.8462
 2883TIP3    H230065   4.063   5.149   2.674 -1.0694 -0.2977  0.9005
 2884TIP3   OH230066   6.067   3.829  16.958 -0.2214  0.2034  0.3274
 2884TIP3    H130067   5.994   3.845  17.019 -0.6613  0.0669 -0.1590
 2884TIP3    H230068   6.142   3.874  16.999 -1.0052  1.9734 -0.0983
 2885TIP3   OH230069   5.325   4.421   5.310  0.3647 -0.1222 -0.5643
 2885TIP3    H130070   5.235   4.415   5.339  0.4208  0.1453 -0.3200
 2885TIP3    H230071   5.334   4.356   5.241  0.3793 -1.1673  0.3969
 2886TIP3   OH230072   2.941   5.452   3.215 -0.0438  0.2320  0.0838
 2886TIP3    H130073   2.970   5.395   3.143 -0.5076  1.5628 -1.1992
 2886TIP3    H230074   2.846   5.453   3.208 -0.1186  0.1348  0.9345
 2887TIP3   OH230075   3.441   4.013  13.159 -0.1363  0.6797 -0.5636
 2887TIP3    H130076   3.408   3.958  13.230  0.7891  0.2537 -0.4415
 2887TIP3    H230077   3.426   4.102  13.189  0.6761  0.5128  0.3921
 2888TIP3   OH230078   6.009   0.344   1.471 -0.0593 -0.1945 -0.5459
 2888TIP3    H130079   6.055   0.384   1.397  0.8345  0.8477  0.5245
 2888TIP3    H230080   6.048   0.386   1.548 -0.4898 -1.7527  0.5502
 2889TIP3   OH230081   0.273   2.074  16.598 -0.1151  0.0316 -0.1110
 2889TIP3    H130082   0.367   2.088  16.585 -0.3564  0.8178 -1.0601
 2889TIP3    H230083   0.262   2.078  16.693  0.6339  1.1493 -0.0503
 2890TIP3   OH230084   3.452   4.536   4.270 -0.1571 -0.3398 -0.1862
 2890TIP3    H130085   3.377   4.578   4.310  2.0498  1.2526  2.6206
 2890TIP3    H230086   3.473   4.463   4.327  1.6592  0.5444  0.3633
 2891TIP3   OH230087   3.205   2.533   1.965  0.2237  0.2161 -0.3691
 2891TIP3    H130088   3.240   2.470   1.902  0.6001 -0.7141  0.7560
 2891TIP3    H230089   3.241   2.506   2.049 -0.8388  1.0218  0.3649
 2892TIP3   OH230090   2.832   4.395  13.539 -0.3492  0.0423  0.0122
 2892TIP3    H130091   2.847   4.332  13.469  1.3079 -0.0927  0.4420
 2892TIP3    H230092   2.793   4.471  13.495 -0.1270 -0.3580 -0.9055
 2893TIP3   OH230093   5.427   5.769   4.328 -0.5160  0.0277 -0.3385
 2893TIP3    H130094   5.423   5.832   4.255  0.1389 -0.6353 -0.9700
 2893TIP3    H230095   5.398   5.819   4.404 -1.0297  0.7977 -1.0184
 2894TIP3   OH230096   4.946   4.329   5.540 -0.4275  0.3520 -0.1572
 2894TIP3    H130097   4.909   4.405   5.586 -0.4358  0.4012 -0.2440
 2894TIP3    H230098   4.870   4.273   5.524 -0.3075 -0.0165  0.5501
 2895TIP3   OH230099   5.753   4.376   2.814 -0.7044 -0.2187 -0.0569
 2895TIP3    H130100   5.659   4.362   2.826 -0.3926 -0.6888  2.1953
 2895TIP3    H230101   5.762   4.470   2.802 -1.4211 -0.1166  0.1553
 2896TIP3   OH230102   0.385   0.392   1.168  0.1654 -0.2269  0.5158
 2896TIP3    H130103   0.391   0.300   1.145  0.1802 -0.8915  2.9126
 2896TIP3    H230104   0.371   0.437   1.085  1.5010 -2.2322 -0.8902
 2897TIP3   OH230105   6.147   4.671  14.946 -0.0611 -0.1817 -0.3734
 2897TIP3    H130106   6.078   4.652  15.010 -0.3425 -0.7104 -0.8282
 2897TIP3    H230107   6.119   4.627  14.866  1.9326 -2.4413  0.0487
 2898TIP3   OH230108   4.101   1.091   4.094  0.2920 -0.2686  0.6586
 2898TIP3    H130109   4.170   1.040   4.136 -0.2779 -1.0531  0.6811
 2898TIP3    H230110   4.025   1.032   4.095  0.0295  0.0240 -0.6687
 2899TIP3   OH230111   4.610   4.214  12.820 -0.2242  0.2772 -0.6640
 2899TIP3    H130112   4.684   4.247  12.769 -0.8275 -0.5688 -2.1357
 2899TIP3    H230113   4.644   4.209  12.910  1.9150 -1.1713 -1.4634
 2900TIP3   OH230114   5.536   6.117  13.591  0.1247 -0.0140  0.1646
 2900TIP3    H130115   5.619   6.090  13.551  0.4590  0.5353  0.4747
 2900TIP3    H230116   5.556   6.201  13.633 -0.2915 -0.4387  1.2330
 2901TIP3   OH230117   2.758   0.387   6.295 -0.2872  0.0887 -0.1481
 2901TIP3    H130118   2.847   0.405   6.326 -0.8074  1.9557  0.3750
 2901TIP3    H230119   2.759   0.294   6.272  1.2903 -0.3604  1.5404
 2902TIP3   OH230120   4.324   4.982   0.900  0.1984  0.2194  0.4911
 2902TIP3    H130121   4.302   5.056   0.957 -0.8949  0.0860  0.2684
 2902TIP3    H230122   4.387   5.019   0.838 -0.7406  1.1340  0.0398
 2903TIP3   OH230123   2.163   0.829   4.460 -0.4328  0.3311  0.1079
 2903TIP3    H130124   2.188   0.918   4.438 -1.2600  0.4493 -0.3929
 2903TIP3    H230125   2.078   0.816   4.417 -0.7330 -0.4008  0.8947
 2904TIP3   OH230126   2.256   2.432  12.062  0.2786 -0.4282 -0.3257
 2904TIP3    H130127   2.247   2.353  12.009 -0.3659  0.4783 -1.6265
 2904TIP3    H230128   2.332   2.477  12.026 -1.8795  1.6962 -2.6462
 2905TIP3   OH230129   3.109   4.619   5.448 -0.2249  0.2088  0.3748
 2905TIP3    H130130   3.060   4.548   5.490 -0.0530  0.3113  0.7568
 2905TIP3    H230131   3.176   4.643   5.512 -0.1441  0.5706  0.1597
 2906TIP3   OH230132   1.207   3.363   3.957  0.1010  0.2649 -0.1198
 2906TIP3    H130133   1.231   3.316   3.877 -1.3829 -0.1680 -0.3323
 2906TIP3    H230134   1.199   3.295   4.024  1.0135  0.5899  0.3444
 2907TIP3   OH230135   2.023   2.703   0.456 -0.4194 -0.2742 -0.3654
 2907TIP3    H130136   2.077   2.658   0.390 -0.2090 -0.4943 -0.0453
 2907TIP3    H230137   2.014   2.792   0.421  2.4592  0.6235  0.8312
 2908TIP3   OH230138   2.828   3.024   0.742  0.1655 -0.4588  0.1734
 2908TIP3    H130139   2.903   3.081   0.729 -0.3333  0.4441  1.0778
 2908TIP3    H230140   2.805   3.035   0.834 -0.2119 -1.8067  0.2624
 2909TIP3   OH230141   5.395   5.289  11.261 -0.0996  0.1266 -0.8407
 2909TIP3    H130142   5.489   5.271  11.264 -0.3887 -1.3772 -0.4660
 2909TIP3    H230143   5.356   5.208  11.230 -1.2633  0.8453 -1.3173
 2910TIP3   OH230144   2.601   1.140  17.387 -0.0867 -0.2938  0.4136
 2910TIP3    H130145   2.684   1.168  17.426  0.1875  1.0280 -1.0183
 2910TIP3    H230146   2.537   1.205  17.418  0.1605  0.8550 -1.3330
 2911TIP3   OH230147   2.667   6.060  13.419  0.3338  0.2998 -0.6640
 2911TIP3    H130148   2.633   6.149  13.407  0.6265  0.8265  1.8783
 2911TIP3    H230149   2.757   6.064  13.387 -0.4795  0.0942 -3.2070
 2912TIP3   OH230150   3.679   3.113   3.386 -1.0156 -0.0357 -0.3062
 2912TIP3    H130151   3.750   3.149   3.333 -0.8776  1.8287  1.0651
 2912TIP3    H230152   3.635   3.189   3.424 -1.9896 -1.2400  1.1282
 2913TIP3   OH230153   5.869   5.816   4.682  0.2396 -0.1513 -0.1463
 2913TIP3    H130154   5.788   5.765   4.691  1.6144 -2.2282  1.6588
 2913TIP3    H230155   5.862   5.883   4.750 -0.8852  1.1324 -1.4750
 2914TIP3   OH230156   0.951   1.116  16.785 -0.4048 -0.5534 -0.3245
 2914TIP3    H130157   0.886   1.165  16.735 -0.0509 -0.0186 -0.2580
 2914TIP3    H230158   0.898   1.058  16.841 -0.8497  0.2838  0.1495
 2915TIP3   OH230159   6.540   4.270  13.468  0.3438  0.7504  0.0317
 2915TIP3    H130160   6.605   4.323  13.513  0.9510  0.9294 -1.0143
 2915TIP3    H230161   6.575   4.181  13.471  0.2802  0.7275  0.0962
 2916TIP3   OH230162   1.900   1.251   5.471  0.2598  0.6626  0.0066
 2916TIP3    H130163   1.925   1.167   5.433  1.2989  1.1690 -0.4427
 2916TIP3    H230164   1.804   1.251   5.468  0.1907 -0.9071  0.8915
 2917TIP3   OH230165   4.729   4.616  14.617  0.4145 -0.1659 -0.0749
 2917TIP3    H130166   4.808   4.562  14.612  0.1391 -1.1197  3.1059
 2917TIP3    H230167   4.701   4.627  14.527  3.1613 -1.3350 -1.1771
 2918TIP3   OH230168   5.906   0.870  12.887  0.0442  0.3147  0.0362
 2918TIP3    H130169   5.832   0.811  12.900  0.3556 -0.3221 -0.9566
 2918TIP3    H230170   5.932   0.897  12.975  1.2065 -2.6941  0.7236
 2919TIP3   OH230171   5.249   2.247  15.950 -0.6642 -0.0248  0.0549
 2919TIP3    H130172   5.208   2.273  15.868  0.4777 -1.1959 -0.9444
 2919TIP3    H230173   5.177   2.238  16.012 -1.7090 -0.3876 -1.1748
 2920TIP3   OH230174   1.782   5.481   6.448 -0.7448 -0.2110  0.0257
 2920TIP3    H130175   1.795   5.567   6.408  0.4616  0.3745  1.5679
 2920TIP3    H230176   1.710   5.493   6.509  0.2249  0.0793  1.1559
 2921TIP3   OH230177   4.087   1.967  12.601  0.1805 -0.2782  0.1188
 2921TIP3    H130178   4.127   2.041  12.647 -0.3708  1.9730 -2.7242
 2921TIP3    H230179   4.039   1.920  12.669  2.0874  0.8626  2.3904
 2922TIP3   OH230180   2.543   5.218   4.990  0.6393 -0.0465  0.2974
 2922TIP3    H130181   2.596   5.297   4.984 -0.7138  0.8385 -0.6695
 2922TIP3    H230182   2.459   5.249   5.025  0.3314 -1.1837  0.5946
 2923TIP3   OH230183   0.239   3.644   4.580 -0.0803  0.1376  0.2177
 2923TIP3    H130184   0.174   3.714   4.577  1.7685  1.9634  0.4926
 2923TIP3    H230185   0.228   3.604   4.667 -2.0533 -0.9001 -0.4509
 2924TIP3   OH230186   6.370   0.441   3.079 -0.2401 -0.4010 -0.2793
 2924TIP3    H130187   6.284   0.443   3.122 -0.2892 -1.5873 -0.2769
 2924TIP3    H230188   6.410   0.525   3.101 -1.9393  0.7630 -1.4446
 2925TIP3   OH230189   6.556   0.158  16.758  0.0685 -0.0258  0.0056
 2925TIP3    H130190   6.562   0.066  16.783 -0.8936  0.3783  1.9237
 2925TIP3    H230191   6.642   0.179  16.721  0.6581 -1.4141  0.5307
 2926TIP3   OH230192   1.234   3.825  13.947 -0.3103  0.3062 -0.5303
 2926TIP3    H130193   1.271   3.816  13.859 -0.0425  1.1636 -0.5153
 2926TIP3    H230194   1.181   3.905  13.943 -3.4610 -1.6765 -0.9698
 2927TIP3   OH230195   3.261   2.596   4.101 -1.0330  0.3246  0.4914
 2927TIP3    H130196   3.307   2.639   4.173  0.9836 -1.2369  0.2390
 2927TIP3    H230197   3.324   2.598   4.029 -1.6019 -1.3187 -0.0991
 2928TIP3   OH230198   2.956   4.713   4.057  0.1595  0.2993 -0.0078
 2928TIP3    H130199   3.050   4.703   4.045 -0.0180 -0.8173 -0.6242
 2928TIP3    H230200   2.946   4.799   4.098  1.3153  1.2743 -1.6367
 2929TIP3   OH230201   2.789   3.177  16.336 -0.0942 -0.5156  0.1350
 2929TIP3    H130202   2.789   3.166  16.241  0.5631 -1.5329  0.2363
 2929TIP3    H230203   2.795   3.088  16.370  1.5671 -0.0676  1.1082
 2930TIP3   OH230204   1.867   4.111   5.579  0.2801 -0.2604  0.6114
 2930TIP3    H130205   1.887   4.029   5.623 -1.4949 -0.1008  1.8297
 2930TIP3    H230206   1.916   4.177   5.628  0.3452 -0.3925  0.7257
 2931TIP3   OH230207   6.197   2.460  15.208 -0.3093  0.5277  0.7655
 2931TIP3    H130208   6.223   2.370  15.229 -0.5072  0.0209 -1.0292
 2931TIP3    H230209   6.247   2.514  15.270  3.2253 -0.5570 -0.8897
 2932TIP3   OH230210   4.985   6.152   0.222 -0.4375 -0.3636 -0.1937
 2932TIP3    H130211   4.948   6.203   0.150 -0.1675  0.1810  0.0487
 2932TIP3    H230212   4.929   6.075   0.228 -0.5129 -0.3669 -0.9277
 2933TIP3   OH230213   5.522   1.632   0.311  0.2867  0.1804  0.1321
 2933TIP3    H130214   5.563   1.598   0.391  1.3655  0.6508 -0.2104
 2933TIP3    H230215   5.481   1.555   0.271  0.6019 -0.2516  0.6199
 2934TIP3   OH230216   2.501   3.883   3.076  0.1392  0.2350 -0.0619
 2934TIP3    H130217   2.457   3.859   2.995 -0.6472  1.1256  0.0839
 2934TIP3    H230218   2.511   3.801   3.124 -1.4383  0.0134 -0.0713
 2935TIP3   OH230219   0.201   5.794   4.997  0.2075  0.2920  0.4791
 2935TIP3    H130220   0.138   5.815   5.065  1.4408  0.8185  1.4935
 2935TIP3    H230221   0.148   5.756   4.926 -0.9262 -2.2372  2.4996
 2936TIP3   OH230222   3.055   0.100   5.199  0.3814  0.0685  0.6052
 2936TIP3    H130223   3.083   0.186   5.232  1.3291  0.1423 -0.3556
 2936TIP3    H230224   2.975   0.080   5.249 -1.2352  2.5699 -0.7380
 2937TIP3   OH230225   4.412   5.360   6.020  0.1787 -0.2155 -0.0484
 2937TIP3    H130226   4.398   5.423   6.092  0.4117 -0.2556  0.0310
 2937TIP3    H230227   4.493   5.389   5.978 -0.2723  0.1624 -0.6652
 2938TIP3   OH230228   4.170   5.872   6.459  0.0250  0.2240 -0.6488
 2938TIP3    H130229   4.242   5.916   6.504  0.3873  0.5627 -1.5391
 2938TIP3    H230230   4.155   5.925   6.381 -1.0771  0.0532 -0.5597
 2939TIP3   OH230231   1.691   1.169  14.233 -0.5164  0.0185  0.6666
 2939TIP3    H130232   1.614   1.220  14.206  0.0223  1.5503  1.9136
 2939TIP3    H230233   1.764   1.231  14.227  0.6158 -1.3429 -0.2541
 2940TIP3   OH230234   3.341   6.446   1.270 -0.0127 -0.1111 -0.1625
 2940TIP3    H130235   3.336   6.481   1.181  0.7300 -0.0601 -0.1907
 2940TIP3    H230236   3.434   6.451   1.293 -0.2237  0.0345  0.6860
 2941TIP3   OH230237   4.710   1.902   5.170  0.8571 -0.1581 -0.1342
 2941TIP3    H130238   4.630   1.937   5.132  1.6881  2.9330  0.7007
 2941TIP3    H230239   4.680   1.832   5.228 -1.0513 -0.1401 -1.0175
 2942TIP3   OH230240   4.233   6.443   3.505 -0.1310 -1.1570 -0.7495
 2942TIP3    H130241   4.322   6.462   3.535 -0.4412  1.6770 -1.3047
 2942TIP3    H230242   4.205   6.368   3.557  1.8081 -0.7563  1.0078
 2943TIP3   OH230243   3.960   3.455  11.629 -0.0141  0.2311  0.4963
 2943TIP3    H130244   3.865   3.449  11.638  0.1732 -2.9231  1.6036
 2943TIP3    H230245   3.975   3.466  11.535 -1.5078 -2.9956 -0.2591
 2944TIP3   OH230246   5.078   4.992  16.808 -0.2555 -0.2745  0.4470
 2944TIP3    H130247   5.085   5.079  16.847  1.6081 -0.1522 -0.0648
 2944TIP3    H230248   5.083   4.932  16.883 -1.4991  0.0405  0.7960
 2945TIP3   OH230249   3.983   3.524  16.317 -0.3907  1.1534 -0.2463
 2945TIP3    H130250   3.977   3.429  16.307  1.1552  0.9300  0.6574
 2945TIP3    H230251   3.956   3.558  16.231  1.3716 -0.2165 -1.4310
 2946TIP3   OH230252   3.888   1.971   0.743  0.5964 -0.8457  0.2235
 2946TIP3    H130253   3.968   2.022   0.733 -0.6746  0.8966 -1.8815
 2946TIP3    H230254   3.822   2.034   0.771 -0.6119 -1.7051 -0.5709
 2947TIP3   OH230255   1.397   2.293   3.309 -0.9703  0.0466 -0.4933
 2947TIP3    H130256   1.414   2.265   3.399 -0.6424  1.1148 -0.2124
 2947TIP3    H230257   1.480   2.280   3.263 -0.5040  1.4673 -0.1088
 2948TIP3   OH230258   4.264   1.106  15.487  0.1398 -0.2094  0.0493
 2948TIP3    H130259   4.278   1.152  15.405 -0.9951  0.9941  0.4921
 2948TIP3    H230260   4.349   1.066  15.508  0.0154 -2.0699 -2.5534
 2949TIP3   OH230261   3.606   3.273  13.239  0.0487  0.5537 -0.2487
 2949TIP3    H130262   3.674   3.225  13.191 -0.0954  0.2487 -0.1474
 2949TIP3    H230263   3.641   3.362  13.246  1.7178 -0.2010  2.2218
 2950TIP3   OH230264   0.720   5.486   3.627  0.0360 -0.4981 -0.0937
 2950TIP3    H130265   0.719   5.401   3.670 -2.4387  0.2804  1.6049
 2950TIP3    H230266   0.746   5.467   3.537  0.9913 -2.8080  0.5920
 2951TIP3   OH230267   1.772   0.914  15.055  0.5260  0.3777 -0.3289
 2951TIP3    H130268   1.829   0.973  15.005  0.6525  0.5444  0.0089
 2951TIP3    H230269   1.812   0.828  15.044  0.6888  0.4504 -0.3253
 2952TIP3   OH230270   6.115   5.888  16.788  0.2954 -0.3975  0.2513
 2952TIP3    H130271   6.183   5.860  16.849  2.0326  1.2933 -0.8307
 2952TIP3    H230272   6.074   5.964  16.830 -0.2533 -0.7839  0.4302
 2953TIP3   OH230273   0.175   3.983  13.090  0.0007 -0.0553 -0.4332
 2953TIP3    H130274   0.112   3.952  13.025  0.2077  1.0522 -1.1938
 2953TIP3    H230275   0.136   3.961  13.174  0.0391 -2.1323 -0.8986
 2954TIP3   OH230276   4.104   2.876  12.203  0.1421  0.3027  0.2317
 2954TIP3    H130277   4.061   2.833  12.129 -1.5953  0.6335  1.0162
 2954TIP3    H230278   4.116   2.806  12.267 -1.6540  0.6926  1.0514
 2955TIP3   OH230279   4.077   3.152  12.511  0.0266  0.1210 -0.3123
 2955TIP3    H130280   4.040   3.215  12.573  0.3100 -0.3008  0.2919
 2955TIP3    H230281   4.081   3.070  12.559 -0.4558 -0.3930 -1.1420
 2956TIP3   OH230282   0.825   1.323   3.859 -0.5176  0.5817 -0.5121
 2956TIP3    H130283   0.805   1.313   3.766  0.9373  1.4780 -0.9604
 2956TIP3    H230284   0.830   1.234   3.892  0.1815  0.2011 -1.5875
 2957TIP3   OH230285   4.207   3.245   3.058 -0.4647  0.1006 -0.1974
 2957TIP3    H130286   4.179   3.154   3.047 -2.7624  0.5778  1.0813
 2957TIP3    H230287   4.161   3.292   2.989 -1.9995  0.7310  1.1936
 2958TIP3   OH230288   5.606   3.263   5.159  0.3672 -0.0047 -0.1110
 2958TIP3    H130289   5.542   3.319   5.115  0.3802  1.3041  1.4465
 2958TIP3    H230290   5.685   3.315   5.162  1.4361 -1.4352 -1.5950
 2959TIP3   OH230291   1.741   2.736   1.475  0.0201  0.5705  0.0506
 2959TIP3    H130292   1.695   2.656   1.498  0.7951 -0.9909 -3.3332
 2959TIP3    H230293   1.702   2.764   1.393  1.3133  2.4141  0.0092
 2960TIP3   OH230294   5.285   0.715  12.050  0.2010 -0.1680  0.1763
 2960TIP3    H130295   5.366   0.708  12.000 -0.0035 -0.2242 -0.1476
 2960TIP3    H230296   5.217   0.688  11.989 -0.2532  1.4329 -0.0589
 2961TIP3   OH230297   2.118   0.748   5.176 -0.1903  0.0746  0.2707
 2961TIP3    H130298   2.164   0.828   5.150  1.7265 -0.6327  1.2726
 2961TIP3    H230299   2.177   0.705   5.237 -0.8806 -2.4320 -0.6903
 2962TIP3   OH230300   1.366   6.344   3.554  0.4819 -0.8024  0.3847
 2962TIP3    H130301   1.279   6.334   3.516  0.4893  0.3180  0.0218
 2962TIP3    H230302   1.363   6.294   3.636 -1.0063  0.4406  1.1511
 2963TIP3   OH230303   4.205   1.096  12.755  0.4220 -0.7631 -0.1863
 2963TIP3    H130304   4.215   1.092  12.850  0.5584  1.8469 -0.0017
 2963TIP3    H230305   4.249   1.178  12.730 -1.7047 -0.1233 -2.1553
 2964TIP3   OH230306   1.182   1.463   3.122  0.0800 -0.1842 -0.2154
 2964TIP3    H130307   1.089   1.467   3.099 -0.2515  0.9330  1.1504
 2964TIP3    H230308   1.228   1.470   3.039 -1.0655  0.0103 -0.8550
 2965TIP3   OH230309   4.591   4.375   4.072  0.4444 -0.0803 -0.3694
 2965TIP3    H130310   4.644   4.326   4.135 -0.1254 -0.0941  0.1113
 2965TIP3    H230311   4.505   4.333   4.075 -0.0365  0.8870  0.0060
 2966TIP3   OH230312   6.568   1.131  10.950  0.3074  0.1052 -0.1621
 2966TIP3    H130313   6.542   1.049  10.909  0.6662 -0.5330  0.8632
 2966TIP3    H230314   6.488   1.184  10.951 -0.4923 -1.0571  1.1011
 2967TIP3   OH230315   0.069   1.174  16.024 -0.4809  0.3909  0.1128
 2967TIP3    H130316  -0.017   1.209  16.048 -0.0253  1.4652  0.2528
 2967TIP3    H230317   0.129   1.248  16.037  0.0303  0.6413 -3.0253
 2968TIP3   OH230318   0.191   4.661   6.310 -0.1795 -0.3883 -0.1895
 2968TIP3    H130319   0.248   4.721   6.262  1.3496 -1.1276  0.6379
 2968TIP3    H230320   0.106   4.705   6.311  1.2187  2.6433  1.8973
 2969TIP3   OH230321   2.344   4.483   1.526 -0.3361 -0.1000 -0.0112
 2969TIP3    H130322   2.326   4.405   1.475 -3.3216  0.5104 -0.0617
 2969TIP3    H230323   2.271   4.488   1.589  0.2071  2.1816  0.5323
 2970TIP3   OH230324   6.324   5.925  16.590 -0.3446 -0.1476 -0.3528
 2970TIP3    H130325   6.296   5.903  16.501 -1.9583  2.4137 -0.5852
 2970TIP3    H230326   6.244   5.922  16.642  0.3692 -0.3736  0.7888
 2971TIP3   OH230327   1.515   2.436  13.286  0.7224 -0.2197 -0.1447
 2971TIP3    H130328   1.459   2.359  13.273  1.2219 -0.5836 -0.1982
 2971TIP3    H230329   1.547   2.428  13.376 -0.6224  0.8832  0.4645
 2972TIP3   OH230330   1.237   3.743  15.341  0.1106 -0.0708 -0.1305
 2972TIP3    H130331   1.324   3.710  15.320  0.9700  0.0097  2.8157
 2972TIP3    H230332   1.182   3.714  15.268  2.0055 -2.7408 -0.6713
 2973TIP3   OH230333   4.468   6.232  16.336  0.2169 -0.0443 -0.5081
 2973TIP3    H130334   4.450   6.321  16.367  2.2411  0.0164  0.7041
 2973TIP3    H230335   4.455   6.236  16.242 -0.0487  1.4558 -0.4341
 2974TIP3   OH230336   1.282   0.638  13.105  0.0047 -0.0216  0.2540
 2974TIP3    H130337   1.270   0.694  13.029  0.8806 -1.6015 -1.1026
 2974TIP3    H230338   1.209   0.577  13.102  1.3954 -1.7418 -0.8916
 2975TIP3   OH230339   6.241   4.305   2.283  0.4828 -0.2522  0.0266
 2975TIP3    H130340   6.276   4.363   2.351  2.2232  1.2105 -1.9656
 2975TIP3    H230341   6.153   4.340   2.265  0.1207 -0.4778  1.2964
 2976TIP3   OH230342   5.936   0.980  14.516 -0.1264  0.5843 -0.4270
 2976TIP3    H130343   5.997   0.915  14.550 -0.7918 -1.0666 -2.2381
 2976TIP3    H230344   5.854   0.963  14.562 -0.4078 -0.1479 -1.1817
 2977TIP3   OH230345   5.321   3.028   5.976  0.7165  0.0628  0.5372
 2977TIP3    H130346   5.270   3.042   6.056  0.7935  1.1670  0.4103
 2977TIP3    H230347   5.386   2.962   6.000 -0.0166 -0.4877  1.0411
 2978TIP3   OH230348   3.678   5.724  13.226 -0.2309  0.3081 -0.4110
 2978TIP3    H130349   3.659   5.816  13.211 -1.4456  0.3852  1.3241
 2978TIP3    H230350   3.624   5.700  13.301  0.6553 -1.6170 -0.3235
 2979TIP3   OH230351   2.077   6.729   2.476 -0.1146  0.1829 -0.0017
 2979TIP3    H130352   2.126   6.752   2.397  0.6683 -0.8485  0.1682
 2979TIP3    H230353   1.988   6.713   2.445  0.4137 -1.2629 -0.8717
 2980TIP3   OH230354   4.929   6.736   0.379 -0.3418  0.3836  0.4385
 2980TIP3    H130355   4.997   6.773   0.322 -1.5625  1.7466 -0.1999
 2980TIP3    H230356   4.930   6.643   0.361 -2.1288  0.9557 -3.5565
 2981TIP3   OH230357   4.365   5.635  11.976  0.0132  0.5922  0.5041
 2981TIP3    H130358   4.307   5.711  11.976 -0.1694  0.4861 -0.7267
 2981TIP3    H230359   4.415   5.643  12.057  0.6699  2.5593 -0.0277
 2982TIP3   OH230360   0.890   1.996  13.703 -0.2028 -0.4296 -0.2145
 2982TIP3    H130361   0.909   2.011  13.611 -2.5125 -1.3418 -0.9019
 2982TIP3    H230362   0.880   1.901  13.711 -1.0209 -0.2765  0.7523
 2983TIP3   OH230363   2.750   2.064   2.850 -0.0088  0.2560  0.8989
 2983TIP3    H130364   2.809   1.994   2.878 -0.6447 -1.3137 -1.4556
 2983TIP3    H230365   2.769   2.077   2.758 -2.5819  0.4074  0.2970
 2984TIP3   OH230366   1.372   4.713   0.206 -0.0763 -0.0657 -0.0323
 2984TIP3    H130367   1.295   4.768   0.191  0.3986  0.3919 -0.8837
 2984TIP3    H230368   1.435   4.771   0.248 -0.0425 -0.3248  0.2768
 2985TIP3   OH230369   0.572   1.458  17.288  0.0179 -0.2167 -0.5385
 2985TIP3    H130370   0.486   1.500  17.280 -0.4266 -0.9893  0.0574
 2985TIP3    H230371   0.596   1.470  17.380  0.3211 -0.4368 -0.5905
 2986TIP3   OH230372   5.579   0.185   1.206  0.1359 -0.4179  0.4923
 2986TIP3    H130373   5.593   0.146   1.120  1.1926  1.3849 -0.2104
 2986TIP3    H230374   5.484   0.197   1.211  0.1379  0.5726 -0.9938
 2987TIP3   OH230375   1.637   4.509  12.150 -0.2386  0.2180  0.4785
 2987TIP3    H130376   1.693   4.450  12.098 -0.8151  2.6612 -3.3540
 2987TIP3    H230377   1.695   4.543  12.218  1.2122 -1.6530  0.2668
 2988TIP3   OH230378   4.013   6.657  15.038 -0.0745  0.3305  0.2414
 2988TIP3    H130379   3.979   6.611  14.961 -0.6850 -1.0042  1.2599
 2988TIP3    H230380   3.939   6.657  15.100  1.1279 -0.8223  1.7419
 2989TIP3   OH230381   0.993   4.075  15.778 -1.2461 -0.1629 -0.5190
 2989TIP3    H130382   0.905   4.049  15.749 -2.0949  1.0153  0.8576
 2989TIP3    H230383   0.989   4.170  15.782  0.1360 -0.0975 -0.4939
 2990TIP3   OH230384   3.396   1.454   5.320 -0.5791 -0.0905 -0.1053
 2990TIP3    H130385   3.456   1.526   5.302  1.3908 -1.6760 -0.3005
 2990TIP3    H230386   3.310   1.494   5.324  0.3517  2.1335 -0.9778
 2991TIP3   OH230387   3.389   0.143   3.078 -0.2247  0.0953  0.0180
 2991TIP3    H130388   3.422   0.230   3.054  2.0213 -0.6760  0.0334
 2991TIP3    H230389   3.407   0.088   3.001 -0.3199 -0.6556  0.5187
 2992TIP3   OH230390   1.925   5.080   6.538  0.1829  0.3402  0.0424
 2992TIP3    H130391   1.878   5.014   6.486  2.4012 -1.6766  0.3861
 2992TIP3    H230392   1.942   5.151   6.477 -0.8105 -0.1521 -0.8477
 2993TIP3   OH230393   2.412   0.373   5.260  0.4372  0.0819 -0.1635
 2993TIP3    H130394   2.350   0.351   5.191  0.3440 -0.0607 -0.0338
 2993TIP3    H230395   2.480   0.306   5.253  0.6344  0.3027 -0.3779
 2994TIP3   OH230396   0.069   4.617   5.113  0.1111 -0.5925  0.1650
 2994TIP3    H130397   0.054   4.545   5.174 -2.2469 -0.1878  0.1888
 2994TIP3    H230398  -0.008   4.614   5.055  1.8423 -0.4545 -2.3075
 2995TIP3   OH230399   1.749   0.047  13.408  0.1242  0.1076  0.1939
 2995TIP3    H130400   1.729  -0.025  13.347  1.3752 -1.3121  1.3748
 2995TIP3    H230401   1.750   0.005  13.494  3.4563  0.9634  0.6794
 2996TIP3   OH230402   6.247   5.352  16.336  0.6229  0.1290 -0.1377
 2996TIP3    H130403   6.254   5.363  16.431 -1.8887 -0.0302  0.1417
 2996TIP3    H230404   6.275   5.262  16.320 -0.8066 -0.5251  0.7795
 2997TIP3   OH230405   2.865   2.644  15.654  0.0485  0.1558 -0.2650
 2997TIP3    H130406   2.917   2.701  15.598  0.6562 -0.3382 -0.2113
 2997TIP3    H230407   2.793   2.614  15.599 -0.9700  1.9149  0.0439
 2998TIP3   OH230408   3.495   5.548   3.975  0.8090  0.2698  0.5026
 2998TIP3    H130409   3.435   5.559   4.048 -0.2250  1.1286 -0.4423
 2998TIP3    H230410   3.577   5.589   4.005  0.8368 -0.5943  1.6609
 2999TIP3   OH230411   4.828   3.900   5.990  0.0294 -0.1539  0.1771
 2999TIP3    H130412   4.747   3.906   6.041 -0.1412 -0.4569 -0.0543
 2999TIP3    H230413   4.887   3.964   6.030  0.1797 -0.9575  1.2637
 3000TIP3   OH230414   5.443   3.597   2.228  0.2264 -0.1867  0.7135
 3000TIP3    H130415   5.424   3.683   2.264 -1.7558 -0.8685  1.4125
 3000TIP3    H230416   5.537   3.599   2.211 -0.0632  2.8846 -1.3934
 3001TIP3   OH230417   2.526   4.162  13.168 -0.1754  0.1890 -0.3640
 3001TIP3    H130418   2.595   4.131  13.227  0.6730  0.6849 -1.0713
 3001TIP3    H230419   2.448   4.112  13.194  0.5509 -0.7011  0.1699
 3002TIP3   OH230420   6.695   5.800   3.306 -0.3667 -0.0644  0.6250
 3002TIP3    H130421   6.753   5.856   3.357 -2.1802  0.7174  1.9689
 3002TIP3    H230422   6.675   5.727   3.365  1.0956 -1.6227 -0.7102
 3003TIP3   OH230423   6.358   2.525   3.765 -0.3633 -0.7253  0.5277
 3003TIP3    H130424   6.387   2.558   3.680 -3.3705 -0.0663 -0.3625
 3003TIP3    H230425   6.321   2.439   3.747 -1.7976 -0.2297  0.9670
 3004TIP3   OH230426   1.415   4.151  15.973  0.0731 -0.9305  0.6840
 3004TIP3    H130427   1.359   4.128  15.899 -0.5222  1.0703  0.4474
 3004TIP3    H230428   1.502   4.162  15.934 -0.5385  1.7332 -0.1129
 3005TIP3   OH230429   1.111   0.439   3.738 -0.5487  0.3068 -0.0838
 3005TIP3    H130430   1.149   0.525   3.722 -1.6247  1.0667  1.1987
 3005TIP3    H230431   1.167   0.400   3.805 -0.3133  0.1870 -0.3499
 3006TIP3   OH230432   1.067   2.560  14.053 -0.1424 -0.2782  0.4610
 3006TIP3    H130433   1.032   2.475  14.081  2.3018 -1.8278 -0.8769
 3006TIP3    H230434   1.039   2.568  13.961  1.7431 -0.8998 -0.2042
 3007TIP3   OH230435   3.681   2.387   1.358 -0.1406  0.9878  0.4321
 3007TIP3    H130436   3.682   2.343   1.443 -2.4026 -2.1408 -0.9618
 3007TIP3    H230437   3.773   2.388   1.331  0.1950 -2.7820  0.7886
 3008TIP3   OH230438   4.243   6.398   0.089  0.6511  0.3938  0.2445
 3008TIP3    H130439   4.264   6.309   0.119 -2.2156 -0.2385  0.6178
 3008TIP3    H230440   4.311   6.418   0.025  1.7823 -1.7817  0.6816
 3009TIP3   OH230441   3.433   2.822  14.586  0.9540 -0.2007  0.0883
 3009TIP3    H130442   3.372   2.749  14.577  0.9850 -0.2006 -0.1203
 3009TIP3    H230443   3.507   2.799  14.531  1.1694 -0.2273  0.3869
 3010TIP3   OH230444   0.709   1.267   2.708 -0.6205 -0.3746 -0.6472
 3010TIP3    H130445   0.712   1.177   2.741 -1.1542  0.0314  0.5517
 3010TIP3    H230446   0.801   1.290   2.692 -0.1780 -0.1276  1.8926
 3011TIP3   OH230447   0.523   5.738   6.565  0.4098 -0.5675 -0.2218
 3011TIP3    H130448   0.431   5.719   6.580  0.8469 -2.8057 -0.0019
 3011TIP3    H230449   0.523   5.816   6.510 -1.5610  0.0715  0.6062
 3012TIP3   OH230450   5.889   2.169  15.104 -0.1939 -0.0106 -0.0796
 3012TIP3    H130451   5.799   2.136  15.108  0.4633 -1.8635  0.7877
 3012TIP3    H230452   5.896   2.210  15.018 -1.8554  0.2038 -0.1549
 3013TIP3   OH230453   1.351   5.618  15.085  0.2112 -0.2027 -0.4158
 3013TIP3    H130454   1.389   5.628  14.998  2.1437  0.2225  0.4278
 3013TIP3    H230455   1.295   5.541  15.078 -0.1257  0.1651 -2.1628
 3014TIP3   OH230456   2.984   2.394   0.191  0.1723  0.2613 -0.6999
 3014TIP3    H130457   2.897   2.428   0.212  0.1301  0.3638 -1.0448
 3014TIP3    H230458   3.016   2.451   0.121  0.8382  0.7206 -0.0354
 3015TIP3   OH230459   5.451   2.516   0.362  0.5394  0.7276  0.4514
 3015TIP3    H130460   5.496   2.532   0.280  0.0939  4.1181  0.6904
 3015TIP3    H230461   5.521   2.505   0.427  0.9175  0.2552 -0.0341
 3016TIP3   OH230462   3.760   2.142  13.803  0.0466 -0.3787  0.3736
 3016TIP3    H130463   3.829   2.075  13.806  0.6025  0.2126  1.8221
 3016TIP3    H230464   3.682   2.096  13.832  0.4940 -0.3647  1.6720
 3017TIP3   OH230465   2.244   2.961   2.016 -0.5696  0.3179 -0.0321
 3017TIP3    H130466   2.211   3.050   2.005 -1.2235  0.2318  1.1067
 3017TIP3    H230467   2.330   2.962   1.974  0.1101  1.9229  1.2986
 3018TIP3   OH230468   4.139   3.645   6.587  0.2223 -0.1438 -0.4882
 3018TIP3    H130469   4.200   3.572   6.599  1.2471  0.7100 -0.3770
 3018TIP3    H230470   4.178   3.717   6.636 -1.2980  0.2014  0.2570
 3019TIP3   OH230471   6.112   5.582  11.320  0.2531  0.0256 -0.1214
 3019TIP3    H130472   6.198   5.545  11.303  0.6008  0.5197  0.4910
 3019TIP3    H230473   6.081   5.536  11.398 -0.4162 -0.7558 -0.8356
 3020TIP3   OH230474   6.589   2.807  10.986 -0.7532  0.0805  0.1036
 3020TIP3    H130475   6.639   2.881  10.951 -1.7289  1.5832  1.6949
 3020TIP3    H230476   6.498   2.836  10.982 -1.3178 -1.6479 -0.5502
 3021TIP3   OH230477   1.288   3.518   6.277 -0.1767 -0.6377 -0.0150
 3021TIP3    H130478   1.357   3.452   6.282  0.3327 -0.1062  0.1456
 3021TIP3    H230479   1.319   3.580   6.211 -1.6822 -1.7088 -1.8174
 3022TIP3   OH230480   3.262   5.196   4.953  0.9221  0.6131  0.7865
 3022TIP3    H130481   3.352   5.165   4.958  1.2219  1.1641 -0.6239
 3022TIP3    H230482   3.252   5.256   5.027  1.2193 -0.6226  1.8499
 3023TIP3   OH230483   0.867   5.728   2.403  0.3056  0.5395 -0.1978
 3023TIP3    H130484   0.849   5.640   2.368  0.3382  1.0121 -1.4685
 3023TIP3    H230485   0.806   5.738   2.476  0.1539 -0.4582 -0.1800
 3024TIP3   OH230486   0.136   4.309  12.572  0.0478 -0.6761 -0.1314
 3024TIP3    H130487   0.151   4.225  12.616 -0.5203 -0.4788  0.4555
 3024TIP3    H230488   0.221   4.330  12.532  1.1505 -0.0299  2.3386
 3025TIP3   OH230489   2.658   1.227  15.298  0.3133  0.1409 -0.2569
 3025TIP3    H130490   2.634   1.318  15.317 -2.2984 -0.2354 -1.3466
 3025TIP3    H230491   2.626   1.212  15.210  1.3536 -1.6666 -0.3728
 3026TIP3   OH230492   5.244   4.394  16.930  0.2874  0.4579  0.5155
 3026TIP3    H130493   5.204   4.370  16.846 -2.3344  1.7732  1.2734
 3026TIP3    H230494   5.236   4.489  16.934  0.3212  0.4154  2.2529
 3027TIP3   OH230495   3.439   2.183   1.659 -0.3193 -0.0858  0.3913
 3027TIP3    H130496   3.501   2.201   1.729 -0.0341 -0.1188  0.1504
 3027TIP3    H230497   3.370   2.131   1.700 -0.2982  0.1325  0.7091
 3028TIP3   OH230498   1.719   3.220  15.229 -0.1290  0.1991  0.0488
 3028TIP3    H130499   1.706   3.126  15.240 -0.5130  0.3739  1.2507
 3028TIP3    H230500   1.664   3.260  15.296 -1.0246  1.3508 -1.3178
 3029TIP3   OH230501   3.523   5.879  14.208  0.3162  0.7713  0.1259
 3029TIP3    H130502   3.433   5.857  14.184  0.7719 -1.1718  0.0675
 3029TIP3    H230503   3.556   5.930  14.134  0.4799 -1.8975 -1.7602
 3030TIP3   OH230504   5.365   2.542  13.125  0.1286  0.0582  0.4218
 3030TIP3    H130505   5.279   2.500  13.138 -0.2224  1.1384  1.9160
 3030TIP3    H230506   5.425   2.469  13.111 -1.1493 -0.6775 -1.6574
 3031TIP3   OH230507   0.982   6.045   0.198  0.2152 -0.2888  0.1279
 3031TIP3    H130508   0.988   5.968   0.141 -0.1519 -0.1078 -0.1547
 3031TIP3    H230509   1.071   6.081   0.198  0.6684 -1.3338  1.1446
 3032TIP3   OH230510   2.509   1.929  17.094  0.0511  0.1865 -0.2075
 3032TIP3    H130511   2.437   1.871  17.121  0.2544 -0.3765 -0.8499
 3032TIP3    H230512   2.548   1.885  17.019  2.5267 -0.7229  1.4783
 3033TIP3   OH230513   4.451   0.176   2.969 -0.4900 -0.6242  0.5159
 3033TIP3    H130514   4.382   0.200   3.032 -1.2134 -1.3110  0.0061
 3033TIP3    H230515   4.523   0.145   3.024 -0.7940 -0.4120  1.0429
 3034TIP3   OH230516   0.392   1.011   0.900  0.1497  0.6798  0.6998
 3034TIP3    H130517   0.378   0.929   0.949  0.4739 -0.5330 -1.1164
 3034TIP3    H230518   0.314   1.063   0.918  0.5097  0.5644  2.9290
 3035TIP3   OH230519   3.560   5.687  14.433  0.1978  0.1123 -0.1792
 3035TIP3    H130520   3.617   5.639  14.373 -2.4350 -0.9516 -1.9855
 3035TIP3    H230521   3.541   5.769  14.387  0.5361  0.6468  0.6010
 3036TIP3   OH230522   2.588   1.526   5.413  0.0590 -0.3812 -0.9303
 3036TIP3    H130523   2.666   1.546   5.465 -1.7779  0.7729  1.5635
 3036TIP3    H230524   2.559   1.441   5.445 -0.8545  0.1531 -0.2806
 3037TIP3   OH230525   3.509   6.578  13.340 -0.5765 -0.2351 -0.6966
 3037TIP3    H130526   3.451   6.540  13.275  0.0951  0.5317 -1.7698
 3037TIP3    H230527   3.477   6.667  13.353 -1.5141 -0.7782  1.0392
 3038TIP3   OH230528   2.952   1.940   0.002 -0.1874 -0.1489  0.8187
 3038TIP3    H130529   2.925   1.849  -0.012  1.0966 -0.4368  0.0726
 3038TIP3    H230530   2.888   1.991  -0.048 -0.5640 -0.6689  0.7512
 3039TIP3   OH230531   5.324   1.342   2.581  0.5632 -0.1224  0.0589
 3039TIP3    H130532   5.247   1.378   2.538  0.4394  2.6512  2.2541
 3039TIP3    H230533   5.383   1.318   2.510 -1.0680  0.6100 -1.6305
 3040TIP3   OH230534   2.191   1.518   4.539  0.1503 -0.5304  0.3575
 3040TIP3    H130535   2.117   1.477   4.583 -1.3587  0.5177 -1.0870
 3040TIP3    H230536   2.176   1.503   4.446  1.2837  0.4712 -0.0186
 3041TIP3   OH230537   4.371   6.030  15.685  0.0556 -0.3826  0.4451
 3041TIP3    H130538   4.286   5.997  15.714 -0.2748 -0.1768 -0.2585
 3041TIP3    H230539   4.431   6.010  15.757 -0.9360  1.0361  1.7281
 3042TIP3   OH230540   2.711   5.639   4.428 -0.5440 -0.2526  0.2017
 3042TIP3    H130541   2.709   5.633   4.332 -2.5971  0.5536  0.1389
 3042TIP3    H230542   2.700   5.549   4.457 -1.2162 -0.3686 -0.3629
 3043TIP3   OH230543   2.028   2.799  16.586  0.3255 -0.1605 -0.0312
 3043TIP3    H130544   1.979   2.821  16.666 -0.1787  0.5547 -0.5248
 3043TIP3    H230545   1.960   2.778  16.522  0.7364 -0.9891 -0.2082
 3044TIP3   OH230546   1.192   0.398  16.216  0.0714  0.1417 -0.0782
 3044TIP3    H130547   1.136   0.376  16.291  2.7731 -1.0035  1.7763
 3044TIP3    H230548   1.270   0.438  16.255  1.8470 -1.0465 -2.1720
 3045TIP3   OH230549   4.477   5.307  16.095  0.1707  0.3737  0.1144
 3045TIP3    H130550   4.397   5.328  16.047 -0.4529  0.8100  1.2726
 3045TIP3    H230551   4.539   5.277  16.029 -1.3468 -1.2097 -0.6734
 3046TIP3   OH230552   3.267   2.399  15.134 -0.1936 -0.2137 -0.2115
 3046TIP3    H130553   3.323   2.396  15.211  0.2884  1.5476 -0.4366
 3046TIP3    H230554   3.303   2.470  15.080 -0.9818 -0.8794 -1.6934
 3047TIP3   OH230555   0.891   4.245  14.067  0.1967  0.2621  0.0469
 3047TIP3    H130556   0.890   4.333  14.103  1.4389  1.0008 -1.5664
 3047TIP3    H230557   0.811   4.240  14.013  1.8081  1.8013 -2.7443
 3048TIP3   OH230558   4.316   4.414  13.859 -0.2604 -0.0199 -0.1611
 3048TIP3    H130559   4.258   4.422  13.935 -0.1648 -2.8002  0.2943
 3048TIP3    H230560   4.400   4.386  13.895  1.0664  2.5666 -0.9693
 3049TIP3   OH230561   5.419   5.251  17.178 -0.1308 -0.2523  0.3282
 3049TIP3    H130562   5.407   5.240  17.084  0.1002  0.2174  0.2404
 3049TIP3    H230563   5.481   5.323  17.186  1.3859 -1.5408  0.7952
 3050TIP3   OH230564   3.073   5.330  12.557  0.2512  0.1936  0.4192
 3050TIP3    H130565   2.980   5.340  12.573  0.2105  1.4336 -0.4463
 3050TIP3    H230566   3.115   5.393  12.615  0.4512  0.6943 -0.2576
 3051TIP3   OH230567   5.940   3.971   6.199 -0.5349  0.5654  0.0709
 3051TIP3    H130568   5.880   4.036   6.161  0.5884  0.9491 -1.1133
 3051TIP3    H230569   5.915   3.889   6.156  0.3708  0.9005 -1.1748
 3052TIP3   OH230570   5.195   4.840   2.494 -0.3374 -0.0340 -0.5888
 3052TIP3    H130571   5.216   4.750   2.467  1.5519  0.2247 -0.1656
 3052TIP3    H230572   5.240   4.895   2.431 -0.4861  0.6051 -0.1450
 3053TIP3   OH230573   1.992   6.382  12.678 -0.1702  0.0618  0.1122
 3053TIP3    H130574   2.019   6.313  12.739 -1.7604 -0.8785 -0.2139
 3053TIP3    H230575   2.005   6.463  12.727  0.8180 -0.5146  0.8474
 3054TIP3   OH230576   2.965   4.377  14.848 -1.1157 -0.1180  0.3889
 3054TIP3    H130577   3.046   4.392  14.897 -1.1721 -0.6294  0.6469
 3054TIP3    H230578   2.925   4.464  14.840 -2.0693 -0.2385  2.9425
 3055TIP3   OH230579   6.237   5.528   4.131 -0.1409  0.5926  0.1721
 3055TIP3    H130580   6.277   5.548   4.046 -1.6357  1.1106 -0.4379
 3055TIP3    H230581   6.192   5.609   4.156 -1.4927 -0.2175  0.4337
 3056TIP3   OH230582   2.294   6.631  12.954 -0.0576 -0.2596 -0.2515
 3056TIP3    H130583   2.330   6.667  12.873 -0.0137 -2.1432 -1.1231
 3056TIP3    H230584   2.200   6.629  12.940 -0.1317  0.2493  0.1291
 3057TIP3   OH230585   2.802   2.891  17.370 -0.1321  0.3149 -0.1082
 3057TIP3    H130586   2.834   2.855  17.288  0.7330  1.2634 -0.2054
 3057TIP3    H230587   2.738   2.827  17.401  1.2196 -1.2099 -0.3530
 3058TIP3   OH230588   6.468   3.107  12.662 -0.1400  0.5265  0.3506
 3058TIP3    H130589   6.495   3.176  12.723  0.1790  0.6690  0.0550
 3058TIP3    H230590   6.541   3.045  12.663  0.1218  0.8113 -0.3003
 3059TIP3   OH230591   4.998   5.520   5.479 -0.2039  0.6016 -0.9329
 3059TIP3    H130592   4.914   5.474   5.473  0.6130 -1.2151  0.3740
 3059TIP3    H230593   4.982   5.590   5.543 -0.4324 -0.5775  0.3697
 3060TIP3   OH230594   1.801   5.676   2.449 -0.3047 -0.3332  0.0557
 3060TIP3    H130595   1.764   5.587   2.449 -1.7543  0.1839  2.1580
 3060TIP3    H230596   1.859   5.678   2.525 -2.3891  1.2239  1.7276
 3061TIP3   OH230597   6.177   1.586  15.374  0.1306  0.2686 -0.2247
 3061TIP3    H130598   6.099   1.641  15.380 -1.4234 -1.6832 -1.2776
 3061TIP3    H230599   6.223   1.599  15.456 -0.4990  2.6018 -0.1783
 3062TIP3   OH230600   1.829   0.322   4.142 -0.2837 -0.0807 -0.1986
 3062TIP3    H130601   1.760   0.279   4.193  0.9091 -1.1827  0.5308
 3062TIP3    H230602   1.902   0.261   4.145  0.8083  1.1724 -0.7648
 3063TIP3   OH230603   1.405   2.824   3.900 -0.0052 -0.2036  0.2150
 3063TIP3    H130604   1.394   2.911   3.862 -0.8260 -0.0868  0.6961
 3063TIP3    H230605   1.498   2.806   3.892 -0.1595 -0.2927 -2.0932
 3064TIP3   OH230606   3.316   2.065   1.433 -0.0438  0.0903  0.2825
 3064TIP3    H130607   3.374   2.059   1.509 -1.0164 -2.4272  0.9589
 3064TIP3    H230608   3.374   2.053   1.358  0.6120 -0.1232  0.8049
 3065TIP3   OH230609   5.398   1.759  14.022  0.2525 -0.2160  0.3251
 3065TIP3    H130610   5.429   1.672  14.046 -0.0117 -0.2596  0.5166
 3065TIP3    H230611   5.444   1.819  14.081  1.7996 -0.0472 -0.9960
 3066TIP3   OH230612   6.049   6.362  15.444  0.3472  0.1588 -0.0606
 3066TIP3    H130613   6.086   6.450  15.451 -2.2430  1.2424  1.0116
 3066TIP3    H230614   5.967   6.365  15.493 -0.3546 -2.5761 -0.8518
 3067TIP3   OH230615   0.898   5.546   6.112 -0.1192 -0.5333  0.1992
 3067TIP3    H130616   0.883   5.613   6.178  1.1398  0.3327 -0.3532
 3067TIP3    H230617   0.828   5.561   6.047 -0.4165 -0.3853  0.5481
 3068TIP3   OH230618   5.868   0.130   3.589  0.4845  0.1793 -0.0958
 3068TIP3    H130619   5.797   0.118   3.653 -0.1372  2.2177 -0.3263
 3068TIP3    H230620   5.877   0.045   3.547 -0.8083 -0.5274  0.9893
 3069TIP3   OH230621   0.319   6.722  15.855  0.4932 -0.2981 -0.2909
 3069TIP3    H130622   0.323   6.631  15.825  0.3347 -0.5637  0.4895
 3069TIP3    H230623   0.410   6.752  15.852  0.8121 -1.0369  1.1343
 3070TIP3   OH230624   0.570   4.313   1.199  0.7147  0.8940 -0.2580
 3070TIP3    H130625   0.648   4.368   1.191 -0.1762  2.5594  1.5153
 3070TIP3    H230626   0.566   4.291   1.292 -0.2912 -0.1452 -0.5278
 3071TIP3   OH230627   3.972   3.403   6.344 -0.1414 -0.3712  0.6933
 3071TIP3    H130628   4.061   3.422   6.313 -0.4118 -1.2767 -0.7419
 3071TIP3    H230629   3.937   3.488   6.372 -0.0900  0.6653 -2.1334
 3072TIP3   OH230630   3.757   5.026  14.907  0.0687  0.4968  0.1249
 3072TIP3    H130631   3.690   4.959  14.921 -0.2842  0.8782  0.3045
 3072TIP3    H230632   3.839   4.978  14.896 -0.0126  0.0716  1.2770
 3073TIP3   OH230633   3.545   3.362  14.011 -0.4508 -0.0585 -0.1370
 3073TIP3    H130634   3.470   3.309  14.038 -0.4426  0.7590  1.6502
 3073TIP3    H230635   3.508   3.447  13.989 -0.0764  0.3442  0.7379
 3074TIP3   OH230636   1.739   2.709  11.545 -0.1633 -0.1331  0.1097
 3074TIP3    H130637   1.655   2.697  11.590  0.0185  0.7633  0.7214
 3074TIP3    H230638   1.801   2.655  11.595 -0.4405 -1.1327 -0.5959
 3075TIP3   OH230639   5.379   3.969  12.326 -0.4538  0.0565  0.5265
 3075TIP3    H130640   5.324   3.905  12.370  0.3046  1.5447  4.0100
 3075TIP3    H230641   5.416   3.922  12.252 -3.6126 -2.0049  0.0622
 3076TIP3   OH230642   1.581   2.344  11.467  0.6783 -0.5348 -0.3271
 3076TIP3    H130643   1.502   2.319  11.418  0.8232 -1.1349 -0.2591
 3076TIP3    H230644   1.652   2.335  11.403  0.4122  2.5040 -1.1735
 3077TIP3   OH230645   1.603   4.826   1.824  0.6293  0.4138  0.0069
 3077TIP3    H130646   1.680   4.852   1.876  1.4017  0.9571 -1.3644
 3077TIP3    H230647   1.529   4.863   1.872  1.4067  1.8072  0.1937
 3078TIP3   OH230648   0.782   4.819   6.993  0.0589  0.3069 -0.1222
 3078TIP3    H130649   0.826   4.899   7.019 -0.5064  0.4853  0.3016
 3078TIP3    H230650   0.850   4.752   6.994  0.2861  0.5449  0.6779
 3079TIP3   OH230651   1.489   1.635  13.985 -0.3430  0.1869 -0.9390
 3079TIP3    H130652   1.569   1.683  13.963  0.8156 -1.0111  0.4244
 3079TIP3    H230653   1.447   1.617  13.901 -0.1000  2.3225 -1.5717
 3080TIP3   OH230654   1.408   4.330  14.708  0.4288  0.1508  0.0634
 3080TIP3    H130655   1.350   4.263  14.672  0.9716  0.1241 -0.7955
 3080TIP3    H230656   1.485   4.281  14.737  0.3240  0.2664  0.5360
 3081TIP3   OH230657   6.473   1.367   4.649 -0.3637 -0.6142 -0.2535
 3081TIP3    H130658   6.496   1.346   4.558  0.5529  1.5840 -0.6107
 3081TIP3    H230659   6.557   1.370   4.695 -0.8036 -1.4977  0.6486
 3082TIP3   OH230660   6.065   3.876  12.577  0.3129  0.2358 -0.3257
 3082TIP3    H130661   5.975   3.899  12.602  0.3465  1.1824 -1.0491
 3082TIP3    H230662   6.098   3.952  12.530  0.9043 -0.7575 -1.5939
 3083TIP3   OH230663   0.115   0.494  13.816  0.0184  0.3239 -0.3413
 3083TIP3    H130664   0.207   0.485  13.842 -0.1535 -0.1434  0.1076
 3083TIP3    H230665   0.065   0.479  13.896 -0.4903 -0.4901 -0.7928
 3084TIP3   OH230666   1.389   4.082  14.389 -0.0789  0.0177 -0.2235
 3084TIP3    H130667   1.363   4.047  14.303  1.2963  0.2427 -0.7658
 3084TIP3    H230668   1.394   4.177  14.376 -3.2988  0.4677  1.1059
 3085TIP3   OH230669   6.205   5.987   1.798  0.1833 -0.1496 -0.2089
 3085TIP3    H130670   6.292   5.975   1.834 -0.7145 -0.1802  2.1269
 3085TIP3    H230671   6.188   5.906   1.749  1.8892  0.3859 -1.8119
 3086TIP3   OH230672   1.831   4.983   2.574  0.1693 -0.5869  0.1293
 3086TIP3    H130673   1.766   5.053   2.567  0.4410 -0.3615 -0.2081
 3086TIP3    H230674   1.915   5.028   2.566  0.4871 -0.5954  2.5714
 3087TIP3   OH230675   0.886   6.085  16.542 -0.0547 -0.0719  0.0846
 3087TIP3    H130676   0.941   6.140  16.598  1.0198  0.6322 -1.5737
 3087TIP3    H230677   0.819   6.144  16.508  0.4207 -0.0340 -0.8132
 3088TIP3   OH230678   6.000   3.135  13.150 -0.2200 -0.0081 -0.4160
 3088TIP3    H130679   6.032   3.080  13.222 -0.6684  0.0317 -0.1830
 3088TIP3    H230680   6.075   3.190  13.127  0.1014 -0.4244 -0.3661
 3089TIP3   OH230681   1.410   3.289  12.734  0.1450 -0.6438  0.1948
 3089TIP3    H130682   1.354   3.277  12.657 -2.1822  1.9579  1.3151
 3089TIP3    H230683   1.356   3.261  12.808  2.0251 -2.2765  1.0741
 3090TIP3   OH230684   1.435   5.436   2.101 -0.1695 -0.0223 -0.0905
 3090TIP3    H130685   1.341   5.432   2.118  0.1760 -1.3327  1.7611
 3090TIP3    H230686   1.470   5.494   2.169  0.5295 -0.6881  0.1359
 3091TIP3   OH230687   0.633   4.282  15.825 -0.0892  0.2875  0.4419
 3091TIP3    H130688   0.580   4.282  15.745  1.3629 -0.5001 -0.5798
 3091TIP3    H230689   0.594   4.214  15.879  0.3939 -0.9627 -0.7084
 3092TIP3   OH230690   4.774   4.481   4.807 -0.3264 -0.3439  0.3616
 3092TIP3    H130691   4.738   4.393   4.797 -0.0493 -0.4444  0.2326
 3092TIP3    H230692   4.781   4.515   4.717 -1.6414  0.3068  0.4805
 3093TIP3   OH230693   5.886   0.853   0.057  0.1029  0.0532 -0.6750
 3093TIP3    H130694   5.833   0.912   0.110 -0.1642 -0.9012  0.1400
 3093TIP3    H230695   5.850   0.861  -0.032 -0.4786  0.4609 -0.4067
 3094TIP3   OH230696   2.576   1.577   0.530 -0.1592 -0.2406  0.1365
 3094TIP3    H130697   2.614   1.647   0.477 -0.4581 -1.1926 -1.4077
 3094TIP3    H230698   2.518   1.622   0.591  1.3347  1.0163  0.7041
 3095TIP3   OH230699   1.092   5.134  12.431  0.0444  0.0633  0.2671
 3095TIP3    H130700   1.100   5.073  12.358  1.5264 -1.0660  1.3025
 3095TIP3    H230701   1.002   5.123  12.462 -1.0516  1.5522 -2.1503
 3096TIP3   OH230702   3.700   0.590   2.267 -0.1365  0.5542 -0.0257
 3096TIP3    H130703   3.704   0.569   2.360  0.8750  1.2264  0.0990
 3096TIP3    H230704   3.791   0.602   2.241 -0.4911  1.8075 -0.7637
 3097TIP3   OH230705   6.010   6.592   6.019  0.4115 -0.4644  0.1943
 3097TIP3    H130706   5.939   6.629   6.071  2.3591  0.9199  2.0524
 3097TIP3    H230707   6.038   6.514   6.068  1.1219 -0.1493  0.3005
 3098TIP3   OH230708   6.596   3.377   2.416  0.2889 -0.0663  0.4437
 3098TIP3    H130709   6.591   3.416   2.329  0.4534  1.2656  1.0102
 3098TIP3    H230710   6.525   3.419   2.465 -0.7459 -1.8620  0.5775
 3099TIP3   OH230711   0.662   2.095   0.914 -0.0643  0.6286  0.2035
 3099TIP3    H130712   0.694   2.141   0.991 -0.0031 -0.4534  0.8524
 3099TIP3    H230713   0.668   2.002   0.937 -1.3270  0.3160 -0.5972
 3100TIP3   OH230714   2.570   2.019   2.452 -0.0309 -0.2089 -0.0376
 3100TIP3    H130715   2.641   2.070   2.492 -1.6906  2.3198 -0.0332
 3100TIP3    H230716   2.495   2.078   2.456 -2.3061 -2.9485  0.4358
 3101TIP3   OH230717   5.656   1.611   2.249  0.1773 -0.6726 -0.2223
 3101TIP3    H130718   5.726   1.550   2.271 -0.3101 -0.6905  1.4174
 3101TIP3    H230719   5.621   1.579   2.165  3.7913  0.8752 -2.5370
 3102TIP3   OH230720   1.697   4.415   3.261 -0.8246 -0.4824 -0.0092
 3102TIP3    H130721   1.653   4.337   3.296  1.1978 -0.9421  1.6761
 3102TIP3    H230722   1.779   4.421   3.310 -0.4813  2.1975 -0.7453
 3103TIP3   OH230723   2.708   3.710   0.966 -0.1362 -0.1564 -0.3527
 3103TIP3    H130724   2.751   3.665   0.893 -0.0654  1.6491 -1.4714
 3103TIP3    H230725   2.780   3.747   1.016 -0.2573 -0.0511 -0.2578
 3104TIP3   OH230726   1.359   3.533  11.412 -0.7359  0.4528  0.2901
 3104TIP3    H130727   1.360   3.500  11.323 -0.6252  1.1697  0.0160
 3104TIP3    H230728   1.276   3.580  11.420 -0.6347  0.6072  0.4768
 3105TIP3   OH230729   3.822   5.994  11.557  0.6285 -0.7341 -0.0797
 3105TIP3    H130730   3.909   5.970  11.591  0.1335  1.4927  3.2903
 3105TIP3    H230731   3.768   5.916  11.573  1.4510 -1.2761  0.1545
 3106TIP3   OH230732   4.237   2.573   5.510 -0.3709 -0.8055 -0.0040
 3106TIP3    H130733   4.156   2.623   5.504  0.9417  1.2299 -1.8189
 3106TIP3    H230734   4.294   2.625   5.566  0.4455 -1.1044 -0.5389
 3107TIP3   OH230735   4.227   3.399  14.958 -0.1892 -0.2226 -0.3112
 3107TIP3    H130736   4.151   3.347  14.932 -0.7965  1.3406 -1.8723
 3107TIP3    H230737   4.238   3.381  15.051 -3.3066  0.4489  0.3101
 3108TIP3   OH230738   2.572   0.213  14.973 -0.6510  0.0336 -0.1971
 3108TIP3    H130739   2.618   0.212  14.889 -0.3636  0.2955 -0.0450
 3108TIP3    H230740   2.606   0.136  15.019 -0.2253  0.3311 -0.0115
 3109TIP3   OH230741   2.667   3.657  11.160  0.1612  0.1375  0.5108
 3109TIP3    H130742   2.754   3.623  11.138 -0.4599 -0.9367 -0.4042
 3109TIP3    H230743   2.623   3.583  11.201 -1.4268 -0.4394 -2.0531
 3110TIP3   OH230744   2.260   2.222  12.314  0.1341 -0.3070 -0.2673
 3110TIP3    H130745   2.228   2.204  12.402  0.9909  0.4655  0.2281
 3110TIP3    H230746   2.342   2.173  12.307  0.6420  0.5029 -0.2095
 3111TIP3   OH230747   1.943   6.492   1.920  0.1604  0.0366  0.2074
 3111TIP3    H130748   2.003   6.483   1.847  1.4444 -0.3203  1.2757
 3111TIP3    H230749   1.882   6.560   1.893  1.6989  1.1960 -0.4737
 3112TIP3   OH230750   5.475   4.681   2.829 -0.2520 -0.1511  0.0343
 3112TIP3    H130751   5.500   4.721   2.912  1.2749 -0.3940 -0.2809
 3112TIP3    H230752   5.383   4.707   2.816 -0.2037  0.7166  1.2928
 3113TIP3   OH230753   5.991   1.752  14.752 -0.8082 -0.1462 -0.4589
 3113TIP3    H130754   5.999   1.730  14.845  1.2688  2.5827  0.1256
 3113TIP3    H230755   6.051   1.692  14.708  0.7701  0.7018  0.4379
 3114TIP3   OH230756   5.894   3.732   2.588 -0.1755  0.2311 -0.0277
 3114TIP3    H130757   5.912   3.824   2.566 -0.7815 -0.1025 -2.1780
 3114TIP3    H230758   5.835   3.702   2.518 -0.3844 -1.6612  0.9023
 3115TIP3   OH230759   2.197   6.016  16.332  0.0297 -0.1188 -0.1616
 3115TIP3    H130760   2.275   6.054  16.372 -0.7977  0.7648  0.6648
 3115TIP3    H230761   2.209   6.028  16.238 -0.1525  2.2016  0.0462
 3116TIP3   OH230762   4.534   4.326  14.030  0.2011 -0.4913  0.2558
 3116TIP3    H130763   4.558   4.235  14.014 -0.4973 -0.7658  0.7262
 3116TIP3    H230764   4.613   4.376  14.009  0.7617 -1.2523  0.5161
 3117TIP3   OH230765   2.520   5.982   1.786 -0.4041  0.5051 -0.3456
 3117TIP3    H130766   2.434   5.942   1.774 -1.6045  3.1725 -1.6488
 3117TIP3    H230767   2.571   5.917   1.833 -3.2365 -1.0574  0.8079
 3118TIP3   OH230768   6.015   3.659   6.007 -0.0669 -0.1456 -0.2746
 3118TIP3    H130769   5.941   3.702   6.049  0.7689  0.6666  0.4281
 3118TIP3    H230770   6.083   3.727   6.004  0.0696 -0.2779 -2.5883
 3119TIP3   OH230771   3.318   3.038  16.053 -0.4638  0.3747 -0.2043
 3119TIP3    H130772   3.354   2.970  15.996 -1.5573 -2.0449  1.7787
 3119TIP3    H230773   3.379   3.112  16.044  0.4439 -0.5613 -2.9426
 3120TIP3   OH230774   1.622   6.117  11.988  0.1367  0.0663  0.3067
 3120TIP3    H130775   1.637   6.034  11.942 -2.8559  0.0371 -0.8429
 3120TIP3    H230776   1.556   6.096  12.053  0.0132  1.3828  0.6287
 3121TIP3   OH230777   2.714   1.905  12.450 -0.6559 -0.0574 -0.0689
 3121TIP3    H130778   2.705   1.839  12.518  0.1794  1.3761  1.5037
 3121TIP3    H230779   2.790   1.877  12.399  0.0201 -0.0673  0.9101
 3122TIP3   OH230780   5.918   5.297  15.187 -0.6060 -0.7241 -0.1243
 3122TIP3    H130781   5.861   5.235  15.232 -0.1466  0.9076  3.0146
 3122TIP3    H230782   5.961   5.345  15.258  1.7313  0.7688 -2.3751
 3123TIP3   OH230783   2.325   2.121   0.729  0.3804  0.6128 -0.1510
 3123TIP3    H130784   2.377   2.103   0.650  0.2449 -1.6325  0.2070
 3123TIP3    H230785   2.236   2.097   0.704  0.1673  0.8013  0.4195
 3124TIP3   OH230786   1.094   5.996   5.755  0.4210 -0.3879  0.3983
 3124TIP3    H130787   1.014   6.005   5.704 -0.4518 -2.8497  1.1979
 3124TIP3    H230788   1.160   6.044   5.704 -1.1989  0.4073 -1.0632
 3125TIP3   OH230789   4.841   6.037  15.883  0.2179 -0.6494 -0.0250
 3125TIP3    H130790   4.926   6.078  15.870  1.1221 -1.6160  2.3745
 3125TIP3    H230791   4.820   6.052  15.975 -1.6604 -1.4689 -0.2654
 3126TIP3   OH230792   6.356   6.357   4.844 -0.0262  0.0401 -0.2000
 3126TIP3    H130793   6.350   6.447   4.811 -0.4977 -0.2374 -0.8891
 3126TIP3    H230794   6.435   6.356   4.897  0.4972  0.6293 -0.9448
 3127TIP3   OH230795   1.254   0.416  13.339  0.1994 -0.4134 -0.0748
 3127TIP3    H130796   1.269   0.510  13.330  0.2889 -0.2970  1.1923
 3127TIP3    H230797   1.337   0.376  13.311 -0.0033 -0.1571 -1.0877
 3128TIP3   OH230798   4.494   1.816   3.147  0.0260  0.1550  0.2997
 3128TIP3    H130799   4.558   1.760   3.102  0.1361  1.0115 -0.6495
 3128TIP3    H230800   4.545   1.891   3.176 -0.1861 -0.0737  1.2867
 3129TIP3   OH230801   3.858   1.967  15.700  0.1751  0.3042 -0.0787
 3129TIP3    H130802   3.781   1.911  15.703 -0.7953  1.6414  1.0613
 3129TIP3    H230803   3.919   1.928  15.763 -0.5902  0.6255  0.8840
 3130TIP3   OH230804   0.508   0.089   4.899  0.2780  0.5399 -0.0269
 3130TIP3    H130805   0.569   0.074   4.971  1.1811  0.2097 -0.8374
 3130TIP3    H230806   0.435   0.029   4.916  0.2881  0.7553  0.8123
 3131TIP3   OH230807   1.756   2.156  10.963  0.0419 -0.0093 -0.0819
 3131TIP3    H130808   1.751   2.104  10.883  0.2011  0.9256 -0.7170
 3131TIP3    H230809   1.797   2.239  10.936  1.4705 -0.2186  1.2385
 3132TIP3   OH230810   0.013   2.681   2.187 -0.3518 -0.1352  0.1442
 3132TIP3    H130811  -0.066   2.709   2.234  0.2155  1.3448  0.2333
 3132TIP3    H230812   0.029   2.750   2.124  0.6342 -0.6537 -0.1880
 3133TIP3   OH230813   2.945   3.991  14.367 -0.1712 -0.0927 -0.5271
 3133TIP3    H130814   2.953   3.908  14.320  1.5096 -1.7244  2.3223
 3133TIP3    H230815   3.035   4.017  14.386 -0.7229  0.5255  1.5363
 3134TIP3   OH230816   5.292   6.538  11.473 -0.3824  0.1910  0.3255
 3134TIP3    H130817   5.221   6.594  11.439 -0.4059 -0.6292 -1.0717
 3134TIP3    H230818   5.290   6.461  11.416  2.6182  0.7936 -0.7800
 3135TIP3   OH230819   3.596   2.970   4.293 -0.7305  0.0428 -0.2004
 3135TIP3    H130820   3.505   2.980   4.266 -0.2142 -0.5415 -2.3547
 3135TIP3    H230821   3.641   3.046   4.255 -0.2272  0.0676  0.4222
 3136TIP3   OH230822   6.144   4.322   3.218 -0.2708 -0.1230 -0.1056
 3136TIP3    H130823   6.050   4.310   3.231 -0.0976 -0.6260  0.6987
 3136TIP3    H230824   6.161   4.411   3.251 -0.2630 -0.4763  0.8702
 3137TIP3   OH230825   3.544   2.255  12.002 -0.0630 -0.6931 -0.2232
 3137TIP3    H130826   3.538   2.255  12.098  0.1387  1.2210 -0.1732
 3137TIP3    H230827   3.535   2.163  11.978  2.4732 -1.6003  1.7815
 3138TIP3   OH230828   2.306   3.609   4.361  0.5593 -0.8312 -0.2515
 3138TIP3    H130829   2.290   3.520   4.391 -0.6508 -0.6659 -0.3674
 3138TIP3    H230830   2.299   3.664   4.439 -1.9998 -0.4726 -0.6567
 3139TIP3   OH230831   4.777   4.500  15.641 -0.0068 -0.3096  0.0765
 3139TIP3    H130832   4.734   4.435  15.695 -0.5992  0.6392  0.7835
 3139TIP3    H230833   4.807   4.567  15.703  1.2483 -0.2543 -0.5478
 3140TIP3   OH230834   4.364   2.128   0.480 -0.2806 -0.0480  0.2113
 3140TIP3    H130835   4.325   2.120   0.393  2.6720  0.1924 -1.2499
 3140TIP3    H230836   4.372   2.222   0.495  2.9851 -0.0091 -1.1930
 3141TIP3   OH230837   1.686   2.380   6.199  0.2768 -0.0914 -0.0720
 3141TIP3    H130838   1.621   2.377   6.129 -1.5712 -0.5405  1.5693
 3141TIP3    H230839   1.643   2.429   6.270  1.0412 -1.8620  1.7058
 3142TIP3   OH230840   6.339   2.857   1.906  0.4172 -0.1359 -0.4316
 3142TIP3    H130841   6.409   2.803   1.869  1.0231 -0.2082  0.7855
 3142TIP3    H230842   6.373   2.946   1.903  0.8115 -0.2377  0.6874
 3143TIP3   OH230843   2.315   2.095   2.685 -0.2927  0.0472 -0.4828
 3143TIP3    H130844   2.385   2.120   2.746 -1.5246  1.1433  0.5596
 3143TIP3    H230845   2.331   2.002   2.668  0.5704 -0.0990  0.8901
 3144TIP3   OH230846   5.724   5.938  15.534 -0.5598  0.6569  0.0810
 3144TIP3    H130847   5.731   5.843  15.523 -1.2764  0.5172  0.8084
 3144TIP3    H230848   5.718   5.951  15.628 -1.5141  1.3510 -0.0670
 3145TIP3   OH230849   5.497   2.412  17.189  0.2897 -0.2369  0.0481
 3145TIP3    H130850   5.511   2.455  17.105 -0.3543 -0.7080 -0.3124
 3145TIP3    H230851   5.404   2.423  17.207  0.7284  1.4680  1.6249
 3146TIP3   OH230852   5.276   4.017   1.440 -0.5927  0.0436 -0.6367
 3146TIP3    H130853   5.244   4.107   1.434 -0.3364  0.1535 -0.3645
 3146TIP3    H230854   5.362   4.024   1.481 -0.1635 -0.2405 -1.4472
 3147TIP3   OH230855   6.447   0.491  11.859  0.6129  0.2029  0.2426
 3147TIP3    H130856   6.399   0.527  11.785  0.3674 -0.8050 -0.1008
 3147TIP3    H230857   6.456   0.565  11.920  0.9309  1.0789 -0.8343
 3148TIP3   OH230858   2.604   6.541   0.732 -0.2530  0.2197 -0.1359
 3148TIP3    H130859   2.537   6.602   0.763  0.6988  1.6423 -0.7970
 3148TIP3    H230860   2.588   6.461   0.783 -0.5812  1.4921  1.8707
 3149TIP3   OH230861   0.071   3.262  13.154  0.1218 -0.5411 -0.4169
 3149TIP3    H130862   0.101   3.350  13.179 -0.4454  0.0683 -1.7858
 3149TIP3    H230863   0.116   3.204  13.215  0.1056  0.7282  0.8594
 3150TIP3   OH230864   5.823   4.248  17.338 -0.3613  0.3798  0.5525
 3150TIP3    H130865   5.891   4.244  17.271  0.6831 -0.7737  1.6397
 3150TIP3    H230866   5.743   4.221  17.292  0.1596  0.4403 -0.4148
 3151TIP3   OH230867   6.487   6.137   0.033 -0.1260  0.2857 -0.3563
 3151TIP3    H130868   6.478   6.104  -0.056  0.1694  0.4686 -0.4566
 3151TIP3    H230869   6.549   6.210   0.026  0.0449  0.1846  0.0215
 3152TIP3   OH230870   6.138   6.276   4.678 -0.4530  0.4812 -0.0078
 3152TIP3    H130871   6.126   6.340   4.608 -1.8357 -1.2818 -1.5132
 3152TIP3    H230872   6.219   6.301   4.721  0.3686  1.7545 -2.1716
 3153TIP3   OH230873   4.135   3.680  16.461 -0.1476  0.5539 -0.4598
 3153TIP3    H130874   4.055   3.640  16.426 -1.0161  1.1231  0.8071
 3153TIP3    H230875   4.105   3.739  16.530  1.5156 -1.5027  2.2423
 3154TIP3   OH230876   4.038   5.360   2.200 -0.2864  0.2540  0.1467
 3154TIP3    H130877   4.130   5.336   2.215 -0.4091  0.4826  1.3679
 3154TIP3    H230878   3.988   5.288   2.240 -0.6359  0.9147  0.9189
 3155TIP3   OH230879   0.449   5.392   2.095 -0.2175 -0.1319 -0.3658
 3155TIP3    H130880   0.542   5.387   2.073  0.4551 -1.7236  2.4205
 3155TIP3    H230881   0.405   5.353   2.020  1.4282 -0.2658 -1.3129
 3156TIP3   OH230882   2.849   1.272   6.535  0.6185 -0.4829 -0.2064
 3156TIP3    H130883   2.797   1.345   6.568  0.0318  0.1922 -2.4515
 3156TIP3    H230884   2.799   1.194   6.557  0.9132 -0.2174  1.6001
 3157TIP3   OH230885   1.546   1.886   3.145  0.5610 -0.6745  0.3408
 3157TIP3    H130886   1.474   1.938   3.180 -0.1599 -1.3657 -0.0785
 3157TIP3    H230887   1.589   1.850   3.222  1.7243  1.3368  0.7018
 3158TIP3   OH230888   5.324   1.056  13.254 -0.0262  0.1340 -0.6497
 3158TIP3    H130889   5.350   1.016  13.171 -1.1520 -1.9234 -0.0665
 3158TIP3    H230890   5.230   1.041  13.260 -0.4010  2.3034 -0.0301
 3159TIP3   OH230891   3.928   6.610   5.677 -0.5363 -0.5877  0.0280
 3159TIP3    H130892   3.938   6.628   5.584 -3.2877 -2.3033 -0.7425
 3159TIP3    H230893   4.010   6.569   5.703  0.0004 -0.7932 -1.8532
 3160TIP3   OH230894   2.411   1.339   0.053  0.2179 -0.1762 -0.1365
 3160TIP3    H130895   2.328   1.383   0.071 -1.0582 -2.4396 -0.0968
 3160TIP3    H230896   2.476   1.408   0.059 -1.5970  1.6087  0.2756
 3161TIP3   OH230897   0.489   0.883   3.989  0.1486  1.3671  0.5492
 3161TIP3    H130898   0.550   0.867   4.062 -0.3615 -0.0719  0.7031
 3161TIP3    H230899   0.535   0.849   3.912  0.1444  1.6734  0.4095
 3162TIP3   OH230900   1.248   5.970   1.609  0.1489  0.2402  0.1262
 3162TIP3    H130901   1.289   6.046   1.651 -0.6876 -0.1672  1.7578
 3162TIP3    H230902   1.320   5.925   1.564  1.1049  0.6436  1.2155
 3163TIP3   OH230903   3.047   1.053   4.473 -0.0597  0.0887  0.0635
 3163TIP3    H130904   3.089   1.098   4.400 -1.1686 -2.2377 -2.1285
 3163TIP3    H230905   2.963   1.098   4.483  0.9039  1.7377  1.3886
 3164TIP3   OH230906   5.759   0.617   4.899 -0.1870 -0.2206 -0.1696
 3164TIP3    H130907   5.802   0.609   4.814 -0.0237 -1.2224 -0.0036
 3164TIP3    H230908   5.790   0.701   4.934  3.0055 -1.6425  0.7026
 3165TIP3   OH230909   1.479   5.016   1.526 -0.1071 -0.5768 -0.1485
 3165TIP3    H130910   1.472   5.028   1.431 -0.0079 -0.7909 -0.1839
 3165TIP3    H230911   1.496   5.104   1.560  3.7912 -0.9282 -0.7101
 3166TIP3   OH230912   6.185   4.078  11.499 -0.4778  0.4573 -0.2902
 3166TIP3    H130913   6.136   4.155  11.527  1.6938  1.0566  2.3145
 3166TIP3    H230914   6.147   4.006  11.549 -0.6313  0.3803 -0.5193
 3167TIP3   OH230915   6.126   3.142   6.033  0.1844  0.2664 -0.3959
 3167TIP3    H130916   6.054   3.205   6.040 -0.3106 -0.3911  0.8839
 3167TIP3    H230917   6.168   3.162   5.950 -1.8096  0.3144 -1.4624
 3168TIP3   OH230918   6.333   1.355  16.587  0.3937 -0.0117  0.1355
 3168TIP3    H130919   6.242   1.383  16.581 -0.3572 -2.1056  0.6114
 3168TIP3    H230920   6.352   1.317  16.501 -0.8481 -3.8603  1.3561
 3169TIP3   OH230921   6.390   2.262   0.285 -0.0095 -0.1352  0.0332
 3169TIP3    H130922   6.301   2.282   0.257 -0.2089 -0.3668  0.4907
 3169TIP3    H230923   6.442   2.337   0.257 -0.1740 -0.4156 -1.0645
 3170TIP3   OH230924   4.090   0.784   2.091 -0.7737 -0.1321  0.4625
 3170TIP3    H130925   4.035   0.765   2.167 -1.9740 -0.8829 -0.5428
 3170TIP3    H230926   4.032   0.834   2.033 -0.1858 -0.3961 -0.3638
 3171TIP3   OH230927   0.950   6.111  12.524 -0.2329 -0.0217 -0.1511
 3171TIP3    H130928   0.940   6.206  12.526 -0.9402 -0.1033  0.3863
 3171TIP3    H230929   1.026   6.094  12.578 -0.6988  0.1697  0.5807
 3172TIP3   OH230930   5.178   3.704   1.792  0.2956 -0.0462 -0.3385
 3172TIP3    H130931   5.212   3.794   1.788 -0.3762  0.1739 -2.1014
 3172TIP3    H230932   5.085   3.715   1.807  0.3351 -0.4910  0.2385
 3173TIP3   OH230933   5.576   2.738  12.190 -0.1761 -0.4400 -0.5365
 3173TIP3    H130934   5.530   2.673  12.136  0.9653 -1.2123 -0.6175
 3173TIP3    H230935   5.584   2.815  12.133 -1.8406 -0.0773 -0.3249
 3174TIP3   OH230936   6.699   0.846   2.313 -0.6514 -0.0004  0.4816
 3174TIP3    H130937   6.640   0.921   2.314  1.5353  1.9235 -1.9163
 3174TIP3    H230938   6.687   0.807   2.227  0.1205 -0.8587  0.7441
 3175TIP3   OH230939   2.870   3.986   6.600 -0.6222  0.3731 -0.1605
 3175TIP3    H130940   2.964   3.970   6.602 -0.6723  0.0493  1.5791
 3175TIP3    H230941   2.836   3.928   6.532  0.5361  1.2437 -1.5381
 3176TIP3   OH230942   2.091   2.198   2.893  0.7720  0.3187 -0.2338
 3176TIP3    H130943   2.149   2.268   2.861  1.0953 -0.4264 -1.3596
 3176TIP3    H230944   2.148   2.121   2.898  0.1887 -0.0986 -0.0037
 3177TIP3   OH230945   2.098   3.775  11.846 -0.1349 -0.1458 -0.7069
 3177TIP3    H130946   2.082   3.819  11.930 -2.0421  0.1709 -1.1817
 3177TIP3    H230947   2.157   3.704  11.867  2.4656  2.1064  0.2398
 3178TIP3   OH230948   5.719   1.119  16.953  0.0681  0.1526 -0.0838
 3178TIP3    H130949   5.771   1.042  16.977 -0.6027 -0.0741  0.7225
 3178TIP3    H230950   5.630   1.096  16.980 -0.0639  1.3893  0.6146
 3179TIP3   OH230951   5.252   1.360  13.324  0.3111 -0.0736  0.0655
 3179TIP3    H130952   5.218   1.280  13.365 -2.7287  1.3384  0.5560
 3179TIP3    H230953   5.277   1.415  13.397 -0.4886  0.5577 -0.1206
 3180TIP3   OH230954   4.701   4.877   2.166 -0.3545  0.4387  0.2534
 3180TIP3    H130955   4.639   4.918   2.226 -0.8239 -1.9355  1.5023
 3180TIP3    H230956   4.707   4.938   2.092 -2.7007  1.6585  0.9779
 3181TIP3   OH230957   5.698   3.694  15.174  0.4837  0.1176 -0.2535
 3181TIP3    H130958   5.791   3.691  15.149  0.8516  0.1614  1.0202
 3181TIP3    H230959   5.653   3.644  15.106  2.0141 -3.9574  1.3920
 3182TIP3   OH230960   5.845   0.362   0.483  0.0475  0.3503 -0.2979
 3182TIP3    H130961   5.928   0.321   0.506 -0.3420 -0.1531  0.2399
 3182TIP3    H230962   5.778   0.303   0.518 -0.5257  1.5660  0.7464
 3183TIP3   OH230963   0.777   6.301   0.021 -0.6221 -0.3412  0.7396
 3183TIP3    H130964   0.854   6.316  -0.033 -1.8871  0.1522 -1.0542
 3183TIP3    H230965   0.808   6.249   0.094  1.2451 -0.9188 -0.3994
 3184TIP3   OH230966   2.586   3.268  13.404 -0.1307 -0.0154 -0.3522
 3184TIP3    H130967   2.536   3.283  13.485  1.4035  0.5708  0.5297
 3184TIP3    H230968   2.618   3.354  13.380 -1.4214 -0.0057 -2.2223
 3185TIP3   OH230969   6.512   4.070  15.237 -0.5900 -0.1513 -0.1186
 3185TIP3    H130970   6.560   4.016  15.299  0.9205 -0.3145 -1.3751
 3185TIP3    H230971   6.553   4.156  15.242 -1.3562  0.2162  0.0745
 3186TIP3   OH230972   5.729   0.516  14.080 -0.1143  0.1491  0.8494
 3186TIP3    H130973   5.697   0.595  14.037  0.8557  0.3848  0.5385
 3186TIP3    H230974   5.663   0.450  14.059 -0.4886  0.6565  0.3731
 3187TIP3   OH230975   6.647   5.285  16.690 -0.0902  0.1842 -0.3099
 3187TIP3    H130976   6.637   5.269  16.784 -0.2677  0.0550 -0.3495
 3187TIP3    H230977   6.705   5.215  16.660 -1.7324 -1.0678 -0.6847
 3188TIP3   OH230978   3.341   6.495   6.072 -0.4342 -0.5721  0.0623
 3188TIP3    H130979   3.407   6.499   6.142 -0.3700 -0.7374  0.0116
 3188TIP3    H230980   3.258   6.512   6.116 -0.4426 -1.0771  0.2497
 3189TIP3   OH230981   6.618   5.691   4.447 -0.6036 -0.2236 -0.5454
 3189TIP3    H130982   6.553   5.640   4.495  0.2971 -0.9743 -0.1006
 3189TIP3    H230983   6.601   5.782   4.473 -0.8376 -0.5138  0.3451
 3190TIP3   OH230984   0.135   2.914  16.571  0.3867 -0.0226  0.0890
 3190TIP3    H130985   0.142   2.977  16.500 -0.6244 -0.9179 -0.8385
 3190TIP3    H230986   0.043   2.918  16.598  0.3664 -0.8924  0.1849
 3191TIP3   OH230987   2.999   3.957   3.172  0.0210  0.0787 -0.2887
 3191TIP3    H130988   3.077   3.911   3.143  0.4904  0.2738  0.6090
 3191TIP3    H230989   2.928   3.919   3.121  0.4654 -1.2751  0.0542
 3192TIP3   OH230990   6.404   4.010  15.835  0.1927  0.3324  0.4639
 3192TIP3    H130991   6.430   4.076  15.771 -3.3949  0.6053 -0.9254
 3192TIP3    H230992   6.315   4.033  15.859 -0.5186 -2.8865  1.4379
 3193TIP3   OH230993   6.153   0.586   5.638  0.0345  0.4393  0.2681
 3193TIP3    H130994   6.145   0.556   5.548 -1.2037  1.8059 -0.1046
 3193TIP3    H230995   6.247   0.584   5.656  0.3199  0.4557 -1.1516
 3194TIP3   OH230996   5.032   2.431   5.655  0.5501  0.1905  0.1572
 3194TIP3    H130997   5.017   2.359   5.594  0.0025 -1.4438  2.1169
 3194TIP3    H230998   5.005   2.509   5.607 -2.2225 -1.2641 -0.8970
 3195TIP3   OH230999   6.241   2.440   6.182 -0.4221 -0.2496 -0.0420
 3195TIP3    H131000   6.332   2.469   6.191 -0.8725  0.8763  1.3146
 3195TIP3    H231001   6.212   2.426   6.272 -1.8860  0.4299 -0.3834
 3196TIP3   OH231002   4.921   5.179  12.003  0.2021 -0.2750  0.1461
 3196TIP3    H131003   5.014   5.161  12.011  0.2516  0.2350  0.7980
 3196TIP3    H231004   4.894   5.204  12.091 -0.0264  2.0531 -0.5195
 3197TIP3   OH231005   5.747   0.140   0.608  0.1735 -0.1289  0.5138
 3197TIP3    H131006   5.804   0.093   0.669 -0.9799 -0.1775  1.6070
 3197TIP3    H231007   5.753   0.091   0.527 -0.9721 -2.2242  1.6168
 3198TIP3   OH231008   4.123   2.581   0.774 -0.4322 -0.1426  0.2229
 3198TIP3    H131009   4.128   2.670   0.809 -1.3541 -0.1205  0.3485
 3198TIP3    H231010   4.168   2.585   0.690  1.7410 -0.1686  1.3242
 3199TIP3   OH231011   2.611   2.924  12.491 -0.5800  0.0188  0.0111
 3199TIP3    H131012   2.520   2.922  12.461 -0.9592 -1.0600  1.1727
 3199TIP3    H231013   2.639   2.833  12.488  1.1772  0.5310 -2.3235
 3200TIP3   OH231014   5.364   6.115   5.734 -0.8636  0.6743  0.1937
 3200TIP3    H131015   5.458   6.128   5.724 -0.5904  0.2635  1.8553
 3200TIP3    H231016   5.336   6.185   5.794 -0.9312 -1.1418  2.4278
 3201TIP3   OH231017   2.794   1.626  12.930 -0.0593  0.7483  0.2450
 3201TIP3    H131018   2.751   1.587  13.006  0.7907 -1.1178 -0.1895
 3201TIP3    H231019   2.759   1.577  12.855 -0.9698  2.6289 -0.6179
 3202TIP3   OH231020   5.020   1.864   4.235 -0.4526 -0.3940  0.0689
 3202TIP3    H131021   5.090   1.902   4.183 -0.2860  0.0362  0.5891
 3202TIP3    H231022   5.064   1.829   4.313 -0.5882 -1.7884 -0.4601
 3203TIP3   OH231023   6.287   1.172   6.163  0.8144  0.5612 -0.1812
 3203TIP3    H131024   6.343   1.214   6.098  1.5377  0.6585  0.4847
 3203TIP3    H231025   6.318   1.206   6.247 -0.4331  0.8277  0.1925
 3204TIP3   OH231026   3.915   1.631   3.992 -0.4998  0.1130 -0.0652
 3204TIP3    H131027   4.007   1.646   4.015 -0.0700 -1.5027 -0.5561
 3204TIP3    H231028   3.914   1.541   3.958 -2.5054 -0.3841  1.1955
 3205TIP3   OH231029   4.488   1.121  12.245 -0.1898  0.0788 -0.0323
 3205TIP3    H131030   4.531   1.103  12.329  0.4302  0.0785 -0.3448
 3205TIP3    H231031   4.552   1.094  12.179 -1.4388 -1.8695 -0.5392
 3206TIP3   OH231032   1.657   2.061  13.168 -0.5841  0.0379 -0.1577
 3206TIP3    H131033   1.725   2.042  13.104 -0.4956  0.3059 -0.1459
 3206TIP3    H231034   1.701   2.114  13.234 -0.7253 -0.0641  0.0184
 3207TIP3   OH231035   1.689   5.310  11.313 -0.5116 -1.1849  0.1363
 3207TIP3    H131036   1.613   5.290  11.368  0.1743 -0.1322  1.5151
 3207TIP3    H231037   1.651   5.348  11.234 -1.4698 -1.5611  0.3989
 3208TIP3   OH231038   1.922   4.298   1.158 -0.3826  0.2356 -0.4288
 3208TIP3    H131039   1.925   4.343   1.074  3.5227  2.6401  0.6758
 3208TIP3    H231040   1.956   4.211   1.141  0.9939  0.9178 -1.3239
 3209TIP3   OH231041   5.090   0.563  17.382  0.6843 -0.1438 -0.7715
 3209TIP3    H131042   5.083   0.659  17.383  0.6744 -0.1361 -1.3812
 3209TIP3    H231043   5.154   0.544  17.314  1.4139 -0.5359  0.0183
 3210TIP3   OH231044   3.321   4.172   3.978 -0.2756  0.3173  0.0744
 3210TIP3    H131045   3.247   4.167   4.039  0.2876 -2.9986  0.6351
 3210TIP3    H231046   3.320   4.263   3.948 -3.0256  1.0443  1.9530
 3211TIP3   OH231047   2.064   2.296   5.632  0.4570  0.2221 -0.1273
 3211TIP3    H131048   2.035   2.288   5.541  0.6339 -0.4426 -0.1332
 3211TIP3    H231049   2.154   2.264   5.632  0.5094  0.3569  0.2549
 3212TIP3   OH231050   4.972   6.475  15.059 -0.1894  0.0600  0.3344
 3212TIP3    H131051   4.988   6.488  14.966 -0.6436 -0.8346  0.1254
 3212TIP3    H231052   5.056   6.449  15.095 -0.1596 -0.2318  0.0533
 3213TIP3   OH231053   0.291   5.814  13.620 -0.1978 -0.5797 -0.5898
 3213TIP3    H131054   0.364   5.761  13.586 -0.1729 -0.8130 -0.1687
 3213TIP3    H231055   0.334   5.892  13.656 -0.1079 -0.9342  0.0903
 3214TIP3   OH231056   2.054   2.774   3.721  0.3396 -0.8820  0.4251
 3214TIP3    H131057   2.031   2.698   3.667  1.5525  0.1958 -1.7112
 3214TIP3    H231058   1.983   2.836   3.706  0.0594 -1.0313  1.0775
 3215TIP3   OH231059   6.650   1.282  11.286 -0.2398 -0.2308 -0.3949
 3215TIP3    H131060   6.646   1.244  11.198 -0.4514 -1.7190  0.2316
 3215TIP3    H231061   6.740   1.268  11.314 -0.8398 -2.3899  0.6984
 3216TIP3   OH231062   2.328   1.380   3.872  0.0459 -0.0553 -0.0026
 3216TIP3    H131063   2.233   1.387   3.866 -0.1677 -2.5043 -0.7677
 3216TIP3    H231064   2.348   1.397   3.964 -1.0739  0.7286  0.1153
 3217TIP3   OH231065   1.597   0.763  16.887  1.1989  0.3410 -0.2732
 3217TIP3    H131066   1.507   0.774  16.919  0.7292  1.0392 -1.7655
 3217TIP3    H231067   1.635   0.696  16.944 -0.4565 -0.4139 -0.0123
 3218TIP3   OH231068   5.744   4.340   1.525  0.2058 -1.0057 -0.0802
 3218TIP3    H131069   5.747   4.423   1.572 -0.2329 -1.1947  0.2912
 3218TIP3    H231070   5.782   4.360   1.439  0.5532 -0.5423  0.1788
 3219TIP3   OH231071   2.118   4.123   1.297 -0.1975 -0.4036 -0.2411
 3219TIP3    H131072   2.187   4.072   1.255  0.2708 -0.3562  0.4461
 3219TIP3    H231073   2.137   4.214   1.273 -0.9298 -0.5191 -1.3206
 3220TIP3   OH231074   4.045   6.046   0.512 -0.0250  0.8517  0.0971
 3220TIP3    H131075   4.079   6.067   0.599  0.0668 -0.7042  0.4768
 3220TIP3    H231076   3.979   5.978   0.529  2.3543 -2.0314 -1.2422
 3221TIP3   OH231077   1.153   1.560  14.141  0.3057 -0.5901  0.9170
 3221TIP3    H131078   1.161   1.532  14.049 -0.1738  2.3602 -0.1389
 3221TIP3    H231079   1.134   1.480  14.189 -2.2732 -1.9097 -1.9530
 3222TIP3   OH231080   3.584   5.056   5.912  0.2330 -0.2124 -0.6999
 3222TIP3    H131081   3.651   4.997   5.879  0.4188 -1.0764  1.0726
 3222TIP3    H231082   3.562   5.021   5.999 -0.6837  1.5132 -0.1818
 3223TIP3   OH231083   0.965   0.935  12.211 -0.0156 -0.5501 -0.1850
 3223TIP3    H131084   0.881   0.981  12.205  0.1984 -0.2322 -0.7935
 3223TIP3    H231085   0.966   0.876  12.136 -0.3451 -1.6765  0.6606
 3224TIP3   OH231086   3.817   0.623  11.373  0.5472 -0.2135 -0.1292
 3224TIP3    H131087   3.788   0.588  11.457  0.2944 -1.7806 -0.8398
 3224TIP3    H231088   3.894   0.677  11.395  0.3043 -0.3464  1.1226
 3225TIP3   OH231089   1.516   0.914   2.864 -0.4517  0.6051  0.0233
 3225TIP3    H131090   1.575   0.889   2.935  1.2982 -0.9117 -1.8188
 3225TIP3    H231091   1.460   0.837   2.852 -0.7637  0.8694 -0.2152
 3226TIP3   OH231092   6.652   4.906   2.264  0.4459  0.1144 -0.1238
 3226TIP3    H131093   6.564   4.883   2.235  0.7758 -1.7136  0.2226
 3226TIP3    H231094   6.681   4.973   2.203 -0.8372  0.0863 -0.7957
 3227TIP3   OH231095   3.178   4.303   6.340  0.4212  0.2103  0.2068
 3227TIP3    H131096   3.152   4.329   6.428  0.0880  0.0479  0.1548
 3227TIP3    H231097   3.173   4.207   6.340 -1.8797  0.2635 -0.6812
 3228TIP3   OH231098   0.861   5.704  14.259  0.0319  0.2191 -0.2436
 3228TIP3    H131099   0.852   5.610  14.275 -0.0619 -0.2747 -2.7549
 3228TIP3    H231100   0.784   5.727  14.207  0.8737  1.3245 -1.0449
 3229TIP3   OH231101   2.127   5.281   1.136 -0.5999  0.2773 -0.3038
 3229TIP3    H131102   2.221   5.297   1.145 -0.2626 -0.7715 -1.5415
 3229TIP3    H231103   2.088   5.367   1.123 -0.2201  1.0609  2.9280
 3230TIP3   OH231104   3.970   4.752   2.790 -0.1430 -0.3025  0.2549
 3230TIP3    H131105   3.974   4.789   2.878  0.5566  0.4854 -0.0977
 3230TIP3    H231106   3.999   4.662   2.800 -0.0552 -0.2122  0.8308
 3231TIP3   OH231107   2.735   5.150   5.810 -0.6132 -0.1616  0.0522
 3231TIP3    H131108   2.646   5.185   5.799 -0.3440  0.1544 -1.2708
 3231TIP3    H231109   2.740   5.078   5.748  0.0227 -0.2678  0.2215
 3232TIP3   OH231110   3.874   6.231   1.347  0.5949  0.0936  0.3874
 3232TIP3    H131111   3.858   6.310   1.399 -0.9079 -0.5281  0.9319
 3232TIP3    H231112   3.942   6.184   1.395  0.7019  0.5283  0.6615
 3233TIP3   OH231113   3.213   0.284   6.675 -0.3572  0.6437  0.1074
 3233TIP3    H131114   3.259   0.208   6.641 -2.0322 -0.8915  1.0755
 3233TIP3    H231115   3.222   0.351   6.607  1.1598 -0.4098 -0.7687
 3234TIP3   OH231116   0.998   6.366   2.428  0.4046  0.4625  0.3483
 3234TIP3    H131117   0.941   6.415   2.369  0.6814  0.0345 -0.2802
 3234TIP3    H231118   0.984   6.407   2.514  1.7097  2.5960 -0.3846
 3235TIP3   OH231119   6.692   3.651   3.848 -0.1909  0.0572 -0.0536
 3235TIP3    H131120   6.757   3.696   3.794  0.0131  0.2017  0.3062
 3235TIP3    H231121   6.636   3.605   3.786  0.4539 -0.3377 -0.3572
 3236TIP3   OH231122   3.968   5.833  12.074 -0.3244 -0.5346 -0.0039
 3236TIP3    H131123   3.957   5.915  12.025  1.6782 -1.0170 -1.3876
 3236TIP3    H231124   3.885   5.822  12.121 -0.2363  2.9265  1.2827
 3237TIP3   OH231125   2.413   0.281   4.854 -0.7318 -0.2135 -0.0133
 3237TIP3    H131126   2.465   0.350   4.813  1.4499 -1.4706  0.5035
 3237TIP3    H231127   2.354   0.327   4.914 -0.9051  1.3152 -1.2968
 3238TIP3   OH231128   3.070   5.467  17.264  0.2785 -0.0821 -0.1333
 3238TIP3    H131129   3.143   5.489  17.207  0.1549  0.4431 -0.0861
 3238TIP3    H231130   3.010   5.416  17.209  1.3676 -1.8115  0.2146
 3239TIP3   OH231131   2.120   4.498  15.080 -0.6164 -0.3650  0.4656
 3239TIP3    H131132   2.184   4.430  15.059  1.1328 -0.3464  4.8178
 3239TIP3    H231133   2.035   4.454  15.071  0.2720 -2.0930 -0.0131
 3240TIP3   OH231134   6.306   4.606  14.331 -0.6645 -0.2305  0.7669
 3240TIP3    H131135   6.212   4.598  14.348 -0.8018  0.2053  0.2392
 3240TIP3    H231136   6.331   4.521  14.294 -0.4498 -1.0292  2.6648
 3241TIP3   OH231137   2.017   5.740   6.597 -0.1753  0.3470 -0.2745
 3241TIP3    H131138   1.995   5.669   6.657  0.6626 -0.8693 -1.3644
 3241TIP3    H231139   1.992   5.820   6.644 -0.2794 -0.6097  1.3465
 3242TIP3   OH231140   5.985   6.435  12.130  0.3000 -0.1547  0.4246
 3242TIP3    H131141   5.947   6.415  12.216  1.6127  0.9925  1.3189
 3242TIP3    H231142   5.928   6.390  12.068 -1.5042  0.1048  1.7966
 3243TIP3   OH231143   4.947   0.787   2.640  0.1133 -0.0955 -0.0487
 3243TIP3    H131144   4.897   0.785   2.558  1.1789  0.7174 -0.7373
 3243TIP3    H231145   4.938   0.876   2.672 -0.5263 -0.4769  0.8972
 3244TIP3   OH231146   3.747   4.680   4.300  0.4253 -0.5475 -0.5267
 3244TIP3    H131147   3.671   4.638   4.341  0.4745 -0.2590 -0.1320
 3244TIP3    H231148   3.822   4.642   4.344  0.4321  1.3948  1.3129
 3245TIP3   OH231149   1.590   4.982  15.668 -0.1498  0.7103  0.2567
 3245TIP3    H131150   1.610   4.918  15.600 -0.2640 -0.0805  0.9513
 3245TIP3    H231151   1.653   5.053  15.655  1.4132 -0.5245  0.7920
 3246TIP3   OH231152   3.374   6.635   5.064 -0.1909  0.3336  0.4464
 3246TIP3    H131153   3.435   6.668   5.130  1.8222 -0.4032 -0.9452
 3246TIP3    H231154   3.323   6.711   5.038  0.5631  1.1221  1.2184
 3247TIP3   OH231155   5.369   1.337  14.560  0.0883  0.2406  0.3905
 3247TIP3    H131156   5.286   1.333  14.609  0.7320  0.6463  1.5407
 3247TIP3    H231157   5.342   1.330  14.468 -1.1405 -0.7133  0.7880
 3248TIP3   OH231158   1.091   1.895  15.267 -0.0395 -0.1015 -0.0249
 3248TIP3    H131159   1.093   1.802  15.246  1.8206  0.2872 -1.9285
 3248TIP3    H231160   1.021   1.930  15.213 -1.0401 -0.4222  1.0237
 3249TIP3   OH231161   3.124   6.597  13.225 -0.1596  0.1449 -0.1142
 3249TIP3    H131162   3.180   6.524  13.199 -1.6920 -0.6221 -1.4251
 3249TIP3    H231163   3.092   6.572  13.312  2.6327  1.3235  1.3843
 3250TIP3   OH231164   4.348   3.855  13.474 -0.1726 -0.5495  0.4766
 3250TIP3    H131165   4.383   3.867  13.562 -1.4822 -1.9434  1.2287
 3250TIP3    H231166   4.419   3.814  13.425  0.5325  0.1500  0.8922
 3251TIP3   OH231167   1.086   4.244  14.333 -0.0290  0.1201  0.3628
 3251TIP3    H131168   1.027   4.280  14.399 -0.2928  0.7582 -0.2002
 3251TIP3    H231169   1.173   4.257  14.369 -0.1715  0.4581  0.5929
 3252TIP3   OH231170   4.925   2.056  14.788  0.1386  0.2817  0.3858
 3252TIP3    H131171   5.013   2.069  14.822  1.0280 -1.9624 -0.8590
 3252TIP3    H231172   4.930   1.974  14.738 -2.5929  0.2097  0.0738
 3253TIP3   OH231173   6.029   2.072   2.113 -0.7803 -0.6720 -0.7040
 3253TIP3    H131174   6.053   1.980   2.105 -1.1791 -0.6386 -3.2317
 3253TIP3    H231175   5.952   2.081   2.056 -1.0192  1.1206 -0.1487
 3254TIP3   OH231176   0.231   4.246  15.650 -0.0254  0.5580 -0.4711
 3254TIP3    H131177   0.200   4.174  15.595 -0.0974  0.0260  0.2524
 3254TIP3    H231178   0.326   4.236  15.652 -0.0360  0.4706 -0.3640
 3255TIP3   OH231179   0.990   2.235   6.317  0.1905  0.2522  0.2898
 3255TIP3    H131180   0.947   2.167   6.265 -1.7568  1.0722  0.7098
 3255TIP3    H231181   0.992   2.200   6.406  1.8760 -0.4172  0.0138
 3256TIP3   OH231182   1.673   4.485   4.062  0.1353  0.1660 -0.5539
 3256TIP3    H131183   1.626   4.402   4.054  0.8877 -0.1827 -1.7102
 3256TIP3    H231184   1.758   4.461   4.100 -0.6818  0.8391  1.8871
 3257TIP3   OH231185   0.980   4.403   3.091  0.2622  0.6073 -0.1423
 3257TIP3    H131186   0.994   4.318   3.133 -1.0004  0.6746  0.4648
 3257TIP3    H231187   1.068   4.434   3.070  0.8501 -0.0808  1.1673
 3258TIP3   OH231188   3.035   5.615  15.597  0.3478 -0.1975 -0.0445
 3258TIP3    H131189   3.015   5.531  15.555 -0.2990 -0.1325  0.1193
 3258TIP3    H231190   3.077   5.666  15.528  1.2672 -0.8546  0.0195
 3259TIP3   OH231191   5.942   3.419   6.304  0.5423 -0.2867  0.4957
 3259TIP3    H131192   5.918   3.502   6.346  1.2821 -0.6494  1.6744
 3259TIP3    H231193   5.883   3.354   6.343 -0.7651 -0.1936 -1.1940
 3260TIP3   OH231194   2.352   6.750   5.332  0.3401  0.4923  0.2228
 3260TIP3    H131195   2.364   6.775   5.241 -2.3522  2.0653  0.2108
 3260TIP3    H231196   2.317   6.661   5.328  1.2419  0.1432 -0.1901
 3261TIP3   OH231197   0.368   4.598   3.194  0.1782  0.1751  0.6000
 3261TIP3    H131198   0.289   4.619   3.143  0.0591 -0.7878  0.3591
 3261TIP3    H231199   0.382   4.675   3.249 -0.0886  0.9649 -0.3912
 3262TIP3   OH231200   1.233   2.763  16.140 -0.3806 -0.2691  0.0432
 3262TIP3    H131201   1.166   2.774  16.207  0.7357  1.0137  1.0153
 3262TIP3    H231202   1.283   2.686  16.168 -0.7526 -0.5576 -0.0769
 3263TIP3   OH231203   0.123   5.763   5.570  0.5958  0.1853 -0.5678
 3263TIP3    H131204   0.120   5.712   5.489  0.4510  1.2430 -1.2450
 3263TIP3    H231205   0.131   5.697   5.639  0.2385 -0.7646 -1.4012
 3264TIP3   OH231206   5.730   0.082   4.325 -0.1599 -0.5715 -0.6459
 3264TIP3    H131207   5.821   0.112   4.327 -0.0093 -1.0606  0.3609
 3264TIP3    H231208   5.732   0.001   4.273 -0.1846 -0.1052 -1.3928
 3265TIP3   OH231209   5.025   2.970   1.646 -0.0173  0.2091  0.8592
 3265TIP3    H131210   5.051   3.049   1.597  1.1681 -1.0610 -0.6614
 3265TIP3    H231211   4.932   2.959   1.628  0.2288  0.2204 -0.4864
 3266TIP3   OH231212   2.714   0.459   2.707  0.1549  0.5818  0.5295
 3266TIP3    H131213   2.799   0.417   2.719 -0.9612 -1.9868 -0.0277
 3266TIP3    H231214   2.650   0.391   2.725 -1.7782  0.8980 -3.8519
 3267TIP3   OH231215   2.607   1.300   3.447  0.2011  0.2132  0.3375
 3267TIP3    H131216   2.545   1.256   3.505  1.4637  0.9855  2.3691
 3267TIP3    H231217   2.571   1.389   3.437  0.7298  0.5346  1.1820
 3268TIP3   OH231218   2.231   4.115   2.049 -0.2945 -0.0716 -0.2303
 3268TIP3    H131219   2.291   4.188   2.066 -2.5560  1.8072  0.2218
 3268TIP3    H231220   2.194   4.093   2.134 -2.2828  0.7536 -0.8250
 3269TIP3   OH231221   0.088   5.866  14.753 -0.0081  0.0863 -0.1742
 3269TIP3    H131222   0.174   5.863  14.712  0.0312  0.9634 -0.1735
 3269TIP3    H231223   0.026   5.844  14.683  0.0491  1.6326 -0.7459
 3270TIP3   OH231224   5.495   3.246  12.813  0.2298  0.2470  0.0187
 3270TIP3    H131225   5.559   3.316  12.817  1.5040 -0.7934 -1.1759
 3270TIP3    H231226   5.543   3.167  12.839 -0.3330 -0.6683 -1.5661
 3271TIP3   OH231227   1.047   4.982  12.206 -0.4787 -0.2249  0.4229
 3271TIP3    H131228   1.056   4.900  12.158 -2.3783  0.9479 -2.1604
 3271TIP3    H231229   0.952   4.999  12.207 -0.0429  3.0906 -1.3522
 3272TIP3   OH231230   1.861   6.110  14.722 -0.1783  0.0465 -0.1114
 3272TIP3    H131231   1.879   6.199  14.689  2.2267  0.0178  0.8978
 3272TIP3    H231232   1.767   6.109  14.737 -0.5648  1.7986 -1.9138
 3273TIP3   OH231233   6.271   0.056   4.008  0.5598  0.2168  0.2278
 3273TIP3    H131234   6.253   0.144   3.974  3.9555  1.3314  0.8923
 3273TIP3    H231235   6.263  -0.001   3.932 -0.6746  1.2248 -0.4520
 3274TIP3   OH231236   6.297   5.091  16.324 -0.0047  0.3595  0.0830
 3274TIP3    H131237   6.301   5.081  16.229 -0.9762  0.3695  0.0285
 3274TIP3    H231238   6.215   5.049  16.349  0.1591  0.5093  0.8987
 3275TIP3   OH231239   3.807   2.382  14.055 -0.9229  0.0041 -0.4325
 3275TIP3    H131240   3.876   2.332  14.099 -1.0537 -1.1797 -1.5217
 3275TIP3    H231241   3.849   2.415  13.976 -1.6389 -0.8979 -1.2082
 3276TIP3   OH231242   2.816   2.314   4.542 -0.2304 -0.4353 -0.6735
 3276TIP3    H131243   2.871   2.391   4.531 -1.4577  0.4808 -0.5795
 3276TIP3    H231244   2.780   2.298   4.454 -0.5877 -0.4159 -0.5328
 3277TIP3   OH231245   4.052   1.558  13.280 -0.0736  0.2805 -0.5281
 3277TIP3    H131246   4.036   1.521  13.193 -2.8182  0.9861 -0.4195
 3277TIP3    H231247   4.040   1.653  13.269 -2.3827  0.2378  0.8887
 3278TIP3   OH231248   5.243   3.014   2.629 -0.0296 -0.1576  0.4112
 3278TIP3    H131249   5.238   3.107   2.604  1.9113 -0.3345 -0.9005
 3278TIP3    H231250   5.309   3.011   2.698  1.1067 -0.6874 -0.6434
 3279TIP3   OH231251   6.156   2.512   2.173 -0.3029  0.4411  0.6005
 3279TIP3    H131252   6.232   2.468   2.135 -0.7335  0.5127 -0.3848
 3279TIP3    H231253   6.179   2.605   2.173 -0.0931  0.3911  1.0214
 3280TIP3   OH231254   5.299   6.011  13.662 -0.1504  0.1997 -0.2663
 3280TIP3    H131255   5.377   6.057  13.631 -0.2903  0.0831 -0.8022
 3280TIP3    H231256   5.299   6.024  13.757 -0.0788  1.1351 -0.3846
 3281TIP3   OH231257   2.272   4.536  15.430 -0.0005  0.6976 -0.0004
 3281TIP3    H131258   2.242   4.479  15.501 -0.7151  0.4711 -0.4699
 3281TIP3    H231259   2.350   4.493  15.395 -0.0020  0.4899  0.2537
 3282TIP3   OH231260   0.662   1.365  17.026 -0.5343  0.4351  0.6291
 3282TIP3    H131261   0.645   1.415  17.106  1.9911  0.4392  1.2601
 3282TIP3    H231262   0.713   1.290  17.055 -0.2507  0.0105 -0.8779
 3283TIP3   OH231263   6.117   0.358   5.152 -0.0262  0.0811  0.1234
 3283TIP3    H131264   6.103   0.395   5.065 -2.3148  0.0090  0.4010
 3283TIP3    H231265   6.093   0.266   5.143 -0.4505  0.1113  0.8560
 3284TIP3   OH231266   6.212   5.150   3.516 -0.6747 -0.2337 -0.0105
 3284TIP3    H131267   6.240   5.156   3.424 -0.0089  0.3086  0.2147
 3284TIP3    H231268   6.123   5.117   3.512 -0.5381 -0.5224 -0.8424
 3285TIP3   OH231269   2.532   3.919  14.297  0.1865 -0.2870 -0.0962
 3285TIP3    H131270   2.570   3.970  14.226  1.3390 -2.4295 -1.1202
 3285TIP3    H231271   2.592   3.932  14.371 -0.1851  0.7322  0.0462
 3286TIP3   OH231272   4.271   6.543  12.941  0.1075  0.7065  0.1164
 3286TIP3    H131273   4.302   6.502  13.022 -0.3883 -0.4467 -0.2613
 3286TIP3    H231274   4.202   6.603  12.970  1.1065  1.6081  0.7148
 3287TIP3   OH231275   1.717   5.363  15.444 -0.7065  0.1156 -0.3702
 3287TIP3    H131276   1.737   5.290  15.504 -1.0931 -0.1625 -0.5748
 3287TIP3    H231277   1.799   5.411  15.436 -0.3452 -0.5204 -0.5323
 3288TIP3   OH231278   3.605   6.611  14.470  0.5865 -0.2276 -0.2291
 3288TIP3    H131279   3.543   6.558  14.520 -0.0881  0.4297 -0.3476
 3288TIP3    H231280   3.596   6.699  14.506  0.0968  0.2635 -1.4859
 3289TIP3   OH231281   0.490   4.105   4.758 -0.1444  0.4966  0.3793
 3289TIP3    H131282   0.414   4.101   4.815 -0.2914 -3.1550  0.1302
 3289TIP3    H231283   0.465   4.056   4.680  1.7780  1.0151 -0.6469
 3290TIP3   OH231284   6.308   0.183  15.452  0.7624 -0.5095  0.1070
 3290TIP3    H131285   6.400   0.166  15.434  0.7849 -1.7631  1.2272
 3290TIP3    H231286   6.263   0.102  15.426  0.2780 -0.7384  1.5522
 3291TIP3   OH231287   0.794   6.266  12.991  0.3290  0.4732  0.0123
 3291TIP3    H131288   0.826   6.204  12.927  0.6265  0.2290  0.3896
 3291TIP3    H231289   0.874   6.306  13.027  0.3636 -1.3463  2.1741
 3292TIP3   OH231290   3.039   3.905   6.859  0.2609 -0.7211  0.7158
 3292TIP3    H131291   3.013   3.828   6.808 -1.4934 -0.8005  1.6633
 3292TIP3    H231292   3.103   3.870   6.922 -0.7673 -1.4916  1.3582
 3293TIP3   OH231293   2.806   3.723   3.087 -0.2210  0.3676  0.5302
 3293TIP3    H131294   2.727   3.670   3.079  0.7385 -1.3732  1.9101
 3293TIP3    H231295   2.830   3.744   2.997 -0.6952 -1.5012 -0.0837
 3294TIP3   OH231296   1.365   1.132  14.633 -0.2413 -0.1838  0.1876
 3294TIP3    H131297   1.358   1.188  14.556  1.7528 -1.5630 -1.0947
 3294TIP3    H231298   1.319   1.052  14.608 -1.2682  0.0627  1.2082
 3295TIP3   OH231299   3.230   5.137  16.441  0.2866  0.1257 -0.2587
 3295TIP3    H131300   3.182   5.146  16.524 -1.9356 -0.2289 -1.4211
 3295TIP3    H231301   3.196   5.055  16.404 -0.8761  1.6220 -2.7479
 3296TIP3   OH231302   5.958   3.016  12.323 -0.2136  0.1421  0.1076
 3296TIP3    H131303   5.986   2.945  12.379  4.0533  0.6675 -1.0111
 3296TIP3    H231304   5.918   2.973  12.247 -0.3270 -0.8568  0.7164
 3297TIP3   OH231305   5.570   2.737  16.275 -0.2202 -0.5003 -0.2689
 3297TIP3    H131306   5.573   2.667  16.209  1.0239 -0.2349 -0.5290
 3297TIP3    H231307   5.609   2.697  16.353 -1.2817 -0.6755  0.1866
 3298TIP3   OH231308   3.883   0.382  11.588  0.6250 -0.3731 -0.0569
 3298TIP3    H131309   3.880   0.349  11.678  0.2150  2.1564  0.9280
 3298TIP3    H231310   3.976   0.395  11.570  0.6054  1.6163  1.0435
 3299TIP3   OH231311   5.802   4.749  14.742  0.4356  0.3514  0.4046
 3299TIP3    H131312   5.759   4.717  14.663  2.5087 -0.9038 -0.2814
 3299TIP3    H231313   5.810   4.671  14.798  2.5894  0.3122  0.1180
 3300TIP3   OH231314   5.849   6.734  17.347  0.4936 -0.1221 -0.2121
 3300TIP3    H131315   5.849   6.667  17.416  1.4178 -1.4387 -1.4388
 3300TIP3    H231316   5.807   6.691  17.272 -0.7645  1.3859 -0.4136
 3301TIP3   OH231317   6.175   1.182   1.655 -0.1057 -0.5129  0.5904
 3301TIP3    H131318   6.215   1.244   1.593  3.4821 -0.7445  2.3911
 3301TIP3    H231319   6.167   1.232   1.736 -0.3989 -1.4735  1.1652
 3302TIP3   OH231320   6.300   4.596   4.492 -0.5175  0.7660 -0.3165
 3302TIP3    H131321   6.368   4.557   4.437 -0.4261  1.0479 -0.4018
 3302TIP3    H231322   6.261   4.521   4.538 -0.3965  0.5632 -0.5418
 3303TIP3   OH231323   4.736   3.268  16.008 -0.4685  0.2405 -0.3738
 3303TIP3    H131324   4.805   3.319  15.966  0.3150  0.2601  0.8899
 3303TIP3    H231325   4.659   3.326  16.005 -0.5399  0.1117 -2.0203
 3304TIP3   OH231326   5.801   6.090   2.114 -0.8447 -0.8049  0.2649
 3304TIP3    H131327   5.791   6.024   2.182 -2.7246 -0.6120  0.2479
 3304TIP3    H231328   5.837   6.166   2.159 -2.5909 -0.4899  1.2308
 3305TIP3   OH231329   2.487   3.182   1.677 -0.4368  0.7030 -0.1880
 3305TIP3    H131330   2.531   3.112   1.630 -1.3570  0.2637 -0.4097
 3305TIP3    H231331   2.525   3.179   1.765 -1.5927 -1.1624  0.3082
 3306TIP3   OH231332   0.918   6.653   4.803  0.2975  0.0169 -0.3786
 3306TIP3    H131333   0.845   6.710   4.778 -0.9028 -0.9442  0.8140
 3306TIP3    H231334   0.877   6.579   4.849  2.0477 -0.3762  0.6564
 3307TIP3   OH231335   0.203   4.268   3.247 -0.1054  0.6913 -0.0314
 3307TIP3    H131336   0.141   4.200   3.223 -0.4414  0.3339  1.6670
 3307TIP3    H231337   0.271   4.265   3.179 -0.6903 -0.5766 -0.5809
 3308TIP3   OH231338   0.548   5.482  11.231 -0.1995 -0.0199  0.2697
 3308TIP3    H131339   0.605   5.417  11.271  1.1411  2.0519  1.9783
 3308TIP3    H231340   0.550   5.462  11.138 -1.0028 -3.2189  0.8463
 3309TIP3   OH231341   0.879   1.449   0.078 -0.3700  0.4195  0.1137
 3309TIP3    H131342   0.903   1.382   0.141 -0.9583 -1.4137 -1.5212
 3309TIP3    H231343   0.936   1.523   0.099  0.0349 -0.4118  2.2193
 3310TIP3   OH231344   0.988   2.558  11.367 -0.1406 -0.2313 -0.8454
 3310TIP3    H131345   1.028   2.553  11.280  0.6406  0.1023 -0.5089
 3310TIP3    H231346   0.985   2.651  11.388 -1.6506 -0.1860 -1.1026
 3311TIP3   OH231347   1.536   5.633   1.122 -0.3247  0.5217  0.4655
 3311TIP3    H131348   1.622   5.590   1.128 -0.8518 -1.2501 -2.5447
 3311TIP3    H231349   1.533   5.691   1.197  3.6339  0.8837  0.5481
 3312TIP3   OH231350   0.289   5.893   3.386 -0.1253  0.4108 -0.5558
 3312TIP3    H131351   0.232   5.877   3.461  1.6370 -0.3052  0.7014
 3312TIP3    H231352   0.258   5.832   3.319 -2.1742  1.5503 -0.7185
 3313TIP3   OH231353   0.870   2.888   2.107  0.5482 -0.6604 -0.1289
 3313TIP3    H131354   0.894   2.812   2.054  0.6342 -0.3792 -0.4981
 3313TIP3    H231355   0.805   2.934   2.054  1.9905  0.6316 -0.8529
 3314TIP3   OH231356   4.508   3.310   0.944  0.2761 -0.0565 -0.0839
 3314TIP3    H131357   4.550   3.301   1.030  1.5564 -0.1934 -0.7000
 3314TIP3    H231358   4.425   3.354   0.963  0.5414 -0.0691  1.2236
 3315TIP3   OH231359   5.733   4.610   1.649  0.2510 -0.4685 -0.1547
 3315TIP3    H131360   5.690   4.693   1.673  1.9704  1.4864 -3.1161
 3315TIP3    H231361   5.811   4.608   1.704  0.4586  0.1559 -0.4131
 3316TIP3   OH231362   4.609   2.156   2.598  0.2111  0.1067 -0.1401
 3316TIP3    H131363   4.614   2.223   2.666  4.1373  1.6214 -1.6326
 3316TIP3    H231364   4.621   2.073   2.646 -0.6382  0.7763  1.3108
 3317TIP3   OH231365   4.292   3.510  14.737 -0.3058  0.3998  0.4944
 3317TIP3    H131366   4.359   3.569  14.771  1.3587 -1.5529  0.8427
 3317TIP3    H231367   4.254   3.469  14.815 -2.5638  2.0470  0.3540
 3318TIP3   OH231368   5.839   2.955  12.068 -0.6066 -0.0181  0.2580
 3318TIP3    H131369   5.749   2.970  12.040  0.1208  0.7012 -1.9117
 3318TIP3    H231370   5.862   2.870  12.030  0.2309  0.7278 -0.9916
 3319TIP3   OH231371   0.898   5.377  11.026 -0.4597  0.0852  0.0653
 3319TIP3    H131372   0.981   5.332  11.019 -0.0665  0.7205  0.5008
 3319TIP3    H231373   0.856   5.365  10.941  1.4751  2.4736 -1.3349
 3320TIP3   OH231374   5.982   5.486   2.441 -0.3631  0.1526 -0.2415
 3320TIP3    H131375   5.991   5.436   2.359 -1.3645  1.7737 -1.3970
 3320TIP3    H231376   6.000   5.422   2.510 -2.2018 -1.9798 -1.6191
 3321TIP3   OH231377   6.739   0.886   3.775 -0.0880  0.0506  0.7102
 3321TIP3    H131378   6.775   0.944   3.708  0.8858  1.3803  2.3296
 3321TIP3    H231379   6.802   0.815   3.782  1.0178  1.0918  1.7800
 3322TIP3   OH231380   1.152   3.473   5.599 -0.2286 -0.2916 -0.4856
 3322TIP3    H131381   1.214   3.462   5.526 -0.6479  0.1008 -0.9080
 3322TIP3    H231382   1.207   3.495   5.674  0.1758 -0.2790 -0.7823
 3323TIP3   OH231383   5.758   0.394   3.881 -0.5906  0.1528  0.2748
 3323TIP3    H131384   5.706   0.336   3.826  2.8679 -1.0830 -2.0338
 3323TIP3    H231385   5.765   0.475   3.830  2.1705 -0.8073 -1.0967
 3324TIP3   OH231386   4.738   3.721  17.227 -0.7330 -0.1493  0.1943
 3324TIP3    H131387   4.731   3.697  17.134  0.4576  2.3152 -0.6213
 3324TIP3    H231388   4.831   3.709  17.247 -1.2624 -2.3932  1.6779
 3325TIP3   OH231389   5.153   4.116   0.878 -0.4120 -0.2409 -0.1592
 3325TIP3    H131390   5.235   4.092   0.836 -0.4762 -2.0927  0.6657
 3325TIP3    H231391   5.131   4.202   0.842  1.3767 -0.1444 -1.1098
 3326TIP3   OH231392   3.311   5.366   3.292 -0.5184 -0.0251  0.2923
 3326TIP3    H131393   3.262   5.285   3.277  1.8594 -1.6841  0.8618
 3326TIP3    H231394   3.301   5.383   3.386  0.1290 -0.4926  0.4537
 3327TIP3   OH231395   1.634   1.134   1.099  0.9070  0.1402  0.1659
 3327TIP3    H131396   1.575   1.189   1.150  0.7728  0.2281 -0.0826
 3327TIP3    H231397   1.594   1.129   1.012  1.9184  1.2660 -0.3897
 3328TIP3   OH231398   4.916   6.219   1.623  0.3852  0.5047  0.0842
 3328TIP3    H131399   4.902   6.262   1.539 -0.9251  0.3479  0.1953
 3328TIP3    H231400   4.828   6.190   1.650  0.7822  0.5322  1.4935
 3329TIP3   OH231401   5.974   5.575   4.788  0.6539  0.4083 -0.3437
 3329TIP3    H131402   5.933   5.648   4.742  0.2158  0.8333  0.7053
 3329TIP3    H231403   6.067   5.582   4.766  1.1928  3.1989  2.1862
 3330TIP3   OH231404   5.846   3.483  17.239 -0.2636  0.4574  0.1185
 3330TIP3    H131405   5.807   3.556  17.192 -2.3931 -1.4752 -1.3490
 3330TIP3    H231406   5.842   3.410  17.177 -2.2512 -1.9827  2.8254
 3331TIP3   OH231407   3.991   5.623   2.731 -0.3717  0.4665 -0.3297
 3331TIP3    H131408   4.069   5.672   2.755 -0.9781  0.4479  1.9899
 3331TIP3    H231409   3.951   5.599   2.815 -2.4417 -0.2108 -1.4209
 3332TIP3   OH231410   5.076   3.428  14.853 -0.0264 -0.8853  0.1525
 3332TIP3    H131411   5.001   3.415  14.910 -0.2901 -0.3442 -0.0668
 3332TIP3    H231412   5.089   3.523  14.851  0.5579 -0.9608  0.0561
 3333TIP3   OH231413   6.719   6.381   4.034  0.0275  1.3477  1.1211
 3333TIP3    H131414   6.670   6.339   4.105  1.3683 -0.4846  1.0203
 3333TIP3    H231415   6.789   6.428   4.079  0.2755  1.0234  1.0771
 3334TIP3   OH231416   5.588   4.495  15.015 -0.3673  0.1982 -0.3534
 3334TIP3    H131417   5.672   4.496  14.969 -1.3920  0.2080 -2.3394
 3334TIP3    H231418   5.544   4.576  14.988 -1.9983 -0.9604 -1.3796
 3335TIP3   OH231419   4.378   4.106   6.138 -0.1551 -0.3370  0.0231
 3335TIP3    H131420   4.287   4.126   6.115  0.0241 -1.4845 -1.8966
 3335TIP3    H231421   4.378   4.100   6.233 -1.8147  0.8917  0.1485
 3336TIP3   OH231422   1.667   3.922  16.456 -0.0939 -0.0518 -0.7572
 3336TIP3    H131423   1.668   3.930  16.361  1.9990 -0.6572 -0.8320
 3336TIP3    H231424   1.698   3.834  16.474  0.9946  0.5393  0.5006
 3337TIP3   OH231425   5.378   5.179   0.170 -0.0373  0.2823  0.1355
 3337TIP3    H131426   5.414   5.093   0.194  2.5433  0.7310 -1.7228
 3337TIP3    H231427   5.347   5.167   0.081  1.6174  1.5605 -0.6583
 3338TIP3   OH231428   1.664   4.183  12.728  0.7872 -0.1418 -0.0880
 3338TIP3    H131429   1.629   4.221  12.809 -0.0529 -1.2756  0.0982
 3338TIP3    H231430   1.652   4.252  12.663 -2.4163 -0.6169 -0.1759
 3339TIP3   OH231431   6.425   5.426   0.027  0.4326 -0.2776 -0.6689
 3339TIP3    H131432   6.433   5.366   0.101 -0.1968 -0.4222 -0.7089
 3339TIP3    H231433   6.408   5.368  -0.048  1.3680 -0.1555 -0.9805
 3340TIP3   OH231434   2.208   1.136  16.668  0.1997  0.5386 -0.5204
 3340TIP3    H131435   2.136   1.083  16.703 -0.0492  2.0307  1.3499
 3340TIP3    H231436   2.169   1.222  16.651  1.0621  0.7372 -1.6105
 3341TIP3   OH231437   2.519   1.754  13.188 -0.0424 -0.5971 -0.8357
 3341TIP3    H131438   2.475   1.773  13.105 -0.2046 -0.0968 -0.6444
 3341TIP3    H231439   2.485   1.669  13.215 -0.7315 -0.3115 -0.7973
 3342TIP3   OH231440   4.101   3.871  16.647  0.2466 -0.1902  0.1510
 3342TIP3    H131441   4.063   3.826  16.722 -0.9850  0.0891 -0.2787
 3342TIP3    H231442   4.195   3.874  16.665 -0.0930  0.3610  1.9476
 3343TIP3   OH231443   6.151   2.289   1.367 -0.0975  0.0965  0.1945
 3343TIP3    H131444   6.058   2.310   1.378 -0.0205  2.1325 -2.1214
 3343TIP3    H231445   6.169   2.308   1.275  1.7995 -3.8525 -0.4834
 3344TIP3   OH231446   3.759   5.172  11.964  0.4384 -0.2771  0.8382
 3344TIP3    H131447   3.763   5.104  12.031  0.5216 -0.0244  1.0895
 3344TIP3    H231448   3.670   5.207  11.971  0.5800  0.0334  1.0972
 3345TIP3   OH231449   2.527   2.500   4.077 -0.3505  0.0143 -0.0267
 3345TIP3    H131450   2.612   2.503   4.034 -0.3368 -0.3163 -0.0280
 3345TIP3    H231451   2.500   2.591   4.084 -1.5264 -0.0191 -3.0586
 3346TIP3   OH231452   0.184   2.684   3.828  0.6249  0.1634  0.2886
 3346TIP3    H131453   0.183   2.628   3.750  1.9596  0.2668  0.1691
 3346TIP3    H231454   0.100   2.667   3.870  0.6879 -1.3855 -0.1300
 3347TIP3   OH231455   6.276   6.301  11.024 -0.0842  0.1439  0.2610
 3347TIP3    H131456   6.283   6.205  11.029  0.0203  0.1777  0.8539
 3347TIP3    H231457   6.273   6.329  11.116 -0.0449  0.7135  0.0884
 3348TIP3   OH231458   3.048   1.887   1.348  0.2782  0.4088 -0.7797
 3348TIP3    H131459   3.013   1.798   1.358  2.6473 -0.6358 -1.1818
 3348TIP3    H231460   2.978   1.943   1.381 -0.9540 -1.6389  0.3358
 3349TIP3   OH231461   3.880   4.793  16.858 -0.1820 -0.3164 -0.7886
 3349TIP3    H131462   3.950   4.728  16.852 -0.2479 -0.4123 -0.5482
 3349TIP3    H231463   3.907   4.864  16.800  0.2915 -0.1853 -0.4131
 3350TIP3   OH231464   5.828   3.677   4.835 -0.6721 -0.0842  0.1412
 3350TIP3    H131465   5.778   3.595   4.832  0.3888 -0.7096 -2.2049
 3350TIP3    H231466   5.845   3.699   4.744  2.7560  0.4642  0.7899
 3351TIP3   OH231467   0.112   0.504   5.937  0.2762 -0.2907  0.0086
 3351TIP3    H131468   0.134   0.594   5.961  1.4401 -0.5178 -0.1161
 3351TIP3    H231469   0.070   0.468   6.015 -1.5384  0.7727 -0.4362
 3352TIP3   OH231470   4.299   5.634  15.842  0.6660  0.2142 -0.1401
 3352TIP3    H131471   4.326   5.674  15.924  2.2974 -0.6402 -0.2151
 3352TIP3    H231472   4.378   5.634  15.788  0.2547 -1.4380 -0.8034
 3353TIP3   OH231473   4.071   5.558  14.451 -0.3367  0.1128  0.0558
 3353TIP3    H131474   4.086   5.608  14.371  1.0084 -0.9174 -0.3820
 3353TIP3    H231475   4.002   5.605  14.497  0.6354  2.1672 -0.4875
 3354TIP3   OH231476   5.625   6.069  17.301 -0.4908 -0.1198  0.4816
 3354TIP3    H131477   5.559   6.087  17.234 -1.4488  0.4094  1.5192
 3354TIP3    H231478   5.699   6.033  17.253 -0.3484  2.1015 -1.1409
 3355TIP3   OH231479   5.915   4.276   2.612 -0.0146 -0.0130  0.0566
 3355TIP3    H131480   5.882   4.313   2.694  0.1061  0.7072 -0.2117
 3355TIP3    H231481   5.916   4.350   2.551  0.6853 -0.3498 -0.3536
 3356TIP3   OH231482   2.144   4.793  13.004  0.0931  0.1018  0.9449
 3356TIP3    H131483   2.127   4.817  13.095 -3.4108 -2.4339  1.1658
 3356TIP3    H231484   2.081   4.845  12.953  2.3364  1.8621 -0.2328
 3357TIP3   OH231485   6.099   2.179  13.396  0.5403 -0.5447 -0.4519
 3357TIP3    H131486   6.003   2.181  13.390  0.5713 -0.6780 -0.9898
 3357TIP3    H231487   6.128   2.245  13.334  0.8124 -0.8606 -0.6614
 3358TIP3   OH231488   2.020   2.596   4.379 -0.3659 -0.4188 -0.1691
 3358TIP3    H131489   2.095   2.547   4.410 -0.5699 -0.9328 -0.4717
 3358TIP3    H231490   1.948   2.571   4.437 -0.4321 -0.3596 -0.2240
 3359TIP3   OH231491   2.527   2.415   2.789  0.4296  0.0455  0.5632
 3359TIP3    H131492   2.603   2.465   2.819  0.1449 -0.5286  2.4012
 3359TIP3    H231493   2.531   2.333   2.839 -0.8253 -0.4365 -0.0781
 3360TIP3   OH231494   4.271   5.506   1.177  0.2640  0.2499  0.0171
 3360TIP3    H131495   4.362   5.505   1.144  0.4605  0.5144  0.5545
 3360TIP3    H231496   4.276   5.459   1.260  0.1887  1.6074  0.7992
 3361TIP3   OH231497   3.597   0.524   3.964 -0.0336  0.5603 -0.5686
 3361TIP3    H131498   3.512   0.487   3.989 -0.2413  1.4069  0.0256
 3361TIP3    H231499   3.658   0.451   3.969 -0.5678  0.1362 -0.1295
 3362TIP3   OH231500   5.506   1.159  13.502 -0.5624 -0.1595  0.2744
 3362TIP3    H131501   5.513   1.238  13.449 -3.7911  1.8652  2.4336
 3362TIP3    H231502   5.443   1.104  13.454  1.4398 -1.3958 -1.0666
 3363TIP3   OH231503   3.305   3.431  13.681 -0.2305  0.1606  0.5947
 3363TIP3    H131504   3.316   3.525  13.670  1.2022 -0.1076 -0.5979
 3363TIP3    H231505   3.238   3.407  13.618  1.9024 -0.0757 -1.7513
 3364TIP3   OH231506   6.668   5.292   3.314  0.1278  0.3012  0.0898
 3364TIP3    H131507   6.682   5.203   3.281 -0.0095  1.2463 -2.7875
 3364TIP3    H231508   6.593   5.284   3.373  1.0827 -1.7075  1.1341
 3365TIP3   OH231509   1.546   4.430   2.423 -0.0973 -0.1239 -0.3208
 3365TIP3    H131510   1.530   4.380   2.503 -2.1060  0.3444 -0.3683
 3365TIP3    H231511   1.526   4.521   2.447 -0.0465  0.1204 -1.1821
 3366TIP3   OH231512   5.923   5.695   2.093 -0.3587  0.6025  0.0046
 3366TIP3    H131513   6.010   5.709   2.056 -0.1023 -0.1924  0.2765
 3366TIP3    H231514   5.933   5.711   2.187 -0.6603  1.1532 -0.0560
 3367TIP3   OH231515   3.910   4.078   4.008  0.2116 -0.2069  0.7049
 3367TIP3    H131516   4.001   4.095   3.982  0.2831 -2.3964 -0.8183
 3367TIP3    H231517   3.858   4.116   3.938  0.1142 -1.1146  0.2648
 3368TIP3   OH231518   6.636   5.580   3.469 -0.4918  0.4383 -0.2983
 3368TIP3    H131519   6.677   5.504   3.429 -0.4731  0.7853 -0.9509
 3368TIP3    H231520   6.632   5.559   3.562  0.4224  0.0531 -0.3309
 3369TIP3   OH231521   2.423   2.835   5.438 -0.3154 -0.2977  0.7360
 3369TIP3    H131522   2.414   2.759   5.380 -2.6804 -2.3117  3.4603
 3369TIP3    H231523   2.495   2.812   5.497 -0.0545  0.3056  0.6664
 3370TIP3   OH231524   4.503   1.284   2.143  0.0527 -0.0184 -0.0505
 3370TIP3    H131525   4.565   1.229   2.191  0.2188  0.7494  0.6330
 3370TIP3    H231526   4.433   1.223   2.118  0.8150 -0.7860 -0.3789
 3371TIP3   OH231527   0.666   4.427   2.412  0.5384 -0.6201  0.9524
 3371TIP3    H131528   0.727   4.356   2.431  0.3556 -1.1107 -0.2078
 3371TIP3    H231529   0.680   4.490   2.482  1.1621 -1.5059  1.6480
 3372TIP3   OH231530   4.856   0.348  16.890  0.4913 -0.6570 -0.2620
 3372TIP3    H131531   4.787   0.302  16.843 -0.4486  0.5338 -0.1030
 3372TIP3    H231532   4.875   0.292  16.965 -1.3926 -0.3341  0.5221
 3373TIP3   OH231533   2.354   1.493  13.843  0.0924  0.2985  0.8701
 3373TIP3    H131534   2.360   1.398  13.830 -0.6064  0.3635 -0.0506
 3373TIP3    H231535   2.436   1.528  13.808  1.3724 -0.1099  3.2265
 3374TIP3   OH231536   5.428   0.496  12.668  0.2371 -0.3526  0.0405
 3374TIP3    H131537   5.346   0.449  12.649  0.5723 -1.0593  0.3043
 3374TIP3    H231538   5.485   0.429  12.708  0.9190  0.1483 -0.0866
 3375TIP3   OH231539   0.208   3.262   1.875  0.1942  0.5652 -0.2094
 3375TIP3    H131540   0.125   3.256   1.827 -0.0718  0.7830  0.2136
 3375TIP3    H231541   0.262   3.193   1.838 -0.9798 -1.1130  1.0562
 3376TIP3   OH231542   1.577   5.239  16.407  0.1852 -0.1732  0.3952
 3376TIP3    H131543   1.554   5.155  16.367 -1.7686  0.2613  0.5229
 3376TIP3    H231544   1.639   5.279  16.346  1.4528 -1.8451  0.5158
 3377TIP3   OH231545   1.399   3.287  13.225  0.2144  0.5046  0.2318
 3377TIP3    H131546   1.468   3.352  13.240  0.4590  0.2612  0.1826
 3377TIP3    H231547   1.320   3.327  13.261  0.9194 -0.4300  3.1116
 3378TIP3   OH231548   2.275   4.503  16.128 -0.1354 -0.1079  1.1226
 3378TIP3    H131549   2.205   4.440  16.111  0.0660 -0.2798  0.9295
 3378TIP3    H231550   2.234   4.588  16.113 -0.0758 -0.2421  0.1664
 3379TIP3   OH231551   6.337   5.842   1.111  0.2089 -0.3861  0.2284
 3379TIP3    H131552   6.425   5.869   1.088 -0.1025  0.7569  0.3279
 3379TIP3    H231553   6.323   5.876   1.199 -0.5061 -0.0987  0.0186
 3380TIP3   OH231554   0.166   2.306  17.097 -0.0791  0.1602  0.0969
 3380TIP3    H131555   0.074   2.281  17.108 -1.0184  2.2455 -1.9622
 3380TIP3    H231556   0.179   2.376  17.161  0.7673 -1.4989  1.8153
 3381TIP3   OH231557   3.046   0.633  14.057 -0.2023 -0.2324  0.5089
 3381TIP3    H131558   3.123   0.630  14.000 -0.9530  2.1760 -0.7745
 3381TIP3    H231559   2.972   0.622  13.999 -0.9106 -2.3094  1.7090
 3382TIP3   OH231560   1.503   0.136   3.623 -0.0081  0.3763 -0.2020
 3382TIP3    H131561   1.521   0.042   3.616  0.6024  0.3885  0.9448
 3382TIP3    H231562   1.408   0.141   3.633  0.1008 -0.2720  1.5240
 3383TIP3   OH231563   5.363   2.485  12.336 -0.0574 -0.0859 -0.2251
 3383TIP3    H131564   5.291   2.546  12.317 -0.7523 -1.0562 -0.8076
 3383TIP3    H231565   5.350   2.461  12.427  0.1949  0.5996 -0.0033
 3384TIP3   OH231566   5.982   5.458  14.089  0.5646  0.4699 -0.3701
 3384TIP3    H131567   6.068   5.424  14.113  1.3461  0.9582 -2.2690
 3384TIP3    H231568   5.963   5.418  14.004 -1.3359 -0.0277  0.2471
 3385TIP3   OH231569   5.889   0.783   3.800 -0.3462 -0.1575  0.2704
 3385TIP3    H131570   5.976   0.756   3.831 -0.1761 -0.6662 -0.6284
 3385TIP3    H231571   5.830   0.753   3.869  0.0682 -0.8971  0.3191
 3386TIP3   OH231572   5.552   1.733  12.745  0.2153 -0.1711 -0.7130
 3386TIP3    H131573   5.646   1.745  12.731  0.4053 -1.3431 -0.5412
 3386TIP3    H231574   5.525   1.670  12.677 -0.0926 -1.1131  0.2477
 3387TIP3   OH231575   4.016   6.200  15.706  0.7276 -0.0832  0.5688
 3387TIP3    H131576   3.992   6.141  15.635 -0.8601 -0.4070  1.3051
 3387TIP3    H231577   4.098   6.165  15.740  0.5911 -0.9644  0.0207
 3388TIP3   OH231578   4.317   5.140  17.001 -0.2811 -0.1287 -0.2050
 3388TIP3    H131579   4.228   5.177  17.000  0.1716  0.9803 -0.2589
 3388TIP3    H231580   4.306   5.051  16.967 -1.1860  0.4281 -1.4260
 3389TIP3   OH231581   5.435   0.455  13.337  0.4064  0.1857 -0.2546
 3389TIP3    H131582   5.358   0.422  13.289  0.3979  1.2773 -1.0247
 3389TIP3    H231583   5.409   0.450  13.429  0.4313 -1.9845 -0.2930
 3390TIP3   OH231584   4.281   4.519  16.374  0.0117  0.5839 -0.3350
 3390TIP3    H131585   4.311   4.610  16.366  1.7698  0.2031  1.4421
 3390TIP3    H231586   4.340   4.479  16.437 -1.2828 -1.5878 -0.4062
 3391TIP3   OH231587   4.069   4.901  13.329  0.2015 -0.3095  0.2178
 3391TIP3    H131588   4.148   4.878  13.279 -0.5013  0.2590 -1.2144
 3391TIP3    H231589   4.092   4.882  13.420  2.1915  0.3424 -0.0855
 3392TIP3   OH231590   3.837   3.955  12.131 -0.6318 -0.1022  0.0416
 3392TIP3    H131591   3.835   3.865  12.162  0.7509 -0.5849 -1.1847
 3392TIP3    H231592   3.764   3.961  12.068 -0.0057 -0.7098 -0.7535
 3393TIP3   OH231593   3.956   3.693  14.875  0.2645 -0.2387 -0.8210
 3393TIP3    H131594   3.912   3.769  14.837 -1.1136 -1.0247 -0.8518
 3393TIP3    H231595   3.907   3.618  14.841  1.0365 -1.1021 -0.0658
 3394TIP3   OH231596   4.523   3.558  13.547  0.1121 -0.8491 -0.6091
 3394TIP3    H131597   4.613   3.591  13.550  0.6316 -2.1013 -1.7231
 3394TIP3    H231598   4.486   3.584  13.632  1.3565  0.1162 -0.3316
 3395TIP3   OH231599   1.735   4.255   6.041 -0.5086 -0.1686 -0.2966
 3395TIP3    H131600   1.798   4.286   6.106 -0.0733 -0.7097 -0.4564
 3395TIP3    H231601   1.654   4.303   6.062 -0.0768  0.4625 -0.0375
 3396TIP3   OH231602   4.861   2.100   5.279 -1.2489 -0.2052 -0.3385
 3396TIP3    H131603   4.799   2.033   5.251  0.5914 -2.1963  0.0551
 3396TIP3    H231604   4.881   2.150   5.199 -1.0792 -1.5033 -1.1279
 3397TIP3   OH231605   0.231   3.068  13.257 -0.0093  0.0547  0.4871
 3397TIP3    H131606   0.271   3.010  13.193  0.5495  2.8090 -1.8443
 3397TIP3    H231607   0.212   3.011  13.332  0.2759 -3.1234 -1.6544
 3398TIP3   OH231608   3.305   5.019   3.452  0.4367  0.4407 -0.6563
 3398TIP3    H131609   3.341   5.047   3.368  0.3710 -0.7785 -1.1065
 3398TIP3    H231610   3.321   5.093   3.511  0.1186  1.4807 -1.8296
 3399TIP3   OH231611   5.592   6.081  14.404  0.1313 -0.0347  0.6363
 3399TIP3    H131612   5.509   6.058  14.362  0.4844 -0.2472  0.0430
 3399TIP3    H231613   5.570   6.089  14.497 -0.7661  0.8568  0.3832
 3400TIP3   OH231614   3.288   3.187  11.881 -0.5109 -0.0612 -0.0207
 3400TIP3    H131615   3.249   3.272  11.901 -0.1573  0.2281 -0.5371
 3400TIP3    H231616   3.336   3.201  11.800  1.2870 -0.1950  0.9646
 3401TIP3   OH231617   2.161   1.254  12.426  0.3912 -0.0691  0.0605
 3401TIP3    H131618   2.070   1.258  12.454  0.7648 -0.5518  1.4107
 3401TIP3    H231619   2.157   1.223  12.335 -0.7792 -0.0059  0.0787
 3402TIP3   OH231620   1.258   6.634  14.855 -0.0008  0.2530  0.6388
 3402TIP3    H131621   1.345   6.657  14.889  1.0178 -1.5555 -0.5875
 3402TIP3    H231622   1.215   6.588  14.927  1.3116 -1.6423  0.2812
 3403TIP3   OH231623   6.620   5.910   1.415  0.4309  0.2636  0.6259
 3403TIP3    H131624   6.644   6.003   1.414 -0.2560  0.4435  0.8702
 3403TIP3    H231625   6.668   5.874   1.490  1.1679  0.2867  0.1804
 3404TIP3   OH231626   5.628   1.886   2.207 -0.9411  0.0578  0.2498
 3404TIP3    H131627   5.627   1.791   2.215  0.2688  0.0202  0.2140
 3404TIP3    H231628   5.552   1.916   2.257 -1.4066 -0.9322  0.1487
 3405TIP3   OH231629   2.956   2.996   3.308  0.0313  0.1715 -0.0184
 3405TIP3    H131630   3.010   3.075   3.302 -0.2888  0.3661 -0.4118
 3405TIP3    H231631   2.866   3.028   3.297 -0.3342  0.0556  2.1222
 3406TIP3   OH231632   4.977   2.591  11.622 -0.8413 -0.4136 -0.0906
 3406TIP3    H131633   5.002   2.502  11.598 -0.5483 -0.6788  1.1193
 3406TIP3    H231634   5.057   2.629  11.658 -1.4454 -0.3254  1.2133
 3407TIP3   OH231635   3.934   0.462   5.594 -0.1439 -0.2453  0.1475
 3407TIP3    H131636   3.945   0.552   5.624 -0.8861  0.3500 -1.2823
 3407TIP3    H231637   3.947   0.409   5.673  1.4383  1.0157  0.8108
 3408TIP3   OH231638   1.186   5.144  12.023  0.0790 -0.0668 -0.0477
 3408TIP3    H131639   1.128   5.096  12.083 -0.6978  0.9668  0.0699
 3408TIP3    H231640   1.208   5.081  11.954 -0.2924 -0.8044  0.4949
 3409TIP3   OH231641   1.540   0.734  14.307  0.0330 -0.6387  0.3286
 3409TIP3    H131642   1.503   0.725  14.219 -1.3073 -0.1863  0.8330
 3409TIP3    H231643   1.493   0.669  14.359 -0.5603  0.4175  1.1326
 3410TIP3   OH231644   6.251   6.259   0.313  0.2222  0.3713 -0.0534
 3410TIP3    H131645   6.335   6.257   0.268 -0.6346 -0.5464 -1.7002
 3410TIP3    H231646   6.234   6.352   0.330  2.6447  0.4688  2.5274
 3411TIP3   OH231647   5.675   5.227  11.224 -0.3355  0.4347  0.4800
 3411TIP3    H131648   5.759   5.271  11.218  0.3382 -0.4303  2.5853
 3411TIP3    H231649   5.665   5.181  11.141  1.7078 -0.1649  0.5124
 3412TIP3   OH231650   1.307   6.463   2.928 -0.3038 -0.5345  0.2301
 3412TIP3    H131651   1.286   6.424   2.842 -1.6222 -0.7916  0.6428
 3412TIP3    H231652   1.326   6.388   2.984  0.0241 -0.3985  0.3031
 3413TIP3   OH231653   0.739   0.948   2.072  0.1036 -0.1074 -0.4938
 3413TIP3    H131654   0.676   0.979   2.136  0.8927  0.8118 -0.1363
 3413TIP3    H231655   0.824   0.974   2.107  0.7844 -2.1368 -0.5065
 3414TIP3   OH231656   3.066   6.139  17.247  0.6738 -0.0173  0.0757
 3414TIP3    H131657   3.087   6.068  17.187  0.1046 -0.2426  0.1395
 3414TIP3    H231658   2.978   6.118  17.279  0.1622  1.1488 -0.5294
 3415TIP3   OH231659   3.850   4.029  15.008  0.3156 -0.5678 -0.2905
 3415TIP3    H131660   3.918   4.027  15.074 -0.8204 -2.0489  0.8957
 3415TIP3    H231661   3.783   4.087  15.044  0.4546  0.0382 -0.9734
 3416TIP3   OH231662   3.985   2.180  15.865 -0.0009  0.0046 -0.2110
 3416TIP3    H131663   3.894   2.169  15.836  0.0576 -0.7099 -0.1222
 3416TIP3    H231664   4.033   2.197  15.784 -0.0780 -0.4817 -0.3603
 3417TIP3   OH231665   0.964   1.486   3.496 -0.4093  0.0672  0.1287
 3417TIP3    H131666   0.973   1.544   3.572  0.9122 -1.2204  1.0033
 3417TIP3    H231667   1.046   1.494   3.448 -0.3993 -0.7011 -0.0034
 3418TIP3   OH231668   0.985   2.492   3.929 -1.0156  0.7031 -0.5040
 3418TIP3    H131669   0.967   2.412   3.881 -0.5859  1.2967 -1.7083
 3418TIP3    H231670   1.031   2.463   4.009 -1.5180 -0.2818 -0.5623
 3419TIP3   OH231671   1.945   1.688  16.720  0.3925  0.1400  0.1618
 3419TIP3    H131672   2.006   1.757  16.744  2.9792 -1.4606 -1.3327
 3419TIP3    H231673   1.954   1.623  16.789  2.2882 -1.1544 -1.2061
 3420TIP3   OH231674   5.786   6.130  14.989 -0.2460  0.2208 -0.7670
 3420TIP3    H131675   5.820   6.173  15.067 -0.8567  1.3231 -1.0948
 3420TIP3    H231676   5.749   6.200  14.936 -0.9432 -0.6534 -1.4872
 3421TIP3   OH231677   0.302   1.351  13.699 -0.6567 -0.2803  0.2024
 3421TIP3    H131678   0.289   1.397  13.616  2.5920 -0.3297 -0.4902
 3421TIP3    H231679   0.316   1.421  13.763 -1.2739 -0.2651  0.3245
 3422TIP3   OH231680   2.196   5.227   6.758  0.1228 -0.0801  0.2074
 3422TIP3    H131681   2.204   5.152   6.699  0.6317  0.7846 -0.8403
 3422TIP3    H231682   2.257   5.292   6.723 -2.0380  1.7642 -0.3502
 3423TIP3   OH231683   2.257   3.126   0.892  0.2910 -0.5065  0.9488
 3423TIP3    H131684   2.167   3.101   0.870 -0.0228  1.5061 -0.2839
 3423TIP3    H231685   2.296   3.152   0.809  1.4030  0.4591  1.7394
 3424TIP3   OH231686   4.074   2.039   6.574 -0.0512 -0.2872  0.1931
 3424TIP3    H131687   4.109   2.008   6.657 -0.2002  1.2416  0.8490
 3424TIP3    H231688   4.150   2.072   6.527  0.2483 -2.3243 -0.8725
 3425TIP3   OH231689   0.412   1.929   5.180 -0.1047  0.7625  0.2699
 3425TIP3    H131690   0.470   1.880   5.238 -0.5885 -1.4527 -0.9565
 3425TIP3    H231691   0.402   1.872   5.103 -1.6252  2.3454 -0.7974
 3426TIP3   OH231692   2.870   5.582  14.091  0.1707 -0.1177  0.2186
 3426TIP3    H131693   2.784   5.575  14.132 -0.0714 -0.6202 -0.3530
 3426TIP3    H231694   2.930   5.600  14.163 -0.0345 -2.3635  1.0247
 3427TIP3   OH231695   3.129   4.960   0.064 -0.1706  0.1586 -0.1198
 3427TIP3    H131696   3.044   5.002   0.048  0.0243  0.0529 -1.5217
 3427TIP3    H231697   3.165   4.946  -0.023 -0.0181 -2.5158  0.3108
 3428TIP3   OH231698   6.478   2.032  13.335 -0.3657 -0.6412  0.0468
 3428TIP3    H131699   6.450   2.095  13.269 -0.7638  0.1546  0.9510
 3428TIP3    H231700   6.569   2.013  13.314 -0.0806  0.6277  0.0486
 3429TIP3   OH231701   0.867   4.381  15.319 -0.2495  0.2165  0.0007
 3429TIP3    H131702   0.787   4.328  15.319 -0.5396  0.6297 -1.1446
 3429TIP3    H231703   0.847   4.455  15.261  1.4802 -0.5082 -1.6072
 3430TIP3   OH231704   4.626   1.342   1.529  0.1735  0.3052 -0.2821
 3430TIP3    H131705   4.646   1.250   1.549  1.9923  1.0822  1.7715
 3430TIP3    H231706   4.535   1.353   1.558 -0.1973 -0.8913 -0.8867
 3431TIP3   OH231707   2.857   2.023   1.101 -0.1077  0.4375 -0.4283
 3431TIP3    H131708   2.860   2.106   1.148  1.8136  0.4746 -0.5371
 3431TIP3    H231709   2.934   1.975   1.131 -0.4159 -0.7356 -1.3974
 3432TIP3   OH231710   6.487   6.616   1.742  0.3595 -0.5765  0.4341
 3432TIP3    H131711   6.542   6.664   1.678  0.5783  0.6663  1.5107
 3432TIP3    H231712   6.412   6.673   1.756  0.2676 -0.8806  1.2141
 3433TIP3   OH231713   6.117   1.411   6.725 -0.0992  0.0901  0.0273
 3433TIP3    H131714   6.070   1.328   6.719  0.4898 -0.1765 -1.1146
 3433TIP3    H231715   6.108   1.437   6.817 -0.8062 -0.9285  0.2608
 3434TIP3   OH231716   5.662   4.414   1.180  0.0441 -0.4966  0.2527
 3434TIP3    H131717   5.624   4.458   1.255 -0.3704 -0.0203 -0.2266
 3434TIP3    H231718   5.722   4.479   1.142  3.0096 -1.8952  2.1804
 3435TIP3   OH231719   6.186   2.007   1.500  0.3927 -0.2552 -0.4340
 3435TIP3    H131720   6.186   1.912   1.485  0.6528 -0.4086  0.5257
 3435TIP3    H231721   6.122   2.040   1.437 -0.5581 -1.1983  0.0061
 3436TIP3   OH231722   1.805   0.327  12.916  0.1962 -0.0389 -0.6948
 3436TIP3    H131723   1.744   0.353  12.846 -0.8423  0.3786  0.3308
 3436TIP3    H231724   1.779   0.238  12.938 -0.7028  0.4759  0.4006
 3437TIP3   OH231725   3.390   5.150   0.051  0.0450  0.5681  0.3001
 3437TIP3    H131726   3.308   5.163   0.003 -1.2332 -1.8010  1.6503
 3437TIP3    H231727   3.452   5.118  -0.015 -1.2667 -1.2711 -0.1102
 3438TIP3   OH231728   1.883   1.456   2.226 -0.6891  0.0708  0.4391
 3438TIP3    H131729   1.934   1.510   2.165  0.0737 -1.4066 -0.2828
 3438TIP3    H231730   1.905   1.366   2.202 -0.1406 -0.5767  3.1058
 3439TIP3   OH231731   1.159   0.671   3.332 -0.6139  0.1973 -0.3882
 3439TIP3    H131732   1.222   0.725   3.379 -0.9804  0.5818 -0.3257
 3439TIP3    H231733   1.185   0.581   3.350  0.6973  0.3445 -1.4176
 3440TIP3   OH231734   0.195   5.197  14.505 -0.1427 -0.4485 -0.0728
 3440TIP3    H131735   0.122   5.177  14.446  0.6637  0.7992 -1.5704
 3440TIP3    H231736   0.173   5.283  14.541  0.2372 -0.4087  0.0651
 3441TIP3   OH231737   2.762   3.561   5.721  0.2919 -0.3963  0.0629
 3441TIP3    H131738   2.753   3.503   5.646 -2.9199 -1.6295  1.2132
 3441TIP3    H231739   2.684   3.617   5.718  1.8091  1.8869  0.6651
 3442TIP3   OH231740   2.267   3.700  11.090  0.8993 -0.5738  0.6148
 3442TIP3    H131741   2.208   3.734  11.023 -1.3458 -0.0064  2.7324
 3442TIP3    H231742   2.258   3.604  11.084  0.6558 -0.5256  0.1859
 3443TIP3   OH231743   5.000   5.434  12.501 -0.2305 -0.4544  0.4347
 3443TIP3    H131744   5.006   5.380  12.422  0.5773  2.7379 -1.8928
 3443TIP3    H231745   4.910   5.466  12.501 -0.3335 -0.7360  1.0424
 3444TIP3   OH231746   1.319   2.037   3.226 -0.1835  0.3131  0.3712
 3444TIP3    H131747   1.334   2.132   3.229  2.4917 -0.0502  1.0832
 3444TIP3    H231748   1.243   2.022   3.281 -0.5080  2.0227  0.4285
 3445TIP3   OH231749   2.786   4.575  11.922  0.2960 -0.0962 -0.2945
 3445TIP3    H131750   2.701   4.531  11.927 -0.0189  0.4972 -0.3006
 3445TIP3    H231751   2.789   4.613  11.834  1.1186 -1.1845 -0.7544
 3446TIP3   OH231752   4.600   5.576   1.520 -0.0951 -0.3431 -0.1626
 3446TIP3    H131753   4.643   5.532   1.594  1.2204  0.2907 -0.5128
 3446TIP3    H231754   4.553   5.506   1.474 -0.0689 -0.9281  0.6794
 3447TIP3   OH231755   6.062   5.009   4.974 -0.0673  0.0862 -0.5567
 3447TIP3    H131756   6.113   5.088   4.995  1.9763 -0.6442 -2.3533
 3447TIP3    H231757   6.128   4.940   4.964 -1.5599 -1.2588 -1.6177
 3448TIP3   OH231758   5.766   2.610   4.050  0.1563 -0.1853 -0.2969
 3448TIP3    H131759   5.692   2.634   3.994 -1.6315  0.1322  2.0828
 3448TIP3    H231760   5.831   2.679   4.034  0.1027 -0.5717 -2.5608
 3449TIP3   OH231761   0.483   2.187   5.878  0.0954 -0.1967  0.1013
 3449TIP3    H131762   0.538   2.123   5.922  0.5894  0.1850  0.0545
 3449TIP3    H231763   0.541   2.262   5.862 -0.7823  0.8009  1.3489
 3450TIP3   OH231764   6.270   0.090   4.275 -0.6201  0.1253  0.0677
 3450TIP3    H131765   6.345   0.038   4.303 -0.4892  1.2434  1.9528
 3450TIP3    H231766   6.261   0.071   4.182  1.8790 -0.1864 -0.1685
 3451TIP3   OH231767   4.938   4.452  12.372 -0.7145  0.1163  0.1047
 3451TIP3    H131768   4.911   4.444  12.280  2.7761 -0.1500 -1.0638
 3451TIP3    H231769   4.980   4.538  12.376 -0.8640  0.1410  1.5142
 3452TIP3   OH231770   4.765   1.755  14.357 -0.6003  0.3431 -0.2971
 3452TIP3    H131771   4.683   1.705  14.351 -2.2612  2.8729 -0.5595
 3452TIP3    H231772   4.772   1.800  14.273  0.7404  0.6569 -0.0420
 3453TIP3   OH231773   0.906   0.117   1.442 -0.6353  0.4175  0.0493
 3453TIP3    H131774   0.964   0.084   1.374  0.4021 -0.4115  1.2936
 3453TIP3    H231775   0.895   0.210   1.422  3.9938  1.5448  1.6371
 3454TIP3   OH231776   1.462   0.573   1.348  0.1047  0.0712 -0.2499
 3454TIP3    H131777   1.426   0.562   1.436  1.6094 -0.7088  0.2976
 3454TIP3    H231778   1.434   0.494   1.301  0.1529 -0.0043 -0.1539
 3455TIP3   OH231779   0.119   5.815  12.877 -0.1712  0.5902  0.2373
 3455TIP3    H131780   0.139   5.892  12.931  0.0476 -0.2916  1.4620
 3455TIP3    H231781   0.094   5.851  12.792 -1.3385  2.0711  1.1599
 3456TIP3   OH231782   2.608   5.223   2.735  0.1637  0.7229  0.1547
 3456TIP3    H131783   2.620   5.133   2.763  1.8257  0.7258 -0.4205
 3456TIP3    H231784   2.519   5.225   2.699 -0.3551 -0.3513  1.2808
 3457TIP3   OH231785   5.419   0.637   6.412 -0.2364 -0.2803  0.5200
 3457TIP3    H131786   5.365   0.709   6.444  0.4984  0.1538  0.8255
 3457TIP3    H231787   5.506   0.676   6.400 -0.5053 -0.3520 -2.2246
 3458TIP3   OH231788   0.124   0.846   0.711 -0.0312 -0.3099  0.9276
 3458TIP3    H131789   0.064   0.805   0.649  1.5221 -2.6996  0.8735
 3458TIP3    H231790   0.117   0.940   0.692 -1.9267 -0.6993 -0.6705
 3459TIP3   OH231791   5.728   4.709   2.224  0.0858  0.1801 -0.0883
 3459TIP3    H131792   5.750   4.789   2.177  0.0144  0.5643  0.5278
 3459TIP3    H231793   5.638   4.690   2.200  0.1151  0.2622 -0.2617
 3460TIP3   OH231794   6.698   2.055  16.817 -0.4268  0.1214  0.4281
 3460TIP3    H131795   6.661   2.111  16.885  0.8191 -1.1216  2.2402
 3460TIP3    H231796   6.743   2.115  16.758  3.3649  1.0594  3.8488
 3461TIP3   OH231797   1.525   3.416   2.853 -0.1176 -0.2715  0.4336
 3461TIP3    H131798   1.580   3.395   2.929 -1.3172  0.6479  1.6014
 3461TIP3    H231799   1.525   3.335   2.801  2.3768 -0.2742  0.3205
 3462TIP3   OH231800   5.268   4.278   4.736 -0.0805  0.3164 -0.0730
 3462TIP3    H131801   5.264   4.183   4.738  1.7948  0.1941  1.5230
 3462TIP3    H231802   5.222   4.305   4.816 -1.6216  0.8578 -1.0981
 3463TIP3   OH231803   0.471   3.969  12.750  0.0732  0.0632 -0.5095
 3463TIP3    H131804   0.464   3.923  12.835  2.0262  0.3522 -0.1457
 3463TIP3    H231805   0.384   3.959  12.711 -0.7547 -0.4676  1.3272
 3464TIP3   OH231806   0.371   1.215  11.408 -0.1153 -0.9815 -0.0165
 3464TIP3    H131807   0.325   1.194  11.327 -0.3917  0.2062 -0.1821
 3464TIP3    H231808   0.450   1.160  11.406  1.6951  1.4206 -2.7935
 3465TIP3   OH231809   2.238   3.582   4.965  0.1051 -0.0363 -0.6273
 3465TIP3    H131810   2.187   3.578   4.885 -0.9976  1.6137 -0.0543
 3465TIP3    H231811   2.323   3.545   4.942 -1.2234 -2.6298 -1.6731
 3466TIP3   OH231812   0.524   6.367  14.424  0.2726 -0.7330  0.1585
 3466TIP3    H131813   0.433   6.377  14.399 -0.0922 -2.0955  0.8504
 3466TIP3    H231814   0.558   6.299  14.365  0.9044 -0.1159 -0.2130
 3467TIP3   OH231815   6.072   1.228  13.629 -0.6957  0.3726 -0.1631
 3467TIP3    H131816   6.076   1.317  13.594 -2.1294  0.1411 -0.9670
 3467TIP3    H231817   6.083   1.171  13.553  0.8149 -0.1762  0.4238
 3468TIP3   OH231818   3.243   3.223   6.112 -0.3303 -0.5148 -0.2303
 3468TIP3    H131819   3.151   3.220   6.139 -0.4738 -1.1141 -0.7613
 3468TIP3    H231820   3.260   3.135   6.077  0.1809 -0.1244 -0.9725
 3469TIP3   OH231821   3.780   1.875   0.510  0.1041 -0.6179 -0.2509
 3469TIP3    H131822   3.804   1.906   0.598  1.1221 -0.1723 -0.6646
 3469TIP3    H231823   3.756   1.783   0.523 -0.5012 -0.3548  0.6056
 3470TIP3   OH231824   3.677   0.708   3.607 -0.0707  0.0023 -0.3354
 3470TIP3    H131825   3.590   0.680   3.633  0.5305 -1.0964  0.6099
 3470TIP3    H231826   3.699   0.652   3.532  0.0057 -0.0670 -0.2623
 3471TIP3   OH231827   5.499   2.291  13.083  0.2391 -0.2543  0.4648
 3471TIP3    H131828   5.437   2.220  13.069  0.8413 -0.8601  0.8605
 3471TIP3    H231829   5.531   2.312  12.995  0.5014 -0.8732  0.4112
 3472TIP3   OH231830   5.366   4.998  11.874 -0.7371  0.2113  0.5087
 3472TIP3    H131831   5.363   5.011  11.779 -0.5677 -0.3646  0.4201
 3472TIP3    H231832   5.386   4.905  11.885  0.5804  0.5281  1.1014
 3473TIP3   OH231833   3.407   3.253   4.835  0.4132 -0.4419 -0.2565
 3473TIP3    H131834   3.374   3.337   4.865  1.2022 -0.0412 -0.4943
 3473TIP3    H231835   3.402   3.258   4.739  1.2126 -0.3409 -0.3035
 3474TIP3   OH231836   6.228   4.011  11.985  0.1590  0.4575 -0.5687
 3474TIP3    H131837   6.236   3.916  11.993 -1.1814  0.3915  0.1884
 3474TIP3    H231838   6.312   4.044  12.017  1.5573 -0.5129 -2.9624
 3475TIP3   OH231839   2.947   1.997   3.486  0.4084  0.0187  0.4880
 3475TIP3    H131840   3.025   1.945   3.467 -0.0526 -0.4974  0.0007
 3475TIP3    H231841   2.874   1.937   3.475  0.0018  0.1190  2.3214
 3476TIP3   OH231842   4.836   3.755  15.164  0.3685  0.7167  0.2621
 3476TIP3    H131843   4.750   3.736  15.201  0.7355  0.5673  1.0506
 3476TIP3    H231844   4.885   3.674  15.173  0.6800  0.8822  0.0665
 3477TIP3   OH231845   2.530   3.388  13.903  0.0234  0.2124  0.3974
 3477TIP3    H131846   2.521   3.316  13.840 -0.4810  1.5482 -1.1165
 3477TIP3    H231847   2.614   3.428  13.882  0.6546 -0.3755  1.7357
 3478TIP3   OH231848   6.135   4.681   4.279 -0.3950 -0.7023 -0.2007
 3478TIP3    H131849   6.159   4.623   4.351  0.0483 -1.4969 -0.9719
 3478TIP3    H231850   6.218   4.710   4.242 -0.5752  1.3774  0.8798
 3479TIP3   OH231851   1.512   0.321  12.893 -0.2425 -0.1820 -0.3667
 3479TIP3    H131852   1.563   0.383  12.944 -1.0426  0.0594  0.1667
 3479TIP3    H231853   1.534   0.340  12.802 -1.1272  1.5004 -0.2675
 3480TIP3   OH231854   5.675   4.934   3.630  0.1123 -0.1367 -0.2422
 3480TIP3    H131855   5.721   4.860   3.589  0.2810  0.0832 -0.4496
 3480TIP3    H231856   5.599   4.894   3.672 -0.4809 -0.2589 -1.4081
 3481TIP3   OH231857   3.659   3.989  17.163  0.0631  0.3593 -0.0247
 3481TIP3    H131858   3.584   4.040  17.134 -0.3297  0.8139  1.6591
 3481TIP3    H231859   3.733   4.024  17.115 -0.5091  1.2249 -0.2927
 3482TIP3   OH231860   4.664   5.846  16.928  0.5349  0.1970 -0.2819
 3482TIP3    H131861   4.676   5.783  17.000  1.1826  0.1942 -0.3897
 3482TIP3    H231862   4.570   5.841  16.908  0.3804  0.0511  0.4297
 3483TIP3   OH231863   2.598   4.090  14.810 -0.1853  0.4057  0.1495
 3483TIP3    H131864   2.684   4.123  14.783 -0.3985 -0.6222 -1.9846
 3483TIP3    H231865   2.536   4.146  14.765 -0.5534 -1.6826 -2.1827
 3484TIP3   OH231866   2.820   0.915   2.878  0.2510 -0.6255  0.3376
 3484TIP3    H131867   2.905   0.941   2.912 -1.0767  3.3412  1.1403
 3484TIP3    H231868   2.759   0.935   2.949 -1.5337 -2.3832 -0.5888
 3485TIP3   OH231869   5.931   1.746   6.191 -0.0000  0.3311  1.2838
 3485TIP3    H131870   5.952   1.828   6.236 -1.2143  1.0404  0.6178
 3485TIP3    H231871   5.839   1.757   6.164  0.5927 -0.1143 -1.1744
 3486TIP3   OH231872   4.714   6.189   3.995 -0.0847  0.2270  0.2235
 3486TIP3    H131873   4.704   6.264   4.054 -2.2477 -0.6752  1.1354
 3486TIP3    H231874   4.624   6.159   3.980  0.7186 -3.1055  1.1628
 3487TIP3   OH231875   2.462   4.386   2.429 -0.0158 -0.8230 -0.0154
 3487TIP3    H131876   2.455   4.422   2.517  0.3423 -0.4708 -0.1271
 3487TIP3    H231877   2.552   4.406   2.402 -0.4800  0.1631 -0.9161
 3488TIP3   OH231878   1.245   1.473   1.694  0.3588  0.4246  0.4720
 3488TIP3    H131879   1.293   1.538   1.642  0.0208  1.3762  1.3287
 3488TIP3    H231880   1.299   1.458   1.771  1.8594 -2.4857 -0.9732
 3489TIP3   OH231881   4.615   4.474   5.337 -0.0118  0.5635 -0.0321
 3489TIP3    H131882   4.573   4.399   5.294 -0.2639  1.0644 -0.6882
 3489TIP3    H231883   4.542   4.523   5.376  0.1846  0.2955  0.6872
 3490TIP3   OH231884   0.965   5.996  15.927 -0.5828 -0.1829  0.6084
 3490TIP3    H131885   1.028   6.025  15.861 -1.2715  0.5753  0.2818
 3490TIP3    H231886   1.015   5.994  16.008 -0.3166  1.1470  0.4901
 3491TIP3   OH231887   2.123   1.900  16.617 -0.5483  0.2297  0.1396
 3491TIP3    H131888   2.151   1.863  16.533  0.3096 -2.3809  1.4739
 3491TIP3    H231889   2.037   1.939  16.598 -0.1011  0.2579 -2.0535
 3492TIP3   OH231890   6.746   1.180   4.638 -0.1508 -0.1358 -0.1152
 3492TIP3    H131891   6.798   1.112   4.682 -1.2050 -1.1859 -0.4455
 3492TIP3    H231892   6.730   1.145   4.551  0.0990  0.9889 -0.6355
 3493TIP3   OH231893   0.852   4.379   4.325  0.3534  0.2617  0.0062
 3493TIP3    H131894   0.793   4.304   4.327 -0.0343  0.5776  0.8108
 3493TIP3    H231895   0.869   4.399   4.417 -1.1661  2.4081 -0.0873
 3494TIP3   OH231896   2.965   5.065  11.820  0.0023 -0.4696  0.4322
 3494TIP3    H131897   2.903   5.122  11.774 -0.6164 -1.3203  0.1985
 3494TIP3    H231898   3.016   5.125  11.875 -0.5228  0.3310  0.0647
 3495TIP3   OH231899   4.777   3.034   0.411 -0.0429 -0.2181  0.8276
 3495TIP3    H131900   4.792   2.985   0.330 -1.6447 -1.2593  1.1350
 3495TIP3    H231901   4.844   3.103   0.409  0.1845 -0.4305 -1.1979
 3496TIP3   OH231902   0.434   3.679  11.725 -0.0964  0.1054  0.6698
 3496TIP3    H131903   0.466   3.759  11.766 -1.6987  1.7717 -1.1000
 3496TIP3    H231904   0.396   3.708  11.642 -3.8182 -1.9452  1.3999
 3497TIP3   OH231905   0.431   2.121   1.069 -0.2327 -0.6073  0.5460
 3497TIP3    H131906   0.450   2.161   1.154 -0.1592 -1.8371  1.1246
 3497TIP3    H231907   0.492   2.164   1.009  0.4684 -0.4855  1.3190
 3498TIP3   OH231908   2.724   5.684   5.723 -0.4619 -0.5941 -0.5020
 3498TIP3    H131909   2.645   5.637   5.748  0.4801 -1.0681  1.8536
 3498TIP3    H231910   2.697   5.776   5.715 -1.3618 -0.8434 -0.3705
 3499TIP3   OH231911   0.357   2.139  15.344 -0.3664 -0.0490  0.1766
 3499TIP3    H131912   0.388   2.115  15.256  0.8497  0.7738  0.3523
 3499TIP3    H231913   0.423   2.100  15.403 -0.5587  0.3585  0.6605
 3500TIP3   OH231914   2.997   1.571  14.822  0.4868  0.9095  0.3725
 3500TIP3    H131915   2.975   1.500  14.763  0.4671  0.6361  0.7081
 3500TIP3    H231916   2.914   1.598  14.860  0.4724  1.2186  0.1333
 3501TIP3   OH231917   4.372   5.860  15.467 -0.0575 -0.5741 -0.1898
 3501TIP3    H131918   4.282   5.877  15.441 -0.5993 -1.4234  1.0482
 3501TIP3    H231919   4.393   5.928  15.531  0.5218  0.1817 -1.1477
 3502TIP3   OH231920   3.059   5.463  16.105 -0.0095  0.0010 -0.4106
 3502TIP3    H131921   3.091   5.458  16.016  0.1729  2.5181 -0.5618
 3502TIP3    H231922   3.137   5.461  16.160  0.1572  1.8048 -0.5354
 3503TIP3   OH231923   2.129   4.892   1.110 -0.2176  0.4980  0.2321
 3503TIP3    H131924   2.191   4.881   1.182 -1.1317  2.0588  1.2976
 3503TIP3    H231925   2.153   4.976   1.071 -1.1779  0.7424  0.1573
 3504TIP3   OH231926   6.099   2.121   1.142  0.0070  0.2159  0.1946
 3504TIP3    H131927   6.093   2.214   1.119 -1.2680  0.0182 -0.3914
 3504TIP3    H231928   6.192   2.100   1.135  0.8816  2.2507  3.7249
 3505TIP3   OH231929   6.122   1.313   3.811 -0.4617 -0.1539 -0.2262
 3505TIP3    H131930   6.127   1.408   3.823  0.0438 -0.1577 -0.3845
 3505TIP3    H231931   6.080   1.281   3.891 -0.6471  0.2021 -0.1802
 3506TIP3   OH231932   4.757   5.724   4.400  0.1259  0.0207 -0.1337
 3506TIP3    H131933   4.808   5.744   4.478  0.7707  1.4429 -0.8824
 3506TIP3    H231934   4.812   5.663   4.351  0.7860  0.9142 -0.5447
 3507TIP3   OH231935   3.228   4.333   5.736 -0.0697 -0.0887 -0.0407
 3507TIP3    H131936   3.154   4.328   5.675  0.2557  1.3982 -0.6128
 3507TIP3    H231937   3.245   4.243   5.761 -1.7873 -0.5100 -0.2520
 3508TIP3   OH231938   2.005   5.885   4.388  0.6757 -0.1468  0.1218
 3508TIP3    H131939   1.947   5.880   4.312 -0.6858 -2.5526  1.1848
 3508TIP3    H231940   1.962   5.948   4.447  0.6693  0.2162 -0.2673
 3509TIP3   OH231941   4.188   2.284  12.010  0.4329  1.0805 -0.4412
 3509TIP3    H131942   4.233   2.256  12.089 -0.2413  1.7038  0.1808
 3509TIP3    H231943   4.178   2.379  12.019 -0.2200  1.0749 -0.9578
 3510TIP3   OH231944   2.384   6.472  14.345 -0.3665  0.2725  0.0616
 3510TIP3    H131945   2.401   6.445  14.435 -3.9030  1.4090  1.2106
 3510TIP3    H231946   2.430   6.555  14.336 -0.1412  0.2472  0.8830
 3511TIP3   OH231947   4.429   1.271  16.456 -0.3811 -0.1643 -0.8214
 3511TIP3    H131948   4.377   1.193  16.439  0.4362 -1.0030  0.3181
 3511TIP3    H231949   4.479   1.285  16.376 -0.6737 -0.7177 -1.1048
 3512TIP3   OH231950   6.603   4.839  13.737 -0.6645  0.1180 -0.1686
 3512TIP3    H131951   6.599   4.746  13.716  1.8182  0.0876 -0.8360
 3512TIP3    H231952   6.615   4.883  13.653  0.7633  0.7703  0.3344
 3513TIP3   OH231953   3.947   1.031  12.660  0.3092 -0.1610 -0.1708
 3513TIP3    H131954   3.952   0.936  12.667  1.0751 -0.1225 -0.2006
 3513TIP3    H231955   4.037   1.062  12.672 -0.1296  0.6536  1.3260
 3514TIP3   OH231956   4.523   6.157   4.365 -0.5687 -0.3627 -0.2139
 3514TIP3    H131957   4.566   6.243   4.366 -0.4139 -0.4075 -1.5122
 3514TIP3    H231958   4.594   6.094   4.371 -0.6057 -0.4204 -0.3982
 3515TIP3   OH231959   2.440   0.515  14.980 -0.4843  0.3585 -0.0228
 3515TIP3    H131960   2.356   0.502  14.936 -0.5043  0.1677  0.0710
 3515TIP3    H231961   2.475   0.427  14.993  0.9996  0.4793 -2.4797
 3516TIP3   OH231962   6.177   2.480   4.114  0.4675 -0.2426  0.3475
 3516TIP3    H131963   6.121   2.537   4.167  0.1357  1.4708 -1.6792
 3516TIP3    H231964   6.117   2.441   4.050  0.6883 -3.0088  1.7082
 3517TIP3   OH231965   2.684   4.064   6.358  0.1081  0.3782 -0.4796
 3517TIP3    H131966   2.682   4.102   6.446  0.2945 -0.5693 -0.0576
 3517TIP3    H231967   2.770   4.087   6.324  0.4892 -0.2196  0.0393
 3518TIP3   OH231968   4.708   4.801  17.232 -0.2359 -0.5819 -0.0021
 3518TIP3    H131969   4.675   4.863  17.297  0.2489 -0.3603  0.0388
 3518TIP3    H231970   4.726   4.854  17.155 -1.2750 -0.9190 -0.5033
 3519TIP3   OH231971   5.518   3.291  13.426  0.1019  0.5341  0.1248
 3519TIP3    H131972   5.586   3.227  13.403  1.2282  1.6949  0.1109
 3519TIP3    H231973   5.483   3.320  13.342  1.1509  1.5433  0.0100
 3520TIP3   OH231974   4.456   6.302  16.046 -0.3918 -0.0958  0.2502
 3520TIP3    H131975   4.487   6.329  15.959 -0.4495  0.4357  0.3896
 3520TIP3    H231976   4.460   6.382  16.098  0.1656 -0.5359  0.8922
 3521TIP3   OH231977   2.774   4.553  15.756  0.3445 -0.3882 -0.1846
 3521TIP3    H131978   2.680   4.545  15.774  0.6292  1.4410  2.7851
 3521TIP3    H231979   2.812   4.471  15.787 -0.1860 -0.9567 -0.9976
 3522TIP3   OH231980   5.752   2.087   0.729 -0.3197  0.7031  0.4612
 3522TIP3    H131981   5.812   2.068   0.801 -0.6642 -0.9280  0.3540
 3522TIP3    H231982   5.673   2.038   0.749 -0.5800  0.5636 -0.7862
 3523TIP3   OH231983   2.785   0.660  16.600 -0.2796 -0.3527  0.4187
 3523TIP3    H131984   2.847   0.687  16.532  1.1027 -1.2523  1.2793
 3523TIP3    H231985   2.779   0.736  16.658 -1.8222  0.5992 -0.8730
 3524TIP3   OH231986   5.980   1.646   3.030  0.0939  0.1798  0.0818
 3524TIP3    H131987   5.951   1.657   2.939  0.0521  1.7049  0.2400
 3524TIP3    H231988   5.901   1.660   3.082  0.3877  0.7645  0.3872
 3525TIP3   OH231989   3.093   0.878   5.777  0.1863 -0.8136 -0.3120
 3525TIP3    H131990   3.149   0.863   5.701  1.0094  1.1887 -0.1725
 3525TIP3    H231991   3.007   0.899   5.740  0.6131  0.2627 -0.7245
 3526TIP3   OH231992   4.756   5.457   1.741 -0.2659 -0.1970 -0.6288
 3526TIP3    H131993   4.833   5.514   1.737 -0.1581 -0.3746 -1.1452
 3526TIP3    H231994   4.717   5.476   1.826  0.4032 -0.1728 -0.3251
 3527TIP3   OH231995   5.137   4.518   6.098 -0.0231  0.1719 -0.2077
 3527TIP3    H131996   5.184   4.574   6.160  2.3181  1.8159 -3.1768
 3527TIP3    H231997   5.060   4.569   6.073  1.0774  1.3113 -1.4376
 3528TIP3   OH231998   0.630   3.488   4.227  0.2912  0.2856  0.0278
 3528TIP3    H131999   0.592   3.475   4.140 -1.6900  2.0911  0.5478
 3528TIP3    H232000   0.605   3.409   4.276  0.8774 -0.4516 -0.8272
 3529TIP3   OH232001   4.893   0.392   4.494 -0.2263  0.6695  0.8062
 3529TIP3    H132002   4.855   0.467   4.448 -1.0306  0.2467  0.7482
 3529TIP3    H232003   4.911   0.423   4.582 -0.3312  1.0005  0.7110
 3530TIP3   OH232004   5.123   1.205  13.940 -0.1111 -0.3308 -0.1098
 3530TIP3    H132005   5.129   1.218  14.034  0.6276  0.2687 -0.2327
 3530TIP3    H232006   5.213   1.197  13.910 -0.3479 -0.8169 -0.7317
 3531TIP3   OH232007   5.125   1.390   3.561 -1.0756  0.0547 -0.0818
 3531TIP3    H132008   5.135   1.294   3.557  0.1397  0.1356  0.7564
 3531TIP3    H232009   5.150   1.420   3.474  0.7477 -0.2288  0.3119
 3532TIP3   OH232010   1.449   6.252  14.929  0.2914  0.4659  0.0546
 3532TIP3    H132011   1.495   6.280  15.009  0.3045 -0.6609  0.4670
 3532TIP3    H232012   1.401   6.174  14.956  0.9088 -0.3872 -1.2214
 3533TIP3   OH232013   2.589   2.754   2.393 -0.0067  0.0291  0.0803
 3533TIP3    H132014   2.577   2.721   2.304  0.7987  0.9557 -0.3955
 3533TIP3    H232015   2.680   2.734   2.414 -0.1399 -0.0218  0.6388
 3534TIP3   OH232016   3.651   2.124  13.131  0.0240 -0.1781  0.3229
 3534TIP3    H132017   3.564   2.086  13.120 -0.0680  0.1612 -0.1288
 3534TIP3    H232018   3.696   2.103  13.049  0.2753 -0.1078  0.4437
 3535TIP3   OH232019   0.485   0.087  16.815  0.2525  0.0193 -0.2834
 3535TIP3    H132020   0.416   0.030  16.847  0.1940  0.4054  0.3080
 3535TIP3    H232021   0.555   0.078  16.880  0.4867  0.1447 -0.5166
 3536TIP3   OH232022   5.310   6.639  11.063 -0.0547  0.1343 -0.5978
 3536TIP3    H132023   5.289   6.548  11.083  0.0154  0.3622  0.6323
 3536TIP3    H232024   5.388   6.634  11.008 -0.5987 -0.5630 -1.3321
 3537TIP3   OH232025   5.461   1.040   5.400  0.5577 -0.2725  0.1302
 3537TIP3    H132026   5.506   0.960   5.371  1.0329 -0.3186  0.9561
 3537TIP3    H232027   5.371   1.012   5.416  0.2881 -0.2525 -1.2261
 3538TIP3   OH232028   3.662   0.511   5.514  0.4854  0.1167  0.1410
 3538TIP3    H132029   3.740   0.548   5.474  0.3569  0.5922  0.3200
 3538TIP3    H232030   3.597   0.582   5.510  0.2620 -0.0578  0.5721
 3539TIP3   OH232031   5.290   1.134  12.763  0.0443 -0.2020  0.2648
 3539TIP3    H132032   5.246   1.208  12.722 -0.7960 -1.6757 -1.6677
 3539TIP3    H232033   5.382   1.161  12.769 -0.4846  1.6009  1.2219
 3540TIP3   OH232034   5.227   4.358  10.944  0.2491  0.1531 -0.0568
 3540TIP3    H132035   5.263   4.367  11.032 -0.2270  1.4194  0.0411
 3540TIP3    H232036   5.213   4.448  10.915 -1.0989 -0.2625 -0.7970
 3541TIP3   OH232037   0.815   3.830   0.735  0.4504  0.0101  0.3060
 3541TIP3    H132038   0.890   3.863   0.784  1.2766 -0.6269 -0.4871
 3541TIP3    H232039   0.746   3.894   0.751  1.5460  1.3160  0.0292
 3542TIP3   OH232040   6.070   6.683  15.161 -0.5411  0.1152 -0.2051
 3542TIP3    H132041   6.092   6.773  15.139 -0.9291  0.0406 -0.9423
 3542TIP3    H232042   6.056   6.684  15.256 -1.9790  1.1518 -0.3874
 3543TIP3   OH232043   5.196   1.026   5.562  0.0857  0.4034  0.5696
 3543TIP3    H132044   5.257   1.086   5.604 -0.4024  0.5413  1.0913
 3543TIP3    H232045   5.110   1.064   5.578 -0.1849 -0.1345  0.4071
 3544TIP3   OH232046   0.794   0.425  10.783 -0.3916 -0.5187  1.1207
 3544TIP3    H132047   0.883   0.404  10.812  0.3920  1.7935  0.5948
 3544TIP3    H232048   0.765   0.494  10.843 -0.6666  0.7986 -0.4548
 3545TIP3   OH232049   5.025   2.237  15.713 -0.3820 -0.1215  0.0928
 3545TIP3    H132050   5.108   2.249  15.667 -0.8041 -1.1361 -1.0077
 3545TIP3    H232051   4.963   2.214  15.643 -1.3662 -0.3004  1.0082
 3546TIP3   OH232052   6.411   1.646  14.593  0.0897 -0.0350 -0.0785
 3546TIP3    H132053   6.337   1.705  14.579  0.6107  1.3878  2.5502
 3546TIP3    H232054   6.371   1.569  14.635 -0.4965 -1.4150 -2.9522
 3547TIP3   OH232055   0.903   4.681  12.307 -0.2520 -0.1130  0.2613
 3547TIP3    H132056   0.951   4.659  12.227  0.2921 -0.4895  0.6850
 3547TIP3    H232057   0.885   4.597  12.349 -0.1074  0.1060  0.7764
 3548TIP3   OH232058   0.092   1.704   2.944 -0.3352 -1.0381  0.2390
 3548TIP3    H132059   0.185   1.726   2.954 -0.6543  1.2588 -1.0722
 3548TIP3    H232060   0.062   1.682   3.032  0.9155  0.5509  1.1055
 3549TIP3   OH232061   4.836   0.788  14.948 -0.4850 -0.0360 -0.7407
 3549TIP3    H132062   4.923   0.801  14.985 -0.9912 -1.7927  1.2904
 3549TIP3    H232063   4.853   0.752  14.861  0.8175 -0.2526 -0.4239
 3550TIP3   OH232064   5.900   4.326  13.052 -0.0623 -0.0357 -0.3023
 3550TIP3    H132065   5.990   4.357  13.053  0.6229 -1.8922  0.5820
 3550TIP3    H232066   5.899   4.252  13.112 -2.2876  0.1714  0.0190
 3551TIP3   OH232067   3.862   3.332   4.069 -0.3116  0.4426  0.1142
 3551TIP3    H132068   3.910   3.407   4.033  0.7642 -0.2663  0.0334
 3551TIP3    H232069   3.923   3.291   4.130 -1.2231  0.1601  0.8613
 3552TIP3   OH232070   4.401   1.286  17.266  0.1749  0.1705 -0.3495
 3552TIP3    H132071   4.467   1.218  17.277  1.1153  1.3960  2.1737
 3552TIP3    H232072   4.322   1.250  17.307  0.2189  0.0017 -0.4126
 3553TIP3   OH232073   3.963   3.884   1.013  0.0141 -0.4536  0.0333
 3553TIP3    H132074   3.940   3.793   1.029  0.2514 -0.9174 -1.9448
 3553TIP3    H232075   3.887   3.920   0.967  0.2845  0.0991  0.0125
 3554TIP3   OH232076   6.461   2.520  17.326  0.1062 -0.2117  0.5741
 3554TIP3    H132077   6.434   2.429  17.319  1.8188 -0.6725 -1.2754
 3554TIP3    H232078   6.547   2.522  17.283 -0.0451  2.3318  0.2541
 3555TIP3   OH232079   2.529   5.503  16.292  0.1126 -0.1600  0.2569
 3555TIP3    H132080   2.461   5.567  16.313  1.4933  1.3480  0.3291
 3555TIP3    H232081   2.482   5.420  16.282 -1.6159  0.6689  1.1051
 3556TIP3   OH232082   2.982   6.459   2.745 -0.2821  0.7727  0.2758
 3556TIP3    H132083   2.956   6.368   2.736  0.7396 -0.0292  3.8756
 3556TIP3    H232084   2.902   6.509   2.726 -0.6557 -0.6894 -2.5387
 3557TIP3   OH232085   4.782   6.741  15.770  0.5284 -0.4281 -0.5686
 3557TIP3    H132086   4.820   6.692  15.696 -0.6955 -2.4844  0.0741
 3557TIP3    H232087   4.767   6.674  15.837  1.7464  1.4110  1.6500
 3558TIP3   OH232088   6.270   5.050   2.640 -0.0410 -0.0687  0.5911
 3558TIP3    H132089   6.290   4.998   2.562  1.2980 -0.6791  1.2994
 3558TIP3    H232090   6.204   4.999   2.686  1.2012 -1.1811  1.2368
 3559TIP3   OH232091   1.514   6.450  14.697  0.0646  0.1310 -0.3586
 3559TIP3    H132092   1.490   6.383  14.761  1.0448  0.2116  0.1077
 3559TIP3    H232093   1.477   6.417  14.614 -0.3288 -0.4775  0.0467
 3560TIP3   OH232094   6.057   3.556  16.957 -0.2013 -0.2402 -0.2468
 3560TIP3    H132095   6.047   3.651  16.959 -1.4982 -0.3686  0.1675
 3560TIP3    H232096   6.138   3.540  17.005  0.2927  0.6768 -0.7399
 3561TIP3   OH232097   0.086   5.312  16.972 -0.1376  0.2451 -0.0639
 3561TIP3    H132098   0.003   5.350  16.998 -0.3064 -1.1441  1.6463
 3561TIP3    H232099   0.067   5.266  16.890 -0.7953  0.7850 -0.2225
 3562TIP3   OH232100   5.039   1.065   4.942  0.3074  0.3913 -0.0044
 3562TIP3    H132101   4.961   1.023   4.979  0.2440  0.8099  0.3395
 3562TIP3    H232102   5.112   1.028   4.991  0.1887  1.2897  0.8689
 3563TIP3   OH232103   2.710   5.762  14.530 -0.2277 -0.2514 -0.3884
 3563TIP3    H132104   2.752   5.781  14.446  0.7684  0.8612  0.3333
 3563TIP3    H232105   2.658   5.684  14.513  2.5124 -2.0373 -1.2107
 3564TIP3   OH232106   4.627   2.431  13.699  0.0543 -0.1896  0.4371
 3564TIP3    H132107   4.668   2.425  13.613  0.8186  0.1319  0.7800
 3564TIP3    H232108   4.698   2.449  13.759 -0.4777 -0.3989  1.1455
 3565TIP3   OH232109   5.271   6.591   4.220  0.9312 -0.0449 -0.0416
 3565TIP3    H132110   5.229   6.593   4.134 -0.1659  0.5854  0.4838
 3565TIP3    H232111   5.356   6.634   4.207  0.0818  1.5677 -0.4678
 3566TIP3   OH232112   1.806   2.634  12.507 -0.4189  0.2029 -0.4165
 3566TIP3    H132113   1.853   2.583  12.440  0.6247  0.6601 -0.0469
 3566TIP3    H232114   1.775   2.568  12.569  0.4703 -0.0283 -0.2166
 3567TIP3   OH232115   0.788   1.353  12.001  0.0187 -0.1791 -0.1995
 3567TIP3    H132116   0.806   1.383  11.912 -0.9467  0.2215 -0.2753
 3567TIP3    H232117   0.693   1.345  12.005  0.1579 -2.0283  0.2345
 3568TIP3   OH232118   5.506   0.567  14.953  0.3329 -0.1568  0.5198
 3568TIP3    H132119   5.496   0.472  14.957 -0.7015 -0.0320  1.2749
 3568TIP3    H232120   5.592   0.584  14.992 -0.4689 -0.6326  2.6084
 3569TIP3   OH232121   2.283   4.563   3.731  0.1101 -0.2425  0.0236
 3569TIP3    H132122   2.284   4.541   3.824  0.0227 -1.7254 -0.3124
 3569TIP3    H232123   2.260   4.482   3.687  1.5598  0.0635 -1.4035
 3570TIP3   OH232124   1.734   3.808  12.887 -0.5306  0.4001  0.0589
 3570TIP3    H132125   1.791   3.812  12.810  0.2593  0.4878  0.6355
 3570TIP3    H232126   1.666   3.873  12.869 -0.9462 -0.2994 -1.0173
 3571TIP3   OH232127   1.813   5.587  12.717  0.1949 -0.3181 -0.4913
 3571TIP3    H132128   1.744   5.651  12.698  0.5335  0.5226  0.9869
 3571TIP3    H232129   1.768   5.503  12.714 -0.2946 -0.0402 -2.2920
 3572TIP3   OH232130   4.892   0.877   5.545 -0.3114  0.2176  0.2005
 3572TIP3    H132131   4.905   0.832   5.461 -2.1662  0.6799 -0.3611
 3572TIP3    H232132   4.907   0.969   5.525 -0.8595  0.3408  0.3512
 3573TIP3   OH232133   2.869   2.055   3.133  0.1927  0.3806 -0.0362
 3573TIP3    H132134   2.912   2.139   3.117 -1.5420  1.1479 -0.9683
 3573TIP3    H232135   2.837   2.061   3.223 -1.8649  1.6875 -0.7979
 3574TIP3   OH232136   0.197   3.465  17.348  0.6952 -0.6869  0.2485
 3574TIP3    H132137   0.106   3.438  17.333 -0.1877  2.2147 -0.2340
 3574TIP3    H232138   0.245   3.426  17.276 -0.8461  0.6041 -1.5760
 3575TIP3   OH232139   5.706   1.673   1.284 -0.1035  0.3982 -0.4038
 3575TIP3    H132140   5.625   1.723   1.274 -0.9892 -0.7572  0.6953
 3575TIP3    H232141   5.754   1.718   1.353 -0.0539  0.7448 -0.6564
 3576TIP3   OH232142   1.947   5.324   4.636 -0.1999  0.2790  0.1318
 3576TIP3    H132143   1.907   5.411   4.644  0.7080  0.6127  1.1605
 3576TIP3    H232144   1.873   5.263   4.642 -0.7218  0.9372  0.4802
 3577TIP3   OH232145   1.502   3.757   2.994 -0.2305 -0.0917  0.2561
 3577TIP3    H132146   1.413   3.739   2.964  0.5815 -3.0073 -0.7527
 3577TIP3    H232147   1.556   3.752   2.915  0.8951  1.3625  0.8762
 3578TIP3   OH232148   3.831   2.402   5.942  0.5838 -0.6509 -0.4314
 3578TIP3    H132149   3.751   2.417   5.994 -0.7676 -4.3509 -1.1530
 3578TIP3    H232150   3.903   2.421   6.003 -0.7797  1.4186  0.6803
 3579TIP3   OH232151   3.696   2.754   5.141 -0.0389 -0.0742  0.5847
 3579TIP3    H132152   3.603   2.769   5.124  0.1754 -0.0192 -0.7008
 3579TIP3    H232153   3.702   2.662   5.166 -0.3062 -0.4923 -0.7706
 3580TIP3   OH232154   2.498   3.778  15.759  0.1974 -0.0714  0.3279
 3580TIP3    H132155   2.534   3.863  15.733 -0.2788 -0.3230 -1.2376
 3580TIP3    H232156   2.428   3.800  15.820 -0.4219  0.7305 -0.6370
 3581TIP3   OH232157   4.982   5.145  12.589 -0.4348  0.3208  0.2254
 3581TIP3    H132158   4.951   5.197  12.663 -0.7765  0.1078  0.2361
 3581TIP3    H232159   5.069   5.179  12.570 -0.9484  1.4149 -0.2537
 3582TIP3   OH232160   4.890   4.496   5.268 -0.5962 -0.0817  0.3794
 3582TIP3    H132161   4.937   4.419   5.300 -0.9648 -0.1264  0.8288
 3582TIP3    H232162   4.798   4.477   5.287 -0.9162 -0.4239 -1.3503
 3583TIP3   OH232163   5.444   2.966   3.036  1.0689 -0.4713 -0.5819
 3583TIP3    H132164   5.359   2.925   3.024  2.3560 -3.2591 -0.9659
 3583TIP3    H232165   5.492   2.946   2.956  1.6296  2.4354 -1.0738
 3584TIP3   OH232166   2.477   1.320   4.387 -0.5967 -0.0129  0.0960
 3584TIP3    H132167   2.538   1.274   4.444 -1.5997 -1.6875 -0.1215
 3584TIP3    H232168   2.477   1.410   4.419  1.9673  0.0629  0.0824
 3585TIP3   OH232169   4.126   3.082  13.049 -0.2000  0.2159  0.0816
 3585TIP3    H132170   4.141   3.076  13.143  1.1953  0.3260 -0.1040
 3585TIP3    H232171   4.153   3.171  13.026  1.9406 -0.5704 -0.7718
 3586TIP3   OH232172   4.470   0.219   4.588 -0.1359 -0.0751 -0.3392
 3586TIP3    H132173   4.395   0.171   4.622  0.7438 -0.2380  1.4480
 3586TIP3    H232174   4.504   0.268   4.663  1.6817 -0.1824 -1.0392
 3587TIP3   OH232175   5.205   5.084   4.284 -0.8293 -0.9075 -0.1012
 3587TIP3    H132176   5.150   5.061   4.209 -1.1168 -0.3874 -0.0508
 3587TIP3    H232177   5.221   5.178   4.274 -1.0501 -0.7918  0.6136
 3588TIP3   OH232178   3.468   4.488  11.117  0.2442 -0.4613 -0.1224
 3588TIP3    H132179   3.451   4.532  11.034  0.1287  0.2927  0.2910
 3588TIP3    H232180   3.450   4.395  11.100  0.6243 -0.3676 -1.0431
 3589TIP3   OH232181   0.673   2.546   1.070 -0.1693  0.1292 -0.2076
 3589TIP3    H132182   0.584   2.537   1.036 -0.1131  0.8325 -0.5633
 3589TIP3    H232183   0.666   2.612   1.139  0.0897  0.2537 -0.2993
 3590TIP3   OH232184   0.230   0.088   5.392  0.4720 -0.0849  0.0431
 3590TIP3    H132185   0.290   0.101   5.319 -1.2194  0.0575 -1.3860
 3590TIP3    H232186   0.219  -0.007   5.397 -0.8045 -0.0444 -1.1509
 3591TIP3   OH232187   2.214   4.725   5.330 -0.8062  0.1225 -0.2179
 3591TIP3    H132188   2.243   4.759   5.415  1.3913  0.7011 -1.1412
 3591TIP3    H232189   2.164   4.646   5.352  0.5743 -0.3055  1.5675
 3592TIP3   OH232190   5.894   0.909  15.854 -0.2019  0.0122  0.0022
 3592TIP3    H132191   5.808   0.908  15.811 -1.4923 -1.0091  2.4233
 3592TIP3    H232192   5.885   0.974  15.924  0.7560 -0.5925  0.7108
 3593TIP3   OH232193   4.641   5.917   2.709  0.1357 -0.2907 -0.0565
 3593TIP3    H132194   4.621   5.912   2.615 -2.0592 -2.1375  0.4213
 3593TIP3    H232195   4.636   6.010   2.729  1.2770  0.2159 -1.8634
 3594TIP3   OH232196   2.432   0.372   6.190 -0.4968 -0.4211 -0.6023
 3594TIP3    H132197   2.435   0.280   6.215 -0.3104  0.4157  2.8647
 3594TIP3    H232198   2.347   0.383   6.148 -1.4819 -1.7630  0.9520
 3595TIP3   OH232199   5.703   3.587  14.608  0.3201 -0.0883  0.1643
 3595TIP3    H132200   5.627   3.591  14.666 -0.6573  0.6647 -1.1186
 3595TIP3    H232201   5.770   3.542  14.660  0.5685  3.2134  3.0602
 3596TIP3   OH232202   5.341   5.653  16.096  0.0633  0.0057 -0.2976
 3596TIP3    H132203   5.307   5.725  16.148 -0.8110  0.0007 -0.8499
 3596TIP3    H232204   5.311   5.574  16.140 -0.9393  0.0030 -0.9634
 3597TIP3   OH232205   3.818   1.516  13.000 -0.0167  0.4195  0.0059
 3597TIP3    H132206   3.758   1.465  13.054  1.4190 -1.6391 -0.2614
 3597TIP3    H232207   3.862   1.452  12.944  0.2041  2.2007 -2.0350
 3598TIP3   OH232208   5.604   0.142   3.712 -0.6706  0.0535  0.1698
 3598TIP3    H132209   5.562   0.137   3.798 -3.3471  2.0272 -0.8878
 3598TIP3    H232210   5.531   0.152   3.651  0.9179 -3.5863 -2.6905
 3599TIP3   OH232211   5.080   3.650  12.622 -0.0235  0.3642 -0.5057
 3599TIP3    H132212   4.990   3.666  12.591  0.3277  3.0496 -0.3879
 3599TIP3    H232213   5.071   3.579  12.686 -2.0044  0.3038 -0.7804
 3600TIP3   OH232214   5.059   5.406  15.238 -0.3997  0.0266 -1.0246
 3600TIP3    H132215   5.011   5.394  15.320  0.6068 -1.3169 -0.5964
 3600TIP3    H232216   5.110   5.486  15.252  1.1692 -1.1653  0.4060
 3601TIP3   OH232217   6.577   2.205   0.458 -0.2471 -0.2394  0.6075
 3601TIP3    H132218   6.527   2.205   0.540 -2.6474  0.1939 -0.7816
 3601TIP3    H232219   6.513   2.227   0.390  1.2234 -2.3999 -1.6567
 3602TIP3   OH232220   2.548   4.257  16.542  0.0306  0.0303 -0.0300
 3602TIP3    H132221   2.546   4.166  16.513 -0.0525  0.3888 -1.2395
 3602TIP3    H232222   2.535   4.253  16.636  2.2296 -1.3473  0.2911
 3603TIP3   OH232223   2.592   2.461   0.481 -0.2767  0.6518  0.0162
 3603TIP3    H132224   2.637   2.534   0.524 -0.3790 -0.1845  1.5956
 3603TIP3    H232225   2.504   2.461   0.519  0.1212 -1.0796  1.0609
 3604TIP3   OH232226   0.059   2.314   4.810  0.5518 -0.5471 -0.4596
 3604TIP3    H132227   0.120   2.336   4.740  0.1913  0.5667 -0.4437
 3604TIP3    H232228   0.079   2.223   4.832  2.3829 -0.1188 -0.2590
 3605TIP3   OH232229   3.546   6.459  17.196 -0.1123 -0.3092 -0.4070
 3605TIP3    H132230   3.584   6.411  17.269 -2.3744 -1.3751  0.1448
 3605TIP3    H232231   3.588   6.422  17.118  1.6087  0.1772  0.2298
 3606TIP3   OH232232   1.451   0.825   6.039 -0.6517 -0.3218  0.0812
 3606TIP3    H132233   1.431   0.901   6.093  0.8918 -1.4350  2.3453
 3606TIP3    H232234   1.407   0.752   6.082 -1.2551 -0.9411 -1.4787
 3607TIP3   OH232235   4.333   0.666  15.313 -0.0520  0.4435 -0.1932
 3607TIP3    H132236   4.323   0.627  15.399 -0.0693 -0.9380 -0.7880
 3607TIP3    H232237   4.378   0.749  15.328  0.1555  0.1082  1.1056
 3608TIP3   OH232238   1.217   5.659   0.842  0.1316 -0.4064 -0.2967
 3608TIP3    H132239   1.127   5.655   0.874  0.2179  0.2679  0.0604
 3608TIP3    H232240   1.239   5.569   0.819  0.1259 -0.9868  1.7437
 3609TIP3   OH232241   2.557   1.196  17.059  0.1084  0.4468 -0.1746
 3609TIP3    H132242   2.546   1.180  17.153 -0.6010  0.7565 -0.2029
 3609TIP3    H232243   2.503   1.129  17.018 -0.5317  1.0532 -0.3394
 3610TIP3   OH232244   1.149   3.378  15.967 -0.1181  0.0985  0.1037
 3610TIP3    H132245   1.060   3.346  15.957  0.0813 -0.4987  0.2322
 3610TIP3    H232246   1.201   3.301  15.990  0.2527  0.6138  1.0807
 3611TIP3   OH232247   6.710   6.479  11.702  0.4493  0.0932  0.1495
 3611TIP3    H132248   6.756   6.551  11.661 -1.2931 -0.6820 -3.5964
 3611TIP3    H232249   6.711   6.409  11.637 -3.2360 -1.0271  1.0555
 3612TIP3   OH232250   1.291   5.893  13.615 -0.2933 -0.0687  0.5233
 3612TIP3    H132251   1.201   5.921  13.635 -1.4988 -3.5010  0.5138
 3612TIP3    H232252   1.280   5.824  13.550  2.5011  0.1655 -0.2939
 3613TIP3   OH232253   0.553   6.284   1.513 -0.0112 -0.1776  0.1798
 3613TIP3    H132254   0.643   6.261   1.488 -0.2188 -0.6964 -0.1048
 3613TIP3    H232255   0.563   6.345   1.586  0.6108  1.2147 -1.0085
 3614TIP3   OH232256   5.181   4.539   5.553  0.3726  0.0781 -0.2825
 3614TIP3    H132257   5.143   4.568   5.636 -0.4442  0.1356 -0.6732
 3614TIP3    H232258   5.126   4.466   5.525  0.3368  0.3820 -1.0242
 3615TIP3   OH232259   5.334   5.712   3.944  0.5421  0.6156 -0.0898
 3615TIP3    H132260   5.240   5.726   3.959  0.1789  1.0137 -2.4228
 3615TIP3    H232261   5.376   5.787   3.987 -0.3516  1.2983 -0.3710
 3616TIP3   OH232262   6.123   2.642  16.105  0.5321 -0.5417  0.3099
 3616TIP3    H132263   6.102   2.707  16.173  0.4540  0.2174 -0.4168
 3616TIP3    H232264   6.048   2.583  16.103 -1.2791  1.6314 -1.6670
 3617TIP3   OH232265   3.997   5.585  11.615 -0.0415 -0.2314  0.5415
 3617TIP3    H132266   4.028   5.496  11.633 -1.9755 -1.0248  0.1805
 3617TIP3    H232267   3.981   5.623  11.702  2.3355  0.4055  0.7645
 3618TIP3   OH232268   1.146   1.765   2.255 -0.2455  0.0400  0.4235
 3618TIP3    H132269   1.143   1.846   2.306 -0.5591  1.1103 -1.2253
 3618TIP3    H232270   1.200   1.786   2.179 -0.6504 -1.1894 -0.2384
 3619TIP3   OH232271   3.465   6.356   2.724  0.6412  0.3547 -0.0526
 3619TIP3    H132272   3.480   6.449   2.738  1.0249  0.0553  1.8589
 3619TIP3    H232273   3.372   6.344   2.743  0.9275  0.1235  1.3047
 3620TIP3   OH232274   5.447   3.888   4.875  0.2586  0.4280  0.1323
 3620TIP3    H132275   5.532   3.931   4.870  1.2148 -1.2157  1.3826
 3620TIP3    H232276   5.461   3.800   4.839 -1.3327  0.6427 -1.1657
 3621TIP3   OH232277   5.677   0.003   2.938  0.7333 -0.0965 -0.2839
 3621TIP3    H132278   5.730   0.049   3.003  1.2715  1.7760 -1.9783
 3621TIP3    H232279   5.740  -0.036   2.878  0.2249 -0.7733 -0.3947
 3622TIP3   OH232280   6.181   4.530   1.523 -0.2412 -0.2704  0.4541
 3622TIP3    H132281   6.085   4.530   1.528 -0.3195 -2.0861 -0.0880
 3622TIP3    H232282   6.210   4.518   1.613 -0.4310  1.9104  0.8560
 3623TIP3   OH232283   1.974   1.479  11.937 -0.1057  0.5105 -0.0059
 3623TIP3    H132284   1.931   1.441  12.014  1.4382  2.0890  1.7538
 3623TIP3    H232285   1.943   1.570  11.934 -0.0451  0.5094 -1.1881
 3624TIP3   OH232286   0.901   5.959  14.741  0.3988 -0.3547 -0.1965
 3624TIP3    H132287   0.869   5.892  14.680  2.3127 -1.4822 -0.0720
 3624TIP3    H232288   0.911   6.037  14.687  2.0100 -1.3193 -1.3891
 3625TIP3   OH232289   4.678   4.150  13.100 -0.1992 -0.2563 -0.3983
 3625TIP3    H132290   4.729   4.142  13.180 -0.2881 -2.0267 -0.4778
 3625TIP3    H232291   4.611   4.215  13.121  2.5290  2.8661 -0.6014
 3626TIP3   OH232292   0.206   3.308  15.548  0.4338 -0.1233  0.5494
 3626TIP3    H132293   0.279   3.278  15.494  0.4835  1.4131 -0.2754
 3626TIP3    H232294   0.168   3.381  15.499 -0.4368  0.3642  1.9008
 3627TIP3   OH232295   4.799   3.354  15.003 -0.1205  0.1921 -0.1939
 3627TIP3    H132296   4.807   3.437  14.955  0.1740  0.0082 -0.4656
 3627TIP3    H232297   4.848   3.370  15.084 -0.1177  0.3050 -0.2163
 3628TIP3   OH232298   5.372   4.569   2.560  0.2287  0.0798  0.0191
 3628TIP3    H132299   5.320   4.595   2.636  0.6753  0.3385  0.2395
 3628TIP3    H232300   5.310   4.526   2.502  0.0830 -1.0057  0.9587
 3629TIP3   OH232301   3.236   0.140  14.778 -0.0325  0.5549  0.1987
 3629TIP3    H132302   3.146   0.154  14.810  0.4202 -0.1871  1.9451
 3629TIP3    H232303   3.287   0.127  14.858  1.3614 -0.5744 -0.8366
 3630TIP3   OH232304   4.255   0.830  13.059  0.0010 -0.0054 -0.7746
 3630TIP3    H132305   4.273   0.924  13.059 -1.0036  0.1971 -0.7879
 3630TIP3    H232306   4.342   0.790  13.058  0.4516  0.9163 -0.5167
 3631TIP3   OH232307   1.903   0.320  15.799  0.1560  0.0455  0.3741
 3631TIP3    H132308   1.967   0.386  15.825  0.3819 -0.3217  0.7773
 3631TIP3    H232309   1.828   0.369  15.767  0.8307  0.4943 -0.5963
 3632TIP3   OH232310   3.528   1.784   1.648 -0.1384  0.4465  0.1121
 3632TIP3    H132311   3.475   1.840   1.705 -1.5437 -3.1208  2.6908
 3632TIP3    H232312   3.463   1.732   1.600  1.0954 -0.2330 -0.8643
 3633TIP3   OH232313   5.958   4.715  14.008  0.9236  0.0375 -0.5998
 3633TIP3    H132314   5.989   4.787  13.952  1.5199  0.4796  0.2784
 3633TIP3    H232315   6.023   4.646  13.997 -1.1020 -1.6109 -3.7073
 3634TIP3   OH232316   5.769   5.831  12.516 -0.2079  0.2034 -0.1831
 3634TIP3    H132317   5.761   5.899  12.449 -2.2887  0.9308  0.7296
 3634TIP3    H232318   5.713   5.759  12.485  1.4337 -0.8815 -0.7975
 3635TIP3   OH232319   2.955   3.538  17.388  0.6339  0.4590 -0.7872
 3635TIP3    H132320   2.860   3.526  17.383  0.5165 -1.8245  2.8867
 3635TIP3    H232321   2.967   3.618  17.438  0.4860 -0.5760  0.9767
 3636TIP3   OH232322   0.741   0.149   4.033 -0.1308  0.6583 -0.3072
 3636TIP3    H132323   0.824   0.121   4.071 -0.6821  0.5066  0.8298
 3636TIP3    H232324   0.766   0.191   3.950  1.2065  1.8704  0.6607
 3637TIP3   OH232325   0.093   1.076   3.590  0.1992 -0.5050 -0.6592
 3637TIP3    H132326   0.014   1.122   3.618  0.0679 -1.3136  0.3435
 3637TIP3    H232327   0.092   1.083   3.494 -1.0150 -0.3906 -0.6523
 3638TIP3   OH232328   0.943   0.615   2.440  0.1633  0.4208 -0.6891
 3638TIP3    H132329   0.985   0.529   2.437 -0.3983  0.1351 -0.6201
 3638TIP3    H232330   0.994   0.665   2.503 -0.5052 -0.4219  0.5788
 3639TIP3   OH232331   0.439   2.710  13.416  0.4911 -0.1072  0.1121
 3639TIP3    H132332   0.405   2.745  13.498 -1.3025 -0.5744 -0.3909
 3639TIP3    H232333   0.461   2.788  13.364 -0.4938  0.2341  0.1924
 3640TIP3   OH232334   0.096   3.205  12.829 -0.1000  0.4000 -0.2507
 3640TIP3    H132335   0.046   3.128  12.803 -1.9444  1.7516 -0.9350
 3640TIP3    H232336   0.091   3.206  12.925  0.2484 -0.4950 -0.2113
 3641TIP3   OH232337   0.692   1.000  12.083 -0.1612 -0.4117  0.4987
 3641TIP3    H132338   0.672   0.928  12.023 -1.3602 -0.8668  1.3993
 3641TIP3    H232339   0.609   1.019  12.126 -0.1697  2.3882 -0.6022
 3642TIP3   OH232340   1.707   0.129  15.033 -0.4993  0.1420  0.3219
 3642TIP3    H132341   1.685   0.043  14.998 -1.7460  0.5766 -0.0237
 3642TIP3    H232342   1.640   0.147  15.098 -0.8369  1.2445 -0.2914
 3643TIP3   OH232343   4.713   5.509   2.230 -0.3069 -0.7783 -0.1463
 3643TIP3    H132344   4.771   5.496   2.156 -3.1856 -1.3748 -2.4923
 3643TIP3    H232345   4.695   5.420   2.262  0.5927 -0.5512  1.0619
 3644TIP3   OH232346   2.694   5.496  13.852  0.1557  0.3886 -1.2904
 3644TIP3    H132347   2.624   5.562  13.855 -0.4868 -0.2989 -0.9983
 3644TIP3    H232348   2.759   5.527  13.916 -1.0479 -0.2588  0.3003
 3645TIP3   OH232349   5.287   4.522   2.085 -0.0227 -0.0992 -0.8749
 3645TIP3    H132350   5.205   4.543   2.041 -0.4334 -0.6076 -0.3807
 3645TIP3    H232351   5.264   4.451   2.145  0.8281 -0.3932 -0.8828
 3646TIP3   OH232352   4.729   0.877  16.471  0.7332 -0.1476  0.8674
 3646TIP3    H132353   4.645   0.923  16.478  2.2316  2.6244  2.6677
 3646TIP3    H232354   4.740   0.860  16.378 -1.7644 -0.5401  0.5852
 3647TIP3   OH232355   3.507   5.158  12.151  0.3112  0.1845 -0.6417
 3647TIP3    H132356   3.490   5.184  12.060 -0.2044  0.3339 -0.5078
 3647TIP3    H232357   3.448   5.084  12.166 -2.1876  2.2597  0.5987
 3648TIP3   OH232358   5.207   6.643   5.086 -0.7858  0.3422  0.3369
 3648TIP3    H132359   5.147   6.595   5.028  0.5045 -0.1836 -0.6101
 3648TIP3    H232360   5.228   6.581   5.155 -0.2509  0.0391 -0.0943
 3649TIP3   OH232361   5.046   0.361   2.371  0.0554  0.3102  0.3901
 3649TIP3    H132362   5.042   0.429   2.304 -0.7165 -0.8169 -0.7528
 3649TIP3    H232363   4.956   0.349   2.399  0.3401  0.6088  1.5107
 3650TIP3   OH232364   6.040   0.862  14.170  0.3274  0.0034  0.7013
 3650TIP3    H132365   6.052   0.849  14.076  1.1043 -0.7990  0.8922
 3650TIP3    H232366   6.098   0.935  14.192 -1.9769  2.1267  0.0989
 3651TIP3   OH232367   3.023   2.971  16.066 -0.1162  1.1681  0.8652
 3651TIP3    H132368   3.104   3.020  16.050 -0.2655  0.9614 -0.7045
 3651TIP3    H232369   2.955   3.038  16.068 -0.2864  1.1215 -1.0246
 3652TIP3   OH232370   0.926   4.682   2.898  0.2485 -0.2622 -0.4425
 3652TIP3    H132371   0.962   4.725   2.975  1.2093 -1.8000  0.0183
 3652TIP3    H232372   0.992   4.615   2.875 -1.5911 -2.1680 -0.5019
 3653TIP3   OH232373   2.661   5.294   3.869  0.0209 -0.3280 -0.3190
 3653TIP3    H132374   2.685   5.262   3.783 -0.9225 -0.3603 -0.5842
 3653TIP3    H232375   2.593   5.359   3.852  1.9081  1.8872  0.1996
 3654TIP3   OH232376   3.792   2.456  10.970 -0.2957  0.2372  0.4310
 3654TIP3    H132377   3.881   2.454  10.934 -0.2180 -1.1380  0.6284
 3654TIP3    H232378   3.767   2.548  10.967  0.7613  0.5185 -0.5347
 3655TIP3   OH232379   2.884   1.226   0.031  0.0466 -0.3600 -0.1264
 3655TIP3    H132380   2.946   1.298   0.017 -0.5577  0.8025  2.6478
 3655TIP3    H232381   2.935   1.147   0.015  2.0328  0.5951  1.1347
 3656TIP3   OH232382   2.302   5.746  14.519  0.1092  0.6976 -0.0727
 3656TIP3    H132383   2.354   5.724  14.442 -0.9721 -0.0524 -0.6084
 3656TIP3    H232384   2.363   5.794  14.575  1.0088  0.9920 -1.2434
 3657TIP3   OH232385   6.707   5.118   2.580  0.4190  0.5640 -0.2750
 3657TIP3    H132386   6.655   5.196   2.564  0.7616  1.4950  2.6785
 3657TIP3    H232387   6.646   5.045   2.568 -0.6409  1.4347 -0.2723
 3658TIP3   OH232388   2.618   0.631   4.153  0.2116  0.3039 -0.5500
 3658TIP3    H132389   2.566   0.641   4.074  0.3818  2.2326 -0.4648
 3658TIP3    H232390   2.689   0.695   4.144 -1.4458  2.8342  2.4284
 3659TIP3   OH232391   1.932   2.865  12.605 -0.4480 -0.3845  0.5098
 3659TIP3    H132392   1.867   2.807  12.566 -2.2460  0.7579  1.6452
 3659TIP3    H232393   1.900   2.880  12.694  1.3107  0.3485  1.0500
 3660TIP3   OH232394   0.052   1.576   1.275 -0.1836 -0.0828  0.1457
 3660TIP3    H132395   0.062   1.607   1.365 -3.1577 -0.0532  0.5699
 3660TIP3    H232396   0.040   1.656   1.224  1.4441 -0.1040 -0.3194
 3661TIP3   OH232397   1.414   2.149   3.536 -0.3028  0.4323  0.3811
 3661TIP3    H132398   1.337   2.136   3.592 -0.7590 -0.3514 -0.4112
 3661TIP3    H232399   1.466   2.214   3.583  0.0351 -1.2445  2.4757
 3662TIP3   OH232400   1.627   1.200   5.363 -0.3670 -0.0932  0.4810
 3662TIP3    H132401   1.571   1.125   5.385 -1.8248  1.0084  0.6397
 3662TIP3    H232402   1.598   1.227   5.277  2.1790 -1.4890 -0.9418
 3663TIP3   OH232403   0.141   4.052  15.473 -0.2745  0.1249 -0.1761
 3663TIP3    H132404   0.114   3.960  15.484  0.4654 -0.0998 -0.1848
 3663TIP3    H232405   0.211   4.048  15.408 -0.9102  0.8173 -0.9157
 3664TIP3   OH232406   3.630   1.514   6.284  0.1200 -0.2104 -0.1838
 3664TIP3    H132407   3.558   1.539   6.341 -0.4460  2.8853 -1.9824
 3664TIP3    H232408   3.686   1.591   6.281  1.7308 -1.3521 -1.4236
 3665TIP3   OH232409   4.815   4.682  14.042 -0.0733  0.0650 -0.2148
 3665TIP3    H132410   4.900   4.723  14.023 -0.2657 -0.0203 -1.3218
 3665TIP3    H232411   4.835   4.589  14.053  0.2450  0.3011  1.4975
 3666TIP3   OH232412   0.441   4.889   3.544 -0.0402 -0.4009 -0.1680
 3666TIP3    H132413   0.464   4.890   3.637 -4.9620 -0.9172  1.3302
 3666TIP3    H232414   0.457   4.799   3.515  1.6652 -0.1951  0.0298
 3667TIP3   OH232415   1.326   2.090   1.949  0.1497 -0.4569 -0.3499
 3667TIP3    H132416   1.318   2.127   2.037  0.0814  1.1419 -0.9913
 3667TIP3    H232417   1.241   2.108   1.908 -0.1996 -2.1344 -0.4200
 3668TIP3   OH232418   2.890   3.529  11.386 -0.1187  0.1498  0.0919
 3668TIP3    H132419   2.915   3.527  11.294  1.7097 -0.4375  0.5599
 3668TIP3    H232420   2.797   3.504  11.386  0.2376 -1.3621 -1.4685
 3669TIP3   OH232421   0.988   6.286   2.924  0.4683  0.3876 -0.2866
 3669TIP3    H132422   0.927   6.243   2.984 -0.0130  0.7301 -0.5181
 3669TIP3    H232423   1.056   6.221   2.908 -0.3511 -0.3746 -0.8027
 3670TIP3   OH232424   4.440   0.473   2.455 -0.2670 -0.2034 -0.3229
 3670TIP3    H132425   4.344   0.480   2.457 -0.2284  1.4489 -1.9031
 3670TIP3    H232426   4.469   0.525   2.530 -0.5684 -0.0471 -0.3124
 3671TIP3   OH232427   5.765   4.207  11.303  0.4475  0.1868  0.5148
 3671TIP3    H132428   5.671   4.198  11.314  0.2503  1.3958 -0.0247
 3671TIP3    H232429   5.798   4.117  11.299 -0.9573 -0.2989 -1.4628
 3672TIP3   OH232430   2.301   0.590  14.454 -0.1011  0.8018  0.2268
 3672TIP3    H132431   2.340   0.528  14.514  0.0600  0.1127 -0.5657
 3672TIP3    H232432   2.271   0.662  14.509  1.5097  0.9567  0.9512
 3673TIP3   OH232433   6.077   1.144  15.869  0.2334  0.4258 -0.0263
 3673TIP3    H132434   6.067   1.187  15.784  2.4308  0.4097 -0.3626
 3673TIP3    H232435   6.017   1.190  15.927 -3.4601 -1.3449 -2.0946
 3674TIP3   OH232436   1.664   2.514  14.546  0.0660  0.0775  0.1629
 3674TIP3    H132437   1.576   2.520  14.582  0.1046 -0.3171  0.3248
 3674TIP3    H232438   1.663   2.436  14.491  0.4096 -0.1361  0.4518
 3675TIP3   OH232439   5.603   4.529   4.560 -0.2046 -0.3356  0.1360
 3675TIP3    H132440   5.595   4.620   4.532 -1.8630 -0.7909 -1.0108
 3675TIP3    H232441   5.548   4.523   4.638 -0.7274 -0.5143 -0.2398
 3676TIP3   OH232442   0.570   1.459   4.958  0.3912  0.1389  0.1376
 3676TIP3    H132443   0.662   1.465   4.986  0.7931  1.1537 -1.2706
 3676TIP3    H232444   0.520   1.480   5.036  1.2578 -2.2116  1.4374
 3677TIP3   OH232445   0.581   1.478  15.093 -0.0496  0.1640  0.5399
 3677TIP3    H132446   0.617   1.394  15.063 -0.8379 -0.0824  0.2444
 3677TIP3    H232447   0.489   1.459  15.112  0.3338  0.3770  2.8820
 3678TIP3   OH232448   5.179   5.546   1.369 -0.0920  0.3381  0.6881
 3678TIP3    H132449   5.262   5.533   1.414  0.2033  0.4461  0.1808
 3678TIP3    H232450   5.120   5.579   1.437  0.6840  1.6966  0.7426
 3679TIP3   OH232451   3.221   3.653  14.479  0.5654  0.0305  0.3664
 3679TIP3    H132452   3.224   3.558  14.494  0.4723  0.3251  2.4433
 3679TIP3    H232453   3.257   3.692  14.558  0.2340  1.7611 -0.2839
 3680TIP3   OH232454   4.641   6.460   0.174 -0.4955 -0.0869  0.2485
 3680TIP3    H132455   4.665   6.409   0.251 -1.0893 -0.1610  0.3922
 3680TIP3    H232456   4.643   6.398   0.102  1.9578  0.3844 -0.1594
 3681TIP3   OH232457   1.066   1.961  15.633 -0.0296  0.2053 -0.0329
 3681TIP3    H132458   1.125   1.981  15.705  0.2738  0.1798 -0.2725
 3681TIP3    H232459   1.002   1.899  15.670  1.6523 -1.8983 -0.4361
 3682TIP3   OH232460   4.094   0.002  16.646  0.3983  0.2766 -0.3669
 3682TIP3    H132461   4.069  -0.078  16.601  1.4441  0.3903 -1.1838
 3682TIP3    H232462   4.075  -0.015  16.738  0.9270 -1.0402 -0.4833
 3683TIP3   OH232463   4.348   2.296  12.226 -0.1797 -0.4102 -0.4044
 3683TIP3    H132464   4.429   2.342  12.206 -1.2478  2.4838  1.3526
 3683TIP3    H232465   4.339   2.303  12.321 -2.1243 -1.3477 -0.4671
 3684TIP3   OH232466   2.968   3.933  17.235 -0.1396  0.1142  0.4564
 3684TIP3    H132467   2.956   4.001  17.169 -3.2411 -1.5800 -0.9292
 3684TIP3    H232468   3.062   3.935  17.254 -0.0419  4.8093  0.7193
 3685TIP3   OH232469   5.312   6.251  17.265  0.0495  0.3202  0.4529
 3685TIP3    H132470   5.338   6.342  17.251 -2.1933  1.0299  0.4914
 3685TIP3    H232471   5.320   6.210  17.179  0.4099  0.7272  0.2882
 3686TIP3   OH232472   2.450   4.248   3.479  0.3884 -0.0346 -0.2783
 3686TIP3    H132473   2.540   4.281   3.487  1.0080 -1.9697  1.5681
 3686TIP3    H232474   2.449   4.203   3.395  0.8708  0.7300 -0.7092
 3687TIP3   OH232475   1.801   1.673   1.470 -0.2498 -0.9718 -0.1113
 3687TIP3    H132476   1.879   1.729   1.460  0.2576 -1.5040  0.7489
 3687TIP3    H232477   1.731   1.733   1.494  0.5838 -0.8217  2.1631
 3688TIP3   OH232478   3.084   0.558  16.422  0.5713  0.3790  0.5736
 3688TIP3    H132479   3.150   0.621  16.392  0.9527 -0.6137 -0.7240
 3688TIP3    H232480   3.047   0.522  16.342 -0.3825 -0.3037  1.3017
 3689TIP3   OH232481   6.247   0.904  13.293 -0.2486 -0.5468  0.5073
 3689TIP3    H132482   6.335   0.938  13.305 -0.5001  0.3038  0.0726
 3689TIP3    H232483   6.254   0.845  13.217 -0.2248  0.2383 -0.1152
 3690TIP3   OH232484   5.242   3.286  14.221 -0.6138 -0.5901 -0.3444
 3690TIP3    H132485   5.202   3.231  14.154 -0.9752  0.3932 -0.9668
 3690TIP3    H232486   5.171   3.303  14.283 -0.1544 -1.9019  0.5864
 3691TIP3   OH232487   4.582   0.413   3.719  0.0943 -0.1169  0.8056
 3691TIP3    H132488   4.489   0.431   3.709 -0.2110 -0.8221  2.1281
 3691TIP3    H232489   4.590   0.374   3.806  1.3609 -1.8062  0.0108
 3692TIP3   OH232490   6.459   0.467   6.572 -0.5721  0.2943 -0.4444
 3692TIP3    H132491   6.389   0.514   6.528 -0.7572  0.4940  0.0523
 3692TIP3    H232492   6.514   0.535   6.610 -0.8077  0.1252  0.2227
 3693TIP3   OH232493   2.253   2.169  11.912  0.2653  0.5630 -0.1702
 3693TIP3    H132494   2.324   2.173  11.849  1.8064  0.0562  1.4427
 3693TIP3    H232495   2.276   2.097  11.971 -1.9295 -0.0503  0.0491
 3694TIP3   OH232496   0.555   5.043   5.197  0.1285 -0.2533  0.0406
 3694TIP3    H132497   0.471   5.080   5.222  1.1980  0.6823  2.5997
 3694TIP3    H232498   0.609   5.119   5.174  1.2957 -0.4444  1.9282
 3695TIP3   OH232499   2.482   0.718   0.882  0.2704  0.4918  0.0802
 3695TIP3    H132500   2.495   0.765   0.800 -1.5167  0.8221 -0.0721
 3695TIP3    H232501   2.491   0.625   0.859 -0.8070  0.5444 -0.6533
 3696TIP3   OH232502   0.307   5.071   1.324 -0.5125  0.4580 -0.2527
 3696TIP3    H132503   0.295   5.141   1.260  0.3037 -0.6332 -1.6733
 3696TIP3    H232504   0.378   5.018   1.287 -1.2095 -1.1946  0.6855
 3697TIP3   OH232505   5.555   3.820   5.939 -0.2716  0.5066  0.5612
 3697TIP3    H132506   5.466   3.854   5.926 -0.6315 -0.9062 -1.1954
 3697TIP3    H232507   5.553   3.782   6.027 -1.0716  1.4127  0.9569
 3698TIP3   OH232508   1.256   1.407   1.143 -0.4308  0.2889  0.1770
 3698TIP3    H132509   1.250   1.396   1.048 -0.2463  0.6179  0.1241
 3698TIP3    H232510   1.302   1.490   1.154 -0.8885  0.4939  0.5558
 3699TIP3   OH232511   5.175   3.589   2.405  0.7213  0.4893 -0.2811
 3699TIP3    H132512   5.187   3.684   2.410  1.3911  0.3920  0.0173
 3699TIP3    H232513   5.138   3.574   2.318  0.2274  1.0586 -0.1784
 3700TIP3   OH232514   0.628   5.050  13.931  0.0594  0.5347 -0.2891
 3700TIP3    H132515   0.688   5.115  13.895 -0.4762  1.3777  0.3166
 3700TIP3    H232516   0.600   4.999  13.855  0.2948  1.1690 -0.8118
 3701TIP3   OH232517   4.907   3.996   0.553 -0.5583 -0.6391 -0.4712
 3701TIP3    H132518   4.922   4.014   0.646  0.0708 -0.6989 -0.5562
 3701TIP3    H232519   4.890   4.081   0.515 -0.3626 -0.5592 -0.3815
 3702TIP3   OH232520   1.726   4.141  15.524 -0.1591  0.1593  0.1470
 3702TIP3    H132521   1.743   4.096  15.607  0.0562  1.6288  0.9358
 3702TIP3    H232522   1.794   4.110  15.465  0.1605 -0.3267  0.7618
 3703TIP3   OH232523   2.854   5.265  12.802  0.0110 -0.7511  0.3021
 3703TIP3    H132524   2.862   5.330  12.871  0.2118  1.6017 -1.7949
 3703TIP3    H232525   2.942   5.227  12.794  0.5612  0.5616 -0.0980
 3704TIP3   OH232526   5.780   3.196  12.406  0.3590  0.6429 -0.4933
 3704TIP3    H132527   5.856   3.142  12.385 -0.5783 -0.5670 -0.9386
 3704TIP3    H232528   5.717   3.176  12.336 -1.1428  0.0137  0.9522
 3705TIP3   OH232529   4.079   0.183   1.849  0.1835  0.5008  0.0205
 3705TIP3    H132530   4.070   0.186   1.754  0.4297 -0.0523 -0.0246
 3705TIP3    H232531   4.173   0.194   1.864 -0.0066  2.0503  0.2814
 3706TIP3   OH232532   6.285   6.544  16.528 -0.7782 -0.0861  0.1387
 3706TIP3    H132533   6.282   6.520  16.620  0.0274 -0.0589  0.1790
 3706TIP3    H232534   6.379   6.546  16.506 -0.8545  1.7476 -0.2036
 3707TIP3   OH232535   1.934   5.409   1.988  0.3645 -0.0049 -0.1524
 3707TIP3    H132536   1.872   5.350   2.031 -0.7527 -0.1525 -1.8947
 3707TIP3    H232537   1.913   5.496   2.023 -0.4985 -0.1230 -0.3634
 3708TIP3   OH232538   1.075   4.135   5.537 -0.0122 -0.3812 -0.2593
 3708TIP3    H132539   1.066   4.178   5.622  1.4720 -0.8834  0.1841
 3708TIP3    H232540   1.166   4.105   5.535 -0.3703 -1.4581 -1.5183
 3709TIP3   OH232541   0.173   3.448  16.968  0.1581 -0.4531  0.2196
 3709TIP3    H132542   0.182   3.533  17.012 -0.5464 -0.6793  0.8243
 3709TIP3    H232543   0.079   3.431  16.969  0.3504 -1.5577  0.7130
 3710TIP3   OH232544   1.132   2.068   4.609  1.1284 -0.0209  0.0983
 3710TIP3    H132545   1.221   2.096   4.632  1.7339 -1.4573 -0.3419
 3710TIP3    H232546   1.104   2.015   4.684  0.5553  0.5958  0.3232
 3711TIP3   OH232547   4.561   0.769   4.151  0.1602  0.0502 -0.0814
 3711TIP3    H132548   4.631   0.827   4.180  0.5914  0.0311 -1.0692
 3711TIP3    H232549   4.590   0.734   4.067 -0.6013 -0.7175 -0.0484
 3712TIP3   OH232550   0.340   2.808  13.650  0.1169  0.0620 -0.0956
 3712TIP3    H132551   0.354   2.728  13.699  1.3964  0.9377  1.0304
 3712TIP3    H232552   0.359   2.878  13.712 -2.7347  1.3156 -0.4998
 3713TIP3   OH232553   1.237   2.619   2.856 -0.1863 -0.2932 -0.2525
 3713TIP3    H132554   1.168   2.615   2.922 -0.4857  0.9739 -0.4456
 3713TIP3    H232555   1.307   2.669   2.897  0.7840 -1.8688  0.0621
 3714TIP3   OH232556   5.294   2.209   2.081 -0.7465 -0.3401  0.0303
 3714TIP3    H132557   5.318   2.118   2.062 -0.6220 -0.5496  1.0954
 3714TIP3    H232558   5.202   2.204   2.106 -0.2597 -0.5151  2.0143
 3715TIP3   OH232559   2.743   5.412   0.217  0.5208  0.4301 -0.1023
 3715TIP3    H132560   2.797   5.472   0.165  0.1728 -0.1959 -1.2195
 3715TIP3    H232561   2.804   5.373   0.280  0.9950  1.0527 -0.1608
 3716TIP3   OH232562   0.461   3.166  10.622  0.1389  0.4026  0.1251
 3716TIP3    H132563   0.552   3.196  10.621 -0.2394  1.6020 -0.2216
 3716TIP3    H232564   0.409   3.246  10.632 -0.9713  0.0664 -2.1701
 3717TIP3   OH232565   0.750   0.972   1.641 -0.2012 -0.5205  0.5956
 3717TIP3    H132566   0.745   1.061   1.675 -2.9379 -1.2440  2.3614
 3717TIP3    H232567   0.753   0.916   1.718 -0.6586 -2.0478 -0.4325
 3718TIP3   OH232568   6.749   3.023  12.417 -0.4681 -0.4256  0.3082
 3718TIP3    H132569   6.668   2.977  12.393  0.1418 -1.0450 -0.6175
 3718TIP3    H232570   6.759   3.005  12.510 -1.5477 -0.0996  0.5023
 3719TIP3   OH232571   3.798   4.923  16.008  0.0539  0.0098 -0.0404
 3719TIP3    H132572   3.767   4.834  15.996  0.7187 -0.1080 -1.0163
 3719TIP3    H232573   3.744   4.976  15.948 -0.5234  0.3110  0.7341
 3720TIP3   OH232574   3.621   2.070  14.263  0.4932 -0.0585 -0.1251
 3720TIP3    H132575   3.607   1.992  14.209 -1.2539  0.9660 -1.2249
 3720TIP3    H232576   3.600   2.144  14.206  1.0392  1.1966  1.2203
 3721TIP3   OH232577   2.435   6.736   4.625  0.3095  0.0277  0.1569
 3721TIP3    H132578   2.466   6.713   4.537  0.6639  1.1560 -0.0223
 3721TIP3    H232579   2.513   6.767   4.670 -0.0272  0.2051  0.6231
 3722TIP3   OH232580   2.084   1.750  12.307  0.4294  0.0542  0.1296
 3722TIP3    H132581   2.121   1.701  12.233  0.0377 -1.0867  0.6555
 3722TIP3    H232582   2.065   1.683  12.373  2.9503  1.2574  2.2367
 3723TIP3   OH232583   0.931   2.691  12.585 -0.0981  0.1328  0.7937
 3723TIP3    H132584   0.948   2.782  12.561 -0.1920  0.3080  1.3809
 3723TIP3    H232585   0.839   2.677  12.563  0.2051 -0.1664 -0.3563
 3724TIP3   OH232586   1.962   1.679  16.445 -0.0956 -0.3716 -0.1662
 3724TIP3    H132587   1.965   1.594  16.401  1.0139 -0.4466  0.0107
 3724TIP3    H232588   1.934   1.659  16.535 -1.2602 -0.3554 -0.5086
 3725TIP3   OH232589   0.767   2.883   3.456  0.8283 -0.7218 -0.0252
 3725TIP3    H132590   0.789   2.966   3.414  0.7821 -1.6699 -2.0511
 3725TIP3    H232591   0.677   2.895   3.487  0.9308  0.0695 -0.0214
 3726TIP3   OH232592   1.083   2.554  13.538 -0.4595 -0.2677 -0.0340
 3726TIP3    H132593   1.054   2.496  13.468 -0.2307  0.5246 -0.7930
 3726TIP3    H232594   1.179   2.551  13.535 -0.4391 -0.8699  0.7917
 3727TIP3   OH232595   5.364   2.284  16.795 -0.8667 -0.1563 -0.6203
 3727TIP3    H132596   5.359   2.334  16.714  0.0690  0.4000 -0.3587
 3727TIP3    H232597   5.420   2.337  16.852 -0.6965 -1.0116  0.0341
 3728TIP3   OH232598   5.010   1.107   3.507  0.8551  0.3504  0.0690
 3728TIP3    H132599   5.052   1.023   3.488 -0.4771 -0.6229  1.2420
 3728TIP3    H232600   4.930   1.106   3.455  0.1946  0.3035  1.0659
 3729TIP3   OH232601   0.591   0.758   4.707 -0.1909 -0.3205  0.0610
 3729TIP3    H132602   0.667   0.709   4.676  0.5803  1.4829 -1.1305
 3729TIP3    H232603   0.539   0.773   4.628  0.0646  1.4845  0.1917
 3730TIP3   OH232604   1.526   1.197  17.381  0.1644 -0.2254 -0.2465
 3730TIP3    H132605   1.494   1.256  17.450  0.8511 -0.3486  0.1808
 3730TIP3    H232606   1.484   1.230  17.301  1.6490  1.7705 -0.2695
 3731TIP3   OH232607   3.142   1.394  13.572 -0.3189 -0.8790 -0.2420
 3731TIP3    H132608   3.121   1.437  13.655 -1.2087  0.0340 -0.9188
 3731TIP3    H232609   3.221   1.439  13.541  0.0863 -1.3029  0.1465
 3732TIP3   OH232610   6.224   0.409   0.709  0.1715 -0.1625  0.0048
 3732TIP3    H132611   6.136   0.382   0.737 -0.3409  2.4805  1.3038
 3732TIP3    H232612   6.208   0.468   0.635  0.8467  0.2886  0.2134
 3733TIP3   OH232613   3.613   2.914  11.624 -0.8704  0.1889 -0.5195
 3733TIP3    H132614   3.552   2.986  11.641 -0.5068  0.2146  0.7957
 3733TIP3    H232615   3.557   2.840  11.600 -1.3256  0.5996 -0.7244
 3734TIP3   OH232616   6.213   3.974   1.559 -0.3168  0.7625 -0.2395
 3734TIP3    H132617   6.279   3.959   1.626  0.0832  2.5165 -0.1739
 3734TIP3    H232618   6.149   4.032   1.602 -0.7808  0.7878 -0.9508
 3735TIP3   OH232619   6.666   3.390  15.628 -0.1026 -0.4480 -0.1281
 3735TIP3    H132620   6.644   3.385  15.721  0.0342 -0.2311 -0.0820
 3735TIP3    H232621   6.625   3.314  15.589 -1.1780  0.1051 -0.1017
 3736TIP3   OH232622   5.798   0.776   1.126  0.7091 -0.5774 -0.5368
 3736TIP3    H132623   5.792   0.823   1.043  1.4021 -0.4336 -0.5093
 3736TIP3    H232624   5.870   0.715   1.114  0.0850 -1.3538 -0.4285
 3737TIP3   OH232625   0.277   5.197   1.604 -0.0322 -0.2549 -0.0557
 3737TIP3    H132626   0.331   5.135   1.555  0.6382 -0.3368  0.7547
 3737TIP3    H232627   0.223   5.240   1.538  2.1656  0.9768 -1.1522
 3738TIP3   OH232628   5.610   1.083  12.544 -0.2620 -0.6753  0.3678
 3738TIP3    H132629   5.582   1.027  12.616  1.2205  0.1199  1.6148
 3738TIP3    H232630   5.697   1.114  12.570 -1.3593  2.9676  0.2496
 3739TIP3   OH232631   0.989   5.269   6.843  0.3887 -0.0545 -0.3196
 3739TIP3    H132632   0.991   5.351   6.794  0.6938 -0.0147 -0.2428
 3739TIP3    H232633   1.036   5.207   6.786  0.5564 -0.0612 -0.1762
 3740TIP3   OH232634   3.676   1.423   1.960 -0.6892 -0.0426  0.2378
 3740TIP3    H132635   3.632   1.423   1.875  0.4471  0.7521 -0.3784
 3740TIP3    H232636   3.606   1.406   2.023 -1.9790  1.5790 -0.6583
 3741TIP3   OH232637   3.692   2.006  16.486  0.6284 -0.5012 -0.2446
 3741TIP3    H132638   3.640   1.962  16.553  1.7556 -1.8240 -0.1898
 3741TIP3    H232639   3.628   2.053  16.433 -0.3381  0.3097  1.5265
 3742TIP3   OH232640   2.068   0.775  15.867  0.4201 -0.2858  0.1085
 3742TIP3    H132641   1.990   0.760  15.921  0.7411  0.2931  0.7586
 3742TIP3    H232642   2.034   0.812  15.786 -0.0635 -1.0632 -0.0532
 3743TIP3   OH232643   2.896   4.875  15.612 -0.4926  0.4643  0.1857
 3743TIP3    H132644   2.928   4.956  15.573  2.3797 -0.3392  0.5666
 3743TIP3    H232645   2.865   4.900  15.699  0.1030  1.2351  0.1894
 3744TIP3   OH232646   3.280   5.658   3.229 -0.1710  0.3911  0.5375
 3744TIP3    H132647   3.284   5.571   3.269 -1.0029  0.6002  1.1021
 3744TIP3    H232648   3.284   5.641   3.135 -1.5116 -0.3642  0.5847
 3745TIP3   OH232649   1.907   1.379  15.392 -0.0929 -0.5020 -0.1280
 3745TIP3    H132650   1.891   1.285  15.391 -2.4323 -0.1756  0.6538
 3745TIP3    H232651   1.879   1.407  15.479  0.4425  0.9372 -0.3915
 3746TIP3   OH232652   1.042   2.544  15.955 -0.2384  0.4040 -0.0815
 3746TIP3    H132653   1.087   2.489  16.019 -0.0487  0.7241  0.0613
 3746TIP3    H232654   1.099   2.542  15.878 -0.6967 -0.3590 -0.4093
 3747TIP3   OH232655   0.966   1.032  14.186 -0.2760  0.1584  0.1096
 3747TIP3    H132656   1.007   1.029  14.272 -0.4987  1.0578  0.2574
 3747TIP3    H232657   1.039   1.031  14.124 -0.1335 -1.2338  0.2697
 3748TIP3   OH232658   1.722   1.621   5.176  0.0179  0.2450 -0.1763
 3748TIP3    H132659   1.703   1.677   5.252 -0.6189 -1.4525  0.9730
 3748TIP3    H232660   1.788   1.560   5.208  0.0114 -0.2610 -1.1113
 3749TIP3   OH232661   2.007   2.746   1.748 -0.1772  0.0414 -0.3736
 3749TIP3    H132662   2.040   2.691   1.677  1.9105  1.6116 -0.7153
 3749TIP3    H232663   2.054   2.716   1.826  3.2371  2.9345 -1.0312
 3750TIP3   OH232664   4.656   6.096   5.100 -0.4255 -0.3189 -0.3170
 3750TIP3    H132665   4.746   6.090   5.067  0.2150  0.2375  1.2033
 3750TIP3    H232666   4.607   6.140   5.031  0.3994 -0.9077 -1.3005
 3751TIP3   OH232667   2.234   0.171   4.680 -0.4561 -0.4548 -0.2486
 3751TIP3    H132668   2.275   0.235   4.738 -0.0911  0.6749 -1.6875
 3751TIP3    H232669   2.304   0.107   4.662 -0.3071 -0.3175 -0.1625
 3752TIP3   OH232670   3.005   5.832   4.128  0.6361 -0.3223 -0.7955
 3752TIP3    H132671   3.029   5.740   4.115 -1.3217 -1.0940  0.5494
 3752TIP3    H232672   2.942   5.850   4.058 -1.8732 -1.2463  1.0920
 3753TIP3   OH232673   2.027   1.227  15.601  0.1793  0.3378  0.4498
 3753TIP3    H132674   1.942   1.188  15.623  0.3162 -2.0759 -2.7081
 3753TIP3    H232675   2.081   1.212  15.678 -1.1063 -1.8289  1.0117
 3754TIP3   OH232676   6.289   5.099   0.014  0.3494  0.9252  0.3758
 3754TIP3    H132677   6.314   5.150   0.091 -0.0734  2.0641 -0.2304
 3754TIP3    H232678   6.365   5.103  -0.043  0.4159  0.6304  0.4390
 3755TIP3   OH232679   3.877   0.833   3.037  0.1642 -0.0109 -0.5363
 3755TIP3    H132680   3.861   0.768   3.105 -1.2040  0.9453  0.1120
 3755TIP3    H232681   3.922   0.905   3.082 -2.1400  1.3204 -0.1822
 3756TIP3   OH232682   5.714   1.181  13.661  0.0033  0.5080  0.0876
 3756TIP3    H132683   5.746   1.271  13.668 -0.8491  0.8772 -0.5886
 3756TIP3    H232684   5.640   1.187  13.601  1.0449 -0.9160 -1.4332
 3757TIP3   OH232685   0.257   2.159   4.576  0.5427 -0.0077  0.0610
 3757TIP3    H132686   0.303   2.219   4.634 -0.2496  0.2231  0.4550
 3757TIP3    H232687   0.320   2.088   4.560  0.4548 -0.5377  1.9203
 3758TIP3   OH232688   2.514   0.877   3.574 -0.3542  0.2152 -0.3607
 3758TIP3    H132689   2.601   0.902   3.604 -0.1665  0.4707 -1.0883
 3758TIP3    H232690   2.530   0.816   3.502 -0.6465  2.5779 -2.5979
 3759TIP3   OH232691   0.700   6.081  13.626 -0.0472  0.7828 -0.2590
 3759TIP3    H132692   0.759   6.144  13.585  0.8924  0.2019  0.1713
 3759TIP3    H232693   0.656   6.130  13.695 -0.0001  1.1884 -0.5122
 3760TIP3   OH232694   1.644   2.779  10.809 -0.6346 -0.3391  0.3288
 3760TIP3    H132695   1.567   2.722  10.803 -1.2517  0.4893  0.1811
 3760TIP3    H232696   1.719   2.719  10.805 -1.2696 -1.1536  0.4340
 3761TIP3   OH232697   4.998   1.401  13.563 -0.2697 -0.4905  0.4355
 3761TIP3    H132698   4.957   1.423  13.647 -0.1708  1.8150 -0.0598
 3761TIP3    H232699   4.965   1.467  13.502  2.8891  0.5205 -0.3771
 3762TIP3   OH232700   6.020   1.185  11.307  0.1911 -0.1255  0.1788
 3762TIP3    H132701   6.042   1.106  11.258  0.5783 -1.0796  1.7919
 3762TIP3    H232702   5.983   1.152  11.389 -2.2992  1.4046 -0.2193
 3763TIP3   OH232703   4.975   2.297   1.600 -0.3143 -0.5496  0.1353
 3763TIP3    H132704   5.030   2.328   1.671 -1.5514 -1.2107  1.4410
 3763TIP3    H232705   4.943   2.377   1.558  0.9366 -0.1602 -0.1163
 3764TIP3   OH232706   3.274   5.218  13.393 -0.6029  0.2753  0.5859
 3764TIP3    H132707   3.349   5.245  13.340 -0.7892  1.0267  0.6859
 3764TIP3    H232708   3.298   5.132  13.428 -0.3111 -0.0407 -0.3762
 3765TIP3   OH232709   0.509   5.030   1.531  0.3775 -0.6607  0.7072
 3765TIP3    H132710   0.515   4.993   1.442  1.4884 -2.6924  1.5430
 3765TIP3    H232711   0.570   5.103   1.530  1.2639 -1.3730  0.0799
 3766TIP3   OH232712   5.474   6.510  16.842 -0.2901 -0.3406  0.0831
 3766TIP3    H132713   5.425   6.441  16.798  0.7132 -1.8016  1.1338
 3766TIP3    H232714   5.496   6.473  16.927  1.4097  0.7864  0.1884
 3767TIP3   OH232715   0.183   2.513  17.279 -0.1668  0.5039 -0.4183
 3767TIP3    H132716   0.189   2.428  17.324  1.9764  0.9358  0.2195
 3767TIP3    H232717   0.184   2.578  17.349  0.9029  1.1215 -0.9747
 3768TIP3   OH232718   1.956   2.400   3.771 -0.2733 -0.4218 -0.0931
 3768TIP3    H132719   2.035   2.408   3.718 -0.3579 -0.4261 -0.2211
 3768TIP3    H232720   1.888   2.442   3.720 -0.1639  0.4186  0.4379
 3769TIP3   OH232721   5.756   2.330  11.841 -0.3930 -0.8230  0.5478
 3769TIP3    H132722   5.789   2.245  11.869  1.0119 -0.3707  0.3547
 3769TIP3    H232723   5.758   2.384  11.920 -0.1887 -0.6506  0.4258
 3770TIP3   OH232724   6.650   4.440   1.403 -0.0469 -0.1173  0.3561
 3770TIP3    H132725   6.726   4.498   1.412  0.5129 -0.8089  0.1825
 3770TIP3    H232726   6.629   4.442   1.309  0.8799 -1.2930  0.0950
 3771TIP3   OH232727   3.208   1.151   1.597 -0.6355 -0.1318  0.4801
 3771TIP3    H132728   3.164   1.107   1.524  0.9216  0.0630 -0.6071
 3771TIP3    H232729   3.196   1.091   1.671  0.0376 -1.6441 -0.5771
 3772TIP3   OH232730   6.169   6.607   0.651  0.1141 -0.5344 -0.4339
 3772TIP3    H132731   6.183   6.697   0.680  2.7570 -1.3090  1.1233
 3772TIP3    H232732   6.166   6.612   0.555 -1.3066  1.3227 -0.3358
 3773TIP3   OH232733   6.503   5.659  15.088  0.3969  0.1251  0.0282
 3773TIP3    H132734   6.541   5.699  15.010  2.7740 -0.4266  0.8264
 3773TIP3    H232735   6.551   5.577  15.099  0.2185  0.2587  2.1541
 3774TIP3   OH232736   5.207   4.440  14.463 -0.6626 -0.2146  0.0177
 3774TIP3    H132737   5.126   4.428  14.511 -0.9429  0.7863 -0.1851
 3774TIP3    H232738   5.180   4.472  14.376 -0.2088 -2.5350 -1.0597
 3775TIP3   OH232739   5.880   5.819  13.285 -0.2096  0.3201  0.3288
 3775TIP3    H132740   5.909   5.782  13.201 -2.1498 -1.0678  0.1889
 3775TIP3    H232741   5.818   5.755  13.319  0.5005  0.8606  2.8635
 3776TIP3   OH232742   2.440   3.588   1.034 -0.4863  0.0113 -0.0974
 3776TIP3    H132743   2.439   3.494   1.051 -0.4314 -0.0343 -0.3444
 3776TIP3    H232744   2.528   3.606   1.004 -0.5248  0.1257 -0.1415
 3777TIP3   OH232745   0.765   5.850  16.837  0.1151 -0.5729  0.2846
 3777TIP3    H132746   0.845   5.877  16.881  0.7670 -0.7187 -0.7804
 3777TIP3    H232747   0.794   5.783  16.774 -0.5879  0.4937 -1.2244
 3778TIP3   OH232748   6.679   5.767  11.477  0.8000  0.1308 -0.0208
 3778TIP3    H132749   6.681   5.853  11.520 -1.2317 -0.5189  1.5223
 3778TIP3    H232750   6.608   5.720  11.520  0.1303 -1.4302 -2.6006
 3779TIP3   OH232751   0.868   4.160  14.576 -0.0258  0.0366  0.0443
 3779TIP3    H132752   0.951   4.138  14.618 -0.7612  0.8868  2.0467
 3779TIP3    H232753   0.826   4.075  14.560 -0.3881 -0.3099  2.5120
 3780TIP3   OH232754   3.988   5.768   0.869  0.3092  0.3385 -0.0892
 3780TIP3    H132755   3.895   5.767   0.890  0.3597 -2.0075  0.2976
 3780TIP3    H232756   3.994   5.725   0.784  1.0547 -0.0942  0.1686
 3781TIP3   OH232757   5.969   4.003   2.584 -0.0676 -0.0400 -0.3465
 3781TIP3    H132758   5.952   4.094   2.607  0.5885  0.4560 -1.6746
 3781TIP3    H232759   6.060   4.002   2.554  0.1219 -1.2548  0.2112
 3782TIP3   OH232760   2.190   5.268   4.496  0.2976 -0.3004  0.1886
 3782TIP3    H132761   2.148   5.201   4.442  0.6831  1.3117 -2.2730
 3782TIP3    H232762   2.118   5.313   4.539 -0.4800  1.2556 -2.5590
 3783TIP3   OH232763   6.096   4.810   0.655 -0.0947 -0.0200 -0.7439
 3783TIP3    H132764   6.042   4.762   0.593 -2.7578 -0.0447  1.3885
 3783TIP3    H232765   6.101   4.899   0.619 -0.2456 -0.4030 -1.7333
 3784TIP3   OH232766   1.743   3.066  12.115 -0.8463 -0.3314 -0.7243
 3784TIP3    H132767   1.777   3.149  12.081 -0.7713  0.0512  0.2574
 3784TIP3    H232768   1.805   3.039  12.182 -0.2447 -1.8041 -1.8331
 3785TIP3   OH232769   1.589   2.145  12.231 -0.0745 -0.2599  0.5204
 3785TIP3    H132770   1.679   2.175  12.243 -0.1106 -0.0846  0.3467
 3785TIP3    H232771   1.582   2.066  12.286 -0.2542  0.5706  1.7224
 3786TIP3   OH232772   1.377   0.824   1.960  0.1696  0.0629  0.3344
 3786TIP3    H132773   1.465   0.862   1.966  1.0019 -1.7545  0.4438
 3786TIP3    H232774   1.331   0.857   2.037  0.5050  1.5887 -0.0856
 3787TIP3   OH232775   6.620   0.312   6.732  0.3120 -0.4877 -0.6053
 3787TIP3    H132776   6.542   0.342   6.684 -1.0908 -1.4892  0.9682
 3787TIP3    H232777   6.675   0.271   6.665 -0.0969  0.9543 -1.8889
 3788TIP3   OH232778   0.820   5.090  12.480 -0.2544 -0.0624  0.1974
 3788TIP3    H132779   0.813   4.998  12.505 -2.1418 -0.4601 -1.5174
 3788TIP3    H232780   0.776   5.096  12.395 -1.1419  2.6166  0.7207
 3789TIP3   OH232781   0.627   4.326   3.984  0.3085 -0.0625 -0.4252
 3789TIP3    H132782   0.534   4.320   3.964  0.1054  0.7352  0.2084
 3789TIP3    H232783   0.645   4.250   4.040  0.4120 -1.1082 -1.8301
 3790TIP3   OH232784   5.707   6.634   3.679 -0.0703  0.5186 -0.2955
 3790TIP3    H132785   5.648   6.690   3.728  0.7749  0.5195  0.7464
 3790TIP3    H232786   5.712   6.553   3.729  1.3829  0.7913  0.0575
 3791TIP3   OH232787   2.344   4.019  15.186  0.1845 -0.5997  0.0089
 3791TIP3    H132788   2.327   4.034  15.279 -1.7245 -3.1670  0.1730
 3791TIP3    H232789   2.388   3.934  15.183 -1.6487 -1.5661 -1.4940
 3792TIP3   OH232790   2.541   1.056   1.320  0.1156 -0.0233 -0.2350
 3792TIP3    H132791   2.471   1.023   1.376  1.0696  0.3401  1.2533
 3792TIP3    H232792   2.549   0.992   1.250 -1.0658 -0.5556  0.0994
 3793TIP3   OH232793   4.982   0.389   0.322  0.0010 -0.1678 -0.3122
 3793TIP3    H132794   5.048   0.456   0.343 -0.9978  0.9402 -0.6108
 3793TIP3    H232795   4.978   0.334   0.400 -0.7979  1.5223  0.8974
 3794TIP3   OH232796   0.932   6.247   4.482 -0.0651  0.1531 -0.2569
 3794TIP3    H132797   0.916   6.324   4.427 -1.2898  0.7070  0.8303
 3794TIP3    H232798   0.887   6.266   4.564  1.8870 -0.5648  1.0481
 3795TIP3   OH232799   5.155   6.588   5.829  0.0185 -0.4150 -0.5697
 3795TIP3    H132800   5.095   6.620   5.762 -0.0716 -2.3550 -1.4619
 3795TIP3    H232801   5.159   6.659   5.893  0.7139  1.8224 -2.9610
 3796TIP3   OH232802   0.646   5.334   2.554  0.6558 -0.1081  0.1376
 3796TIP3    H132803   0.586   5.275   2.508  0.7254 -0.2271  0.1997
 3796TIP3    H232804   0.731   5.318   2.514  1.1349 -1.7001  1.6569
 3797TIP3   OH232805   1.441   5.131   3.249  0.9959  0.5392 -0.2110
 3797TIP3    H132806   1.512   5.158   3.191  0.1966  0.9850 -1.0175
 3797TIP3    H232807   1.362   5.140   3.195  0.4701 -1.3585  0.1791
 3798TIP3   OH232808   4.153   5.168  16.162 -0.5105 -0.0242 -0.2586
 3798TIP3    H132809   4.090   5.208  16.222 -3.3247 -1.4916 -2.0623
 3798TIP3    H232810   4.167   5.080  16.197  0.9053  0.3949  0.3177
 3799TIP3   OH232811   6.237   1.419   4.351 -0.3436  0.0856  0.1560
 3799TIP3    H132812   6.296   1.415   4.275  0.2676  1.1846  0.5540
 3799TIP3    H232813   6.274   1.355   4.412 -0.7245 -0.6637 -0.3853
 3800TIP3   OH232814   3.245   1.228   3.331  0.3249  0.3854 -0.4988
 3800TIP3    H132815   3.255   1.133   3.328  0.4252  0.3990 -0.6096
 3800TIP3    H232816   3.324   1.262   3.289 -0.7284  0.4695 -2.5646
 3801TIP3   OH232817   2.031   6.684   5.901  0.1477  0.1791 -0.4250
 3801TIP3    H132818   2.061   6.715   5.987  1.6447  1.6464 -1.4235
 3801TIP3    H232819   2.005   6.593   5.917  0.4914  0.3702  1.5463
 3802TIP3   OH232820   1.069   1.599  13.422  0.3463  0.3745 -0.2395
 3802TIP3    H132821   1.086   1.621  13.330  0.6522  1.3360  0.0316
 3802TIP3    H232822   0.973   1.604  13.430  0.1608 -1.4679 -0.9065
 3803TIP3   OH232823   0.322   1.612  14.561  0.0692  0.0407  0.1395
 3803TIP3    H132824   0.247   1.595  14.618  0.1297  0.7562  0.4474
 3803TIP3    H232825   0.287   1.668  14.491 -0.0787 -1.1029 -0.7290
 3804TIP3   OH232826   4.982   6.539   4.922  0.3895 -0.5884  0.5143
 3804TIP3    H132827   4.951   6.556   4.833  1.1596  0.5898  0.4512
 3804TIP3    H232828   4.936   6.459   4.948 -0.6969 -0.3413 -0.5206
 3805TIP3   OH232829   3.404   3.491  12.208  0.4815 -0.1509 -0.3143
 3805TIP3    H132830   3.389   3.397  12.215  0.0802 -0.0939 -0.3630
 3805TIP3    H232831   3.415   3.521  12.298  0.7662 -0.2661 -0.3073
 3806TIP3   OH232832   3.958   2.793   4.684  0.2769 -0.2093 -0.6172
 3806TIP3    H132833   3.906   2.827   4.756  0.7828 -1.6308  0.4794
 3806TIP3    H232834   3.911   2.714   4.656  0.4781 -0.0774 -1.3437
 3807TIP3   OH232835   1.025   3.930  13.162  0.0889  0.0422  0.2769
 3807TIP3    H132836   1.082   3.890  13.097  0.3508 -0.1440  0.6220
 3807TIP3    H232837   1.025   3.869  13.235 -0.3890  0.1391  0.3622
 3808TIP3   OH232838   5.572   3.129   5.848  0.8080  0.4365  0.2228
 3808TIP3    H132839   5.636   3.130   5.919  0.9459  4.1639  0.2558
 3808TIP3    H232840   5.620   3.095   5.772  1.3435 -1.3329  1.3097
 3809TIP3   OH232841   1.678   3.385   0.857  0.3149  0.0585  0.0424
 3809TIP3    H132842   1.701   3.316   0.795  0.4124  0.9565 -0.9353
 3809TIP3    H232843   1.651   3.337   0.936 -0.9239 -1.1233 -1.0496
 3810TIP3   OH232844   1.641   1.808   5.522  0.0201 -0.3913 -0.8650
 3810TIP3    H132845   1.607   1.721   5.503 -0.5105 -0.7245  1.3890
 3810TIP3    H232846   1.619   1.824   5.614  1.1981  1.6185 -0.8605
 3811TIP3   OH232847   3.002   2.339  14.961  0.1294 -0.0790 -0.0065
 3811TIP3    H132848   3.037   2.359  15.048  1.0011 -2.6342  0.3074
 3811TIP3    H232849   3.079   2.327  14.906 -0.3999  0.4687 -0.8879
 3812TIP3   OH232850   4.637   0.083   0.335  0.3383  0.0846  0.2141
 3812TIP3    H132851   4.565   0.029   0.369  0.5058 -0.9025 -0.9454
 3812TIP3    H232852   4.715   0.047   0.378  0.3124  0.2187  0.3763
 3813TIP3   OH232853   1.951   0.012   6.482 -0.4433 -0.5772  0.2631
 3813TIP3    H132854   1.919   0.046   6.566 -2.4201  2.5093 -1.4997
 3813TIP3    H232855   2.040   0.045   6.475 -0.3562 -0.6391  1.0454
 3814TIP3   OH232856   4.480   4.078  16.133  0.4000  0.3243 -0.2340
 3814TIP3    H132857   4.511   4.083  16.042  0.1836  1.1077 -0.2719
 3814TIP3    H232858   4.458   4.168  16.155  0.5209  0.1464  0.6282
 3815TIP3   OH232859   0.516   3.833   1.993  0.3473 -0.1755 -0.0001
 3815TIP3    H132860   0.609   3.818   1.973  0.0787 -3.0502  0.3944
 3815TIP3    H232861   0.510   3.818   2.087 -0.2369  2.1631  0.3974
 3816TIP3   OH232862   4.690   1.468   0.008 -0.1770  0.2736  0.2119
 3816TIP3    H132863   4.632   1.523  -0.044  0.5755  0.0482 -0.9133
 3816TIP3    H232864   4.701   1.516   0.090 -1.2358  0.7429  0.0966
 3817TIP3   OH232865   2.827   5.503  17.077 -0.4363  0.0460 -0.3355
 3817TIP3    H132866   2.885   5.430  17.053 -0.8005 -0.7501  1.0573
 3817TIP3    H232867   2.761   5.462  17.133 -0.8803  1.3900  0.1406
 3818TIP3   OH232868   3.903   4.347   2.734 -0.0732 -0.2321  0.3198
 3818TIP3    H132869   3.984   4.312   2.697  0.4867 -0.6858  1.9048
 3818TIP3    H232870   3.931   4.412   2.798 -0.9494 -0.4864  0.9826
 3819TIP3   OH232871   6.533   2.221  13.730  0.6246  0.5570  0.8670
 3819TIP3    H132872   6.486   2.257  13.655  1.4628  0.1274  0.1001
 3819TIP3    H232873   6.576   2.142  13.695 -0.1649 -0.4905  2.1779
 3820TIP3   OH232874   4.349   6.634  11.509 -0.3090 -0.0648  0.2103
 3820TIP3    H132875   4.362   6.585  11.428 -1.0582 -0.6886  0.4541
 3820TIP3    H232876   4.421   6.697  11.511 -0.5100  0.2530 -1.1535
 3821TIP3   OH232877   2.778   2.391  11.655  0.0293 -0.3123 -0.4689
 3821TIP3    H132878   2.858   2.436  11.625  0.8511 -1.6234 -0.3272
 3821TIP3    H232879   2.770   2.415  11.747  0.0582  0.1021 -0.5728
 3822TIP3   OH232880   3.314   0.047   5.346  0.0500  0.6276  0.4345
 3822TIP3    H132881   3.233   0.072   5.302 -0.3163 -1.3060 -0.0880
 3822TIP3    H232882   3.381   0.050   5.278  0.2978  1.5476  0.7062
 3823TIP3   OH232883   0.038   0.746  16.795  0.1361  0.4747  0.4838
 3823TIP3    H132884   0.047   0.805  16.870  1.1817  0.3689  0.4511
 3823TIP3    H232885   0.076   0.795  16.722 -0.1283  0.2492  0.1930
 3824TIP3   OH232886   4.872   6.619  14.623  0.1492  0.1014  0.0278
 3824TIP3    H132887   4.867   6.687  14.555 -2.5680  0.3684  0.3816
 3824TIP3    H232888   4.842   6.662  14.703  0.0082 -1.0977  0.6483
 3825TIP3   OH232889   2.867   5.017   0.431  0.2968 -0.3574 -0.2974
 3825TIP3    H132890   2.776   5.019   0.402  0.2133 -1.9200 -0.2159
 3825TIP3    H232891   2.897   4.929   0.411  1.7863  0.1115 -0.2561
 3826TIP3   OH232892   1.026   1.797   1.901 -0.1909  0.1347 -0.2663
 3826TIP3    H132893   0.996   1.884   1.926  0.2385  0.3462 -0.4721
 3826TIP3    H232894   1.112   1.788   1.943 -0.5164 -0.4431  0.2830
 3827TIP3   OH232895   0.086   6.754  14.728 -0.6598 -0.0120  0.5580
 3827TIP3    H132896   0.127   6.680  14.773 -1.3707 -0.4051  0.5875
 3827TIP3    H232897   0.074   6.820  14.797 -1.5328 -0.5226  0.9112
 3828TIP3   OH232898   4.285   3.505   6.026 -0.1620  0.3589  0.4452
 3828TIP3    H132899   4.283   3.549   6.111 -0.7009  0.6996  0.2606
 3828TIP3    H232900   4.248   3.418   6.044  0.3875  0.1709  0.6961
 3829TIP3   OH232901   5.209   5.316  14.094  0.3424  0.4863 -0.5527
 3829TIP3    H132902   5.131   5.354  14.135 -0.2247  0.7160 -1.8109
 3829TIP3    H232903   5.280   5.373  14.124  0.0985  0.0887  0.8647
 3830TIP3   OH232904   6.015   1.095   6.216 -0.4734 -0.0858 -0.7387
 3830TIP3    H132905   5.951   1.163   6.196  0.9552  0.9133 -2.0606
 3830TIP3    H232906   6.100   1.138   6.212  0.3427 -1.4264  0.7923
 3831TIP3   OH232907   6.407   2.238  13.157  0.8175 -0.5531 -0.3917
 3831TIP3    H132908   6.483   2.283  13.119  2.3863  0.0733  3.0612
 3831TIP3    H232909   6.352   2.308  13.191  0.2093 -1.0924 -0.2415
 3832TIP3   OH232910   5.503   3.490  15.180  0.1516  0.3361 -0.4310
 3832TIP3    H132911   5.487   3.404  15.220  1.6318  0.6322  0.8901
 3832TIP3    H232912   5.562   3.534  15.241  1.1642  1.4750 -2.1630
 3833TIP3   OH232913   5.403   1.366   6.217  0.0106 -0.6172  0.4515
 3833TIP3    H132914   5.488   1.408   6.201  0.3573 -2.1337 -2.5578
 3833TIP3    H232915   5.402   1.292   6.157 -2.2577 -2.4687  2.5518
 3834TIP3   OH232916   5.871   6.620   1.459 -0.0701 -0.1734  0.2096
 3834TIP3    H132917   5.807   6.652   1.396  1.6153  0.5678 -1.2242
 3834TIP3    H232918   5.936   6.574   1.406  1.9843  1.3947  1.1893
 3835TIP3   OH232919   1.690   6.425   6.547  0.2567 -0.0859  0.0526
 3835TIP3    H132920   1.612   6.374   6.525  0.8291 -0.5990 -0.8451
 3835TIP3    H232921   1.744   6.364   6.598  1.1184 -0.5290 -1.3548
 3836TIP3   OH232922   0.818   2.160   4.249  0.1054 -0.0471  0.0646
 3836TIP3    H132923   0.866   2.138   4.169 -1.0419 -1.9730 -0.1584
 3836TIP3    H232924   0.875   2.222   4.295  1.7062 -0.4364 -1.2899
 3837TIP3   OH232925   0.950   6.725  15.890  0.2644  0.2374 -0.0636
 3837TIP3    H132926   0.869   6.676  15.906 -0.4617  0.7291 -2.0518
 3837TIP3    H232927   1.018   6.671  15.930 -0.3832 -2.9305 -2.7850
 3838TIP3   OH232928   5.560   6.409  11.666  0.0463 -0.1628  0.5913
 3838TIP3    H132929   5.537   6.317  11.677  0.7417 -0.3075  0.8571
 3838TIP3    H232930   5.479   6.457  11.685 -0.9481 -0.7979 -1.6345
 3839TIP3   OH232931   2.743   6.742   3.709  0.0216 -0.3078  0.2896
 3839TIP3    H132932   2.832   6.718   3.681 -0.1312  0.4029 -0.8648
 3839TIP3    H232933   2.741   6.838   3.703 -0.1239 -0.1174  2.5274
 3840TIP3   OH232934   3.935   3.285  16.941  0.4443 -0.3248 -0.1462
 3840TIP3    H132935   4.000   3.350  16.915  1.2646 -1.2251 -0.4194
 3840TIP3    H232936   3.987   3.213  16.979 -0.5702  0.0521  2.1084
 3841TIP3   OH232937   2.839   2.917   6.325  0.1729 -0.0005  0.2677
 3841TIP3    H132938   2.808   2.970   6.251 -0.4254 -1.4880 -0.5937
 3841TIP3    H232939   2.824   2.827   6.297 -2.7452 -0.6320  3.3403
 3842TIP3   OH232940   3.302   3.836   5.738  0.4717 -0.5416 -0.0209
 3842TIP3    H132941   3.228   3.789   5.699  0.6831  0.2160 -1.3975
 3842TIP3    H232942   3.374   3.824   5.675  0.6732  1.1632 -0.1612
 3843TIP3   OH232943   0.061   5.502  16.664 -0.3637 -0.2195  0.2500
 3843TIP3    H132944   0.027   5.577  16.712  0.8994  2.2764 -2.4300
 3843TIP3    H232945  -0.011   5.440  16.661 -1.9801  1.5090  1.3539
 3844TIP3   OH232946   1.564   4.177   1.761  0.1332  0.3023  0.0049
 3844TIP3    H132947   1.604   4.190   1.675 -0.5651 -0.5355 -0.4558
 3844TIP3    H232948   1.474   4.149   1.742 -0.8542  2.5734  1.0232
 3845TIP3   OH232949   4.442   0.122  10.780  0.1411  0.2540  0.3812
 3845TIP3    H132950   4.485   0.042  10.808 -2.2235 -1.3838 -0.3415
 3845TIP3    H232951   4.435   0.175  10.859 -2.0537 -2.1448  1.9475
 3846TIP3   OH232952   1.918   4.501  16.337  0.0332  0.1139  0.6710
 3846TIP3    H132953   2.002   4.502  16.382  0.2739 -2.9280  0.4537
 3846TIP3    H232954   1.930   4.561  16.263  2.3093 -0.8154  0.2037
 3847TIP3   OH232955   2.575   0.823  14.215  0.1405 -0.4580 -0.9186
 3847TIP3    H132956   2.487   0.800  14.185  0.1816  0.4296 -1.7960
 3847TIP3    H232957   2.564   0.844  14.308 -0.6901  0.1295 -1.1304
 3848TIP3   OH232958   4.393   1.277  12.799  0.2719 -0.8180 -0.0948
 3848TIP3    H132959   4.417   1.335  12.727 -0.4839 -0.1986  0.1346
 3848TIP3    H232960   4.471   1.224  12.815  1.4045  0.9373  0.4654
 3849TIP3   OH232961   5.262   3.001  11.980  0.0294 -0.1650 -0.1689
 3849TIP3    H132962   5.321   3.073  12.002  1.4927 -1.3351 -0.0947
 3849TIP3    H232963   5.198   2.999  12.052  1.4190 -0.4432  1.0938
 3850TIP3   OH232964   4.760   1.061  13.993 -0.9964 -0.0052 -0.2041
 3850TIP3    H132965   4.847   1.022  13.990 -1.9499 -2.2098 -0.7739
 3850TIP3    H232966   4.753   1.099  14.081  1.2498  2.0912 -0.8318
 3851TIP3   OH232967   2.625   2.019   4.507 -0.3767 -1.0958  0.1096
 3851TIP3    H132968   2.613   1.933   4.467  0.6188 -1.1747 -0.0429
 3851TIP3    H232969   2.657   2.075   4.436 -1.0585 -0.5795  0.1975
 3852TIP3   OH232970   6.094   6.177  13.053 -0.4863  0.2206  0.2110
 3852TIP3    H132971   6.131   6.201  13.138 -0.2610 -2.3625  0.8980
 3852TIP3    H232972   6.045   6.097  13.070  0.6288 -1.0831 -2.3379
 3853TIP3   OH232973   0.477   5.667   2.060  0.2231  0.0261 -0.5568
 3853TIP3    H132974   0.571   5.656   2.048  0.2427 -0.8954  0.2779
 3853TIP3    H232975   0.447   5.583   2.096 -0.5814  0.9449  1.0476
 3854TIP3   OH232976   0.957   6.130   6.411  0.0453  0.2122  0.2178
 3854TIP3    H132977   0.964   6.036   6.428  3.8446 -0.1070 -1.9312
 3854TIP3    H232978   0.874   6.140   6.365 -1.1063 -1.7959  1.6649
 3855TIP3   OH232979   3.126   0.886  11.508 -0.0320 -0.4041 -0.2260
 3855TIP3    H132980   3.190   0.890  11.437 -0.3918 -0.2590 -0.5412
 3855TIP3    H232981   3.180   0.877  11.587  0.4298  0.6543 -0.3943
 3856TIP3   OH232982   0.879   4.540   0.298 -1.5515  0.3196  0.5957
 3856TIP3    H132983   0.802   4.596   0.285 -2.2593 -0.8632 -0.5922
 3856TIP3    H232984   0.849   4.453   0.273  0.5892  0.0567 -1.4079
 3857TIP3   OH232985   0.265   6.455  15.111 -0.5170 -0.6527 -0.1779
 3857TIP3    H132986   0.284   6.373  15.065 -1.5115 -0.6324 -0.6323
 3857TIP3    H232987   0.173   6.448  15.136 -0.8906  0.7301 -1.0888
 3858TIP3   OH232988   4.693   4.368  11.206  0.1996  0.3782  0.1723
 3858TIP3    H132989   4.640   4.444  11.183 -0.1827  0.1478  0.2943
 3858TIP3    H232990   4.775   4.380  11.158 -1.4212 -1.2744 -3.3128
 3859TIP3   OH232991   4.249   2.505   5.170  0.0035  0.3796  0.0068
 3859TIP3    H132992   4.201   2.568   5.225  0.0807 -0.8625  1.5815
 3859TIP3    H232993   4.243   2.423   5.219  3.4676  0.0681  0.1426
 3860TIP3   OH232994   4.619   0.353   4.000  0.1415 -0.4038 -0.2968
 3860TIP3    H132995   4.536   0.310   4.018  0.4941 -1.2991 -0.7414
 3860TIP3    H232996   4.666   0.352   4.083  0.1718 -0.9387 -0.3202
 3861TIP3   OH232997   3.574   3.936  14.194 -0.3835 -0.2278 -0.2002
 3861TIP3    H132998   3.483   3.928  14.221  0.0675 -2.2843  0.9278
 3861TIP3    H232999   3.579   3.886  14.112 -0.3058  0.0436 -0.3615
 3862TIP3   OH233000   0.057   2.488   4.162  0.0480  0.2218 -0.4866
 3862TIP3    H133001   0.069   2.432   4.238  0.1624  0.2010 -0.5207
 3862TIP3    H233002   0.113   2.451   4.094  0.2595  0.4788 -0.4538
 3863TIP3   OH233003   0.904   1.894   4.329  0.0187 -0.3117 -0.1700
 3863TIP3    H133004   0.872   1.982   4.310 -2.0488 -0.8059  0.7371
 3863TIP3    H233005   0.862   1.839   4.263  1.9122 -0.5642 -1.2232
 3864TIP3   OH233006   6.563   2.066   2.456 -0.3701  0.2453 -0.1835
 3864TIP3    H133007   6.562   2.149   2.505  2.5846  0.6552 -0.6435
 3864TIP3    H233008   6.623   2.010   2.505 -1.9661 -1.5369 -0.1495
 3865TIP3   OH233009   3.321   0.084  15.702 -0.2001 -0.1918  0.2951
 3865TIP3    H133010   3.362   0.039  15.627 -1.0460 -0.7257  0.1373
 3865TIP3    H233011   3.258   0.144  15.662 -0.2720 -0.0877  0.5671
 3866TIP3   OH233012   4.400   1.566  16.580 -0.1492  0.1435 -0.6095
 3866TIP3    H133013   4.306   1.551  16.583 -0.1230 -0.0047 -0.5086
 3866TIP3    H233014   4.437   1.479  16.562  0.1569 -0.4087  2.1719
 3867TIP3   OH233015   6.198   0.385   2.836  0.5002 -0.2915 -0.2567
 3867TIP3    H133016   6.273   0.423   2.882 -0.4857 -0.1163  1.2931
 3867TIP3    H233017   6.187   0.298   2.875  0.6367 -0.8188 -1.3553
 3868TIP3   OH233018   6.021   4.374  14.624  0.1234  0.1683 -0.0866
 3868TIP3    H133019   6.082   4.306  14.596 -0.8352  0.0890 -2.1502
 3868TIP3    H233020   5.956   4.327  14.677  0.9826 -0.0005  0.8535
 3869TIP3   OH233021   6.544   0.827   1.663 -0.0444 -0.4717 -0.4623
 3869TIP3    H133022   6.531   0.774   1.741  0.3328  1.3978  0.9370
 3869TIP3    H233023   6.459   0.868   1.647  0.2578  0.2755 -0.1617
 3870TIP3   OH233024   5.213   3.641  13.485 -0.0587 -0.1694  0.6110
 3870TIP3    H133025   5.210   3.548  13.508 -2.8630  0.0419  1.4242
 3870TIP3    H233026   5.250   3.684  13.562 -0.0815 -0.4733  0.7913
 3871TIP3   OH233027   2.198   1.138  11.285 -0.2673  0.1490 -0.0090
 3871TIP3    H133028   2.145   1.164  11.360 -0.2784  0.4460 -0.1170
 3871TIP3    H233029   2.149   1.171  11.209 -0.7961 -1.0585 -0.2214
 3872TIP3   OH233030   0.281   3.006  16.169  0.0045 -0.2845  0.5786
 3872TIP3    H133031   0.348   2.958  16.121 -0.0159  1.0606 -0.8982
 3872TIP3    H233032   0.236   3.057  16.101 -1.0737  0.4794  1.8372
 3873TIP3   OH233033   3.651   6.377  13.808  0.1456  0.3993 -0.3268
 3873TIP3    H133034   3.704   6.398  13.884 -0.9972 -3.0775  1.6208
 3873TIP3    H233035   3.713   6.346  13.742  0.8707  0.1387  0.4692
 3874TIP3   OH233036   2.113   2.622  13.523 -0.3734 -0.5481  0.3119
 3874TIP3    H133037   2.184   2.670  13.480 -0.4417 -0.6829  0.0465
 3874TIP3    H233038   2.061   2.689  13.566 -0.8696 -0.3093 -0.6435
 3875TIP3   OH233039   2.127   4.478  17.147 -0.4375 -0.3894  0.3270
 3875TIP3    H133040   2.117   4.562  17.192  2.3088 -1.2910  2.9284
 3875TIP3    H233041   2.052   4.473  17.088 -0.1489  4.3850 -0.8436
 3876TIP3   OH233042   1.069   5.659   4.877  0.0751 -0.1877 -0.9355
 3876TIP3    H133043   0.977   5.640   4.856 -0.5238  1.2394  0.1764
 3876TIP3    H233044   1.105   5.695   4.796 -0.5476 -0.1136 -1.1866
 3877TIP3   OH233045   4.475   0.617   2.069 -0.6618 -0.1552  0.3700
 3877TIP3    H133046   4.496   0.660   2.151 -0.0687 -0.3919  0.3458
 3877TIP3    H233047   4.421   0.681   2.022 -3.0007 -0.9041  1.8835
 3878TIP3   OH233048   0.843   2.643   5.190 -0.4941 -0.0595  0.4965
 3878TIP3    H133049   0.928   2.622   5.151 -0.7148  1.9326 -1.2001
 3878TIP3    H233050   0.791   2.563   5.179  0.4714 -0.5693 -0.4616
 3879TIP3   OH233051   6.694   3.817   6.614  0.7333 -0.1084  0.0592
 3879TIP3    H133052   6.715   3.879   6.545  0.3479 -2.2602 -2.1169
 3879TIP3    H233053   6.778   3.803   6.659  0.9721  1.3729  0.1402
 3880TIP3   OH233054   5.289   4.233   2.693  0.0945  0.0702  0.2583
 3880TIP3    H133055   5.359   4.296   2.711 -0.0287  0.1567  0.4381
 3880TIP3    H233056   5.335   4.150   2.678  0.2759  0.2735 -0.3204
 3881TIP3   OH233057   2.960   3.597  13.252 -0.2153  0.2455 -0.0820
 3881TIP3    H133058   3.035   3.569  13.304 -0.2287  0.1951 -0.0903
 3881TIP3    H233059   2.998   3.642  13.176 -0.2098  1.1002  0.4147
 3882TIP3   OH233060   6.393   3.614   0.793 -0.1454 -0.0025  0.3513
 3882TIP3    H133061   6.350   3.563   0.725  0.7000 -1.9176  1.1921
 3882TIP3    H233062   6.486   3.613   0.768  0.1376 -0.5185  1.3967
 3883TIP3   OH233063   6.602   3.501  14.453 -0.3704 -0.4167 -0.1241
 3883TIP3    H133064   6.621   3.407  14.465  1.4583 -0.1909 -0.9452
 3883TIP3    H233065   6.559   3.506  14.368 -0.8163 -0.5414  0.0901
 3884TIP3   OH233066   1.745   5.135  13.042  0.1485  0.7040  0.7288
 3884TIP3    H133067   1.839   5.133  13.021  0.3397  0.0684  1.6050
 3884TIP3    H233068   1.712   5.050  13.014  0.0959  0.4432  1.5456
 3885TIP3   OH233069   3.765   0.175  17.274  0.6809 -0.0756 -0.1901
 3885TIP3    H133070   3.747   0.102  17.216 -1.5079  0.7604 -0.6282
 3885TIP3    H233071   3.812   0.136  17.348 -0.0210 -1.8234 -0.6411
 3886TIP3   OH233072   1.394   6.383   5.826 -0.7532 -0.0056 -0.3652
 3886TIP3    H133073   1.368   6.437   5.752 -0.7855 -0.6719 -0.8493
 3886TIP3    H233074   1.314   6.371   5.877 -0.5042  1.3781  0.4037
 3887TIP3   OH233075   0.269   5.577   2.371 -0.1726 -0.1250 -0.2928
 3887TIP3    H133076   0.363   5.562   2.379 -0.4072 -1.8109 -0.2829
 3887TIP3    H233077   0.238   5.504   2.316 -1.3863  0.7356 -0.8000
 3888TIP3   OH233078   4.055   1.355  14.549  0.3891 -0.1733 -0.4239
 3888TIP3    H133079   3.984   1.341  14.612  0.1808  0.0811 -0.6000
 3888TIP3    H233080   4.134   1.362  14.602  0.4392 -1.5432 -0.2882
 3889TIP3   OH233081   3.798   2.520  12.661 -0.8810  0.2564  1.0156
 3889TIP3    H133082   3.747   2.491  12.585  0.8860  2.8885 -1.4022
 3889TIP3    H233083   3.848   2.444  12.689 -1.1474 -0.6476 -0.8666
 3890TIP3   OH233084   4.599   2.367   1.649 -0.4282 -0.0234 -0.3790
 3890TIP3    H133085   4.613   2.459   1.626 -0.9551 -0.1362 -1.1955
 3890TIP3    H233086   4.585   2.367   1.743  1.2296  0.5371 -0.0999
 3891TIP3   OH233087   3.532   5.884  11.437  0.1274 -0.1842 -0.3178
 3891TIP3    H133088   3.511   5.963  11.488  0.6693  0.9792 -1.8179
 3891TIP3    H233089   3.449   5.835  11.434  0.3424 -0.8778  2.5562
 3892TIP3   OH233090   5.730   2.639  14.713 -0.2606  0.2677  0.7743
 3892TIP3    H133091   5.672   2.638  14.789 -0.8263  2.3048  0.4060
 3892TIP3    H233092   5.676   2.673  14.642  0.8019  0.1869 -0.0926
 3893TIP3   OH233093   0.834   1.123  16.162  0.8372  0.0610 -0.0341
 3893TIP3    H133094   0.767   1.080  16.109  0.3838  0.3462  0.3077
 3893TIP3    H233095   0.789   1.149  16.242  1.0593  1.3570 -0.3173
 3894TIP3   OH233096   2.166   1.630   0.860 -0.7253 -0.1367  0.0007
 3894TIP3    H133097   2.087   1.575   0.861  0.2408 -1.6292 -1.1352
 3894TIP3    H233098   2.228   1.580   0.913 -0.3520  0.7353  0.3868
 3895TIP3   OH233099   3.038   5.140  16.676 -0.4024 -0.4235 -0.2733
 3895TIP3    H133100   3.017   5.184  16.759  1.2925 -1.3178  0.6745
 3895TIP3    H233101   3.071   5.055  16.702 -1.2343 -1.3110 -1.9785
 3896TIP3   OH233102   1.222   1.064   1.125  0.6589  0.2546  0.2855
 3896TIP3    H133103   1.128   1.070   1.109  0.4388  0.3598  1.5175
 3896TIP3    H233104   1.246   1.151   1.157  0.8754 -0.1832  1.3725
 3897TIP3   OH233105   1.544   5.840  16.024 -0.5512 -0.1268  0.1830
 3897TIP3    H133106   1.521   5.924  15.986  0.5581 -0.0369 -0.3381
 3897TIP3    H233107   1.506   5.775  15.965  0.0812  0.0162 -0.3938
 3898TIP3   OH233108   3.859   3.332   2.400  0.0436 -0.0518 -1.1601
 3898TIP3    H133109   3.861   3.289   2.486  1.4245 -1.2486 -1.7539
 3898TIP3    H233110   3.826   3.265   2.340 -0.4596  0.6287 -1.6640
 3899TIP3   OH233111   2.058   6.218  10.679  0.1135  0.1375  0.7280
 3899TIP3    H133112   2.000   6.160  10.728  0.2080 -0.0593  0.6104
 3899TIP3    H233113   2.045   6.304  10.719  0.8135 -0.1693  1.6520
 3900TIP3   OH233114   5.885   4.345  16.900 -0.3020  0.0462  0.3761
 3900TIP3    H133115   5.921   4.265  16.864  0.4749  0.6546 -0.2339
 3900TIP3    H233116   5.811   4.366  16.843  1.3593  1.4000 -1.4256
 3901TIP3   OH233117   5.703   0.233  12.424 -0.3521  0.0293 -0.3035
 3901TIP3    H133118   5.665   0.302  12.369 -0.5115  0.3052  0.1426
 3901TIP3    H233119   5.630   0.203  12.478  0.0719  0.6653  0.6641
 3902TIP3   OH233120   3.448   6.212   2.115 -0.3436 -0.3081 -0.2169
 3902TIP3    H133121   3.479   6.150   2.049 -0.1000  0.7502 -1.1426
 3902TIP3    H233122   3.419   6.288   2.064  0.3754  0.7700  0.9095
 3903TIP3   OH233123   1.480   0.980  15.704  0.4958 -0.8408 -0.5823
 3903TIP3    H133124   1.510   0.923  15.776 -1.9054 -2.2928 -0.6456
 3903TIP3    H233125   1.459   0.920  15.633 -0.7726  0.2549 -1.1630
 3904TIP3   OH233126   2.174   5.744   0.571 -0.3741 -0.3420 -0.6527
 3904TIP3    H133127   2.262   5.751   0.607  0.5372 -2.9767 -2.1489
 3904TIP3    H233128   2.166   5.819   0.513  0.8406 -0.0355 -0.4456
 3905TIP3   OH233129   3.313   5.767  15.677 -0.5656 -0.0082 -0.6305
 3905TIP3    H133130   3.366   5.841  15.706 -1.0429 -0.2066  0.8184
 3905TIP3    H233131   3.232   5.807  15.644 -0.5832  0.1477 -0.3963
 3906TIP3   OH233132   1.243   4.765  11.292 -1.1055 -0.2792  0.4099
 3906TIP3    H133133   1.233   4.711  11.214 -0.8634  1.4996 -0.9189
 3906TIP3    H233134   1.289   4.709  11.354 -0.6085 -1.4945 -0.9934
 3907TIP3   OH233135   3.509   1.752   5.662 -0.3878  0.1165 -0.0991
 3907TIP3    H133136   3.488   1.786   5.749 -0.3556  3.4086 -1.2223
 3907TIP3    H233137   3.432   1.773   5.610  1.2991  2.4751 -1.8358
 3908TIP3   OH233138   0.880   0.388   1.273 -0.0063 -0.1321  0.0944
 3908TIP3    H133139   0.855   0.407   1.182  0.5110  1.1064  0.1820
 3908TIP3    H233140   0.973   0.411   1.277 -0.5555  2.1596  1.4987
 3909TIP3   OH233141   3.711   3.194   0.244  0.2388  0.2176  0.0239
 3909TIP3    H133142   3.740   3.104   0.225 -0.3819  0.4352 -2.2781
 3909TIP3    H233143   3.720   3.202   0.339  0.9319 -2.0546  0.2273
 3910TIP3   OH233144   0.168   5.147  11.950  0.1615  0.0380 -0.4965
 3910TIP3    H133145   0.156   5.138  12.044 -2.4558  2.8743 -0.3989
 3910TIP3    H233146   0.263   5.144  11.937  0.5431 -1.2311  2.0692
 3911TIP3   OH233147   1.535   2.785  16.396 -0.8047 -0.4443 -0.1871
 3911TIP3    H133148   1.546   2.738  16.314 -3.7900 -0.4954 -0.6701
 3911TIP3    H233149   1.456   2.746  16.435  0.0175  0.1931  2.2803
 3912TIP3   OH233150   5.257   6.251  15.392 -1.1363  0.0240 -0.0392
 3912TIP3    H133151   5.251   6.267  15.486 -0.2679 -1.6363  0.3375
 3912TIP3    H233152   5.334   6.195  15.382 -1.8728 -0.7753 -1.5948
 3913TIP3   OH233153   3.126   0.639  13.316 -0.0500  0.7880 -0.3754
 3913TIP3    H133154   3.071   0.576  13.362 -0.2961  1.3284  0.0766
 3913TIP3    H233155   3.186   0.585  13.265 -1.4995  0.1686 -1.5133
 3914TIP3   OH233156   4.285   6.161  14.642 -0.1583  0.0744  0.2498
 3914TIP3    H133157   4.277   6.255  14.632  1.3067  0.5795  2.8052
 3914TIP3    H233158   4.293   6.147  14.737 -0.6475 -2.6501 -0.0112
 3915TIP3   OH233159   0.689   3.434  13.911 -0.1763  0.8678 -0.5952
 3915TIP3    H133160   0.783   3.447  13.913 -0.1972  1.0783  1.0117
 3915TIP3    H233161   0.659   3.464  13.998 -1.6130  0.1154 -0.7953
 3916TIP3   OH233162   3.127   3.136   3.718  0.3111  0.4754 -0.4846
 3916TIP3    H133163   3.125   3.127   3.622  0.2099 -1.5239 -0.3256
 3916TIP3    H233164   3.159   3.052   3.750 -1.5763  0.3575  1.3305
 3917TIP3   OH233165   5.969   6.586   5.246 -0.2747 -0.2782 -0.1224
 3917TIP3    H133166   5.921   6.533   5.182  0.5495  0.6965 -1.6004
 3917TIP3    H233167   5.904   6.647   5.281 -0.7222 -0.7869 -0.0552
 3918TIP3   OH233168   0.223   0.593  12.763  0.6339  0.0393 -0.5667
 3918TIP3    H133169   0.234   0.548  12.679  0.6682 -0.1842 -0.4443
 3918TIP3    H233170   0.251   0.683  12.746 -0.2465  0.2373 -1.0313
 3919TIP3   OH233171   2.555   5.108   4.393  0.5942  0.2505 -0.2526
 3919TIP3    H133172   2.580   5.129   4.303  0.2846 -0.6430 -0.5586
 3919TIP3    H233173   2.465   5.076   4.386 -1.1786  4.3428  0.9331
 3920TIP3   OH233174   2.563   1.628  11.059  0.0711 -0.4464  0.4038
 3920TIP3    H133175   2.493   1.614  10.995  0.2685  0.1079  0.0620
 3920TIP3    H233176   2.637   1.658  11.007 -0.0136  0.8162  0.9778
 3921TIP3   OH233177   3.911   3.361   6.021 -0.8195 -0.6023  0.1074
 3921TIP3    H133178   3.933   3.307   6.097  1.1177  0.4353  0.3523
 3921TIP3    H233179   3.974   3.335   5.954 -1.1540 -0.0245 -0.4417
 3922TIP3   OH233180   3.353   2.099   2.221  0.4091  0.8144  0.0470
 3922TIP3    H133181   3.262   2.077   2.202  1.0553  0.6306 -3.5329
 3922TIP3    H233182   3.363   2.083   2.315 -2.1128 -3.3196 -0.1444
 3923TIP3   OH233183   5.928   5.708  12.013 -0.6158 -0.5689  0.5615
 3923TIP3    H133184   6.013   5.719  11.972 -0.4490  0.8192  1.2487
 3923TIP3    H233185   5.878   5.655  11.950  0.2340 -0.0774 -0.5581
 3924TIP3   OH233186   5.850   3.676  16.437 -0.3914 -0.1278 -0.2638
 3924TIP3    H133187   5.882   3.596  16.477 -2.9442 -0.1363  2.0074
 3924TIP3    H233188   5.781   3.648  16.377 -2.3918  0.3039  1.6772
 3925TIP3   OH233189   3.369   3.297   4.082  0.8303  0.3550 -0.0718
 3925TIP3    H133190   3.345   3.380   4.042 -1.4222 -0.5328 -0.7272
 3925TIP3    H233191   3.387   3.318   4.173  1.4835  1.7147 -0.4917
 3926TIP3   OH233192   4.147   5.322  10.572 -0.3269  0.0075  0.4879
 3926TIP3    H133193   4.160   5.329  10.477 -1.7365 -0.2422  0.2542
 3926TIP3    H233194   4.156   5.412  10.604  0.7019  0.0152  0.2034
 3927TIP3   OH233195   0.392   0.787  11.328 -0.0112 -0.0847 -0.3786
 3927TIP3    H133196   0.318   0.737  11.294 -0.1137  1.0163 -1.8940
 3927TIP3    H233197   0.450   0.721  11.366 -1.4719 -1.0265  0.2982
 3928TIP3   OH233198   5.737   1.484  15.959 -0.6404  0.0799  0.3564
 3928TIP3    H133199   5.761   1.519  15.873  0.6357  0.6217  0.9155
 3928TIP3    H233200   5.704   1.559  16.007 -0.3372 -0.0056  0.6967
 3929TIP3   OH233201   1.477   5.120  12.856 -0.2437 -0.1925 -0.6296
 3929TIP3    H133202   1.415   5.114  12.784 -0.2811 -0.1601 -0.6007
 3929TIP3    H233203   1.430   5.169  12.924 -1.0720 -2.2110  0.3346
 3930TIP3   OH233204   3.256   6.706   4.193  0.1889  0.9763 -0.7347
 3930TIP3    H133205   3.283   6.621   4.160  0.0686  1.6244 -2.5819
 3930TIP3    H233206   3.196   6.686   4.265  0.7614 -0.4750 -0.6242
 3931TIP3   OH233207   2.993   4.867  11.315 -0.0623 -0.5270 -0.0818
 3931TIP3    H133208   2.976   4.889  11.407  0.2981  0.1890 -0.1775
 3931TIP3    H233209   2.988   4.772  11.312 -0.7565 -0.5174  0.5424
 3932TIP3   OH233210   3.597   0.751   0.160 -0.2348  0.4205  0.0887
 3932TIP3    H133211   3.559   0.663   0.168  0.2836  0.2207  0.4231
 3932TIP3    H233212   3.637   0.767   0.246  0.4742  0.6018 -0.2695
 3933TIP3   OH233213   6.293   5.035  14.067  0.1384 -0.5734 -0.1397
 3933TIP3    H133214   6.358   5.074  14.125 -0.5980 -0.0728  0.3641
 3933TIP3    H233215   6.229   4.997  14.126 -0.1466 -0.8590 -0.6332
 3934TIP3   OH233216   2.718   2.360  15.085  0.6025  0.3111  0.3192
 3934TIP3    H133217   2.769   2.411  15.146 -0.3312  0.4587  1.0018
 3934TIP3    H233218   2.682   2.424  15.023  2.7388  0.0090 -1.3262
 3935TIP3   OH233219   5.392   3.248  12.048  0.1843 -0.1886 -0.3853
 3935TIP3    H133220   5.461   3.257  11.982  1.5646  1.7479  1.1874
 3935TIP3    H233221   5.349   3.334  12.049 -0.8014 -0.6746  0.1973
 3936TIP3   OH233222   0.949   6.179  14.609  0.0541  0.0985 -0.1848
 3936TIP3    H133223   1.008   6.252  14.629 -0.9163  1.0104 -0.5518
 3936TIP3    H233224   0.895   6.211  14.536 -1.9992 -0.0761  1.1851
 3937TIP3   OH233225   4.588   1.214   0.065  0.2561  1.2431  0.0741
 3937TIP3    H133226   4.587   1.309   0.075  1.2668  1.0442  4.9116
 3937TIP3    H233227   4.503   1.185   0.098  0.9813  0.4453  1.3280
 3938TIP3   OH233228   0.855   5.377   0.625 -0.6319 -0.2903 -0.1008
 3938TIP3    H133229   0.856   5.465   0.586  0.2379 -0.2492 -0.0251
 3938TIP3    H233230   0.894   5.321   0.557  2.7309  0.0972  1.3040
 3939TIP3   OH233231   3.035   5.685  12.484  0.1448 -0.0244 -0.1913
 3939TIP3    H133232   2.972   5.755  12.496  0.7732  0.3104  1.4505
 3939TIP3    H233233   2.999   5.611  12.532 -0.7041 -1.0201 -2.2228
 3940TIP3   OH233234   3.019   5.851   1.965 -0.7650  0.0680 -0.5984
 3940TIP3    H133235   3.042   5.759   1.951 -0.8529 -0.4022  1.8815
 3940TIP3    H233236   3.103   5.896   1.975 -0.7013 -0.3858  1.4002
 3941TIP3   OH233237   0.288   4.624   4.908 -0.1616  0.1102 -0.3072
 3941TIP3    H133238   0.362   4.667   4.950  1.3913 -1.6148 -1.1414
 3941TIP3    H233239   0.218   4.627   4.973  0.3076  2.5556  0.1750
 3942TIP3   OH233240   0.005   6.389  14.153 -0.1316 -0.1540  0.4011
 3942TIP3    H133241  -0.055   6.318  14.175  0.1829 -0.6235 -0.2104
 3942TIP3    H233242  -0.024   6.463  14.207 -2.9266  0.4781 -1.7055
 3943TIP3   OH233243   4.912   0.811   6.702  0.1314  0.0229 -0.5244
 3943TIP3    H133244   4.936   0.840   6.613 -0.4720  1.1682 -0.3392
 3943TIP3    H233245   4.865   0.729   6.688  1.7488 -0.8632 -1.0924
 3944TIP3   OH233246   0.514   6.087   3.826  0.0792  0.1585 -0.6666
 3944TIP3    H133247   0.440   6.146   3.843 -1.0665 -1.6205  0.9207
 3944TIP3    H233248   0.488   6.038   3.748 -0.6042 -0.6599  0.0496
 3945TIP3   OH233249   6.357   6.429   3.687 -0.0428  0.7299  0.2130
 3945TIP3    H133250   6.424   6.396   3.627 -0.5833  0.4166 -0.2294
 3945TIP3    H233251   6.347   6.358   3.752  0.1938  0.8609  0.3929
 3946TIP3   OH233252   1.516   6.673   0.110 -0.1338 -0.0241 -0.4416
 3946TIP3    H133253   1.428   6.701   0.086  0.4400  0.8630 -1.5905
 3946TIP3    H233254   1.544   6.735   0.176  0.0120  0.3298 -0.8306
 3947TIP3   OH233255   4.441   6.110  13.756 -0.5856 -0.3259 -0.1199
 3947TIP3    H133256   4.533   6.113  13.727 -0.5416  1.1642  0.1200
 3947TIP3    H233257   4.446   6.119  13.851 -0.9587 -0.9777 -0.0339
 3948TIP3   OH233258   6.014   4.700  14.279 -0.2436 -0.4203 -0.2647
 3948TIP3    H133259   5.995   4.683  14.187 -0.8765 -2.2249  0.1604
 3948TIP3    H233260   6.019   4.613  14.319  0.9603  0.2831  1.2358
 3949TIP3   OH233261   3.078   5.050   1.946 -0.1267  0.1488 -0.5147
 3949TIP3    H133262   3.031   5.111   1.889 -0.3729  0.0523 -0.4145
 3949TIP3    H233263   3.027   5.048   2.027  0.1139  0.1316 -0.3617
 3950TIP3   OH233264   1.402   5.213   4.142 -0.1672  0.1276 -0.1566
 3950TIP3    H133265   1.317   5.257   4.145  0.1249  0.6653  0.8746
 3950TIP3    H233266   1.407   5.175   4.054 -1.7096 -0.4159 -0.0340
 3951TIP3   OH233267   3.680   2.681   3.790 -0.1560  0.6014 -0.3407
 3951TIP3    H133268   3.590   2.669   3.819 -0.8500  1.8861 -1.8433
 3951TIP3    H233269   3.674   2.687   3.695  1.8669 -2.1009 -0.7629
 3952TIP3   OH233270   6.375   1.831  16.686 -0.2892  0.4530 -0.1404
 3952TIP3    H133271   6.405   1.742  16.704 -0.4837  0.6990  1.5383
 3952TIP3    H233272   6.431   1.861  16.615 -0.5238 -1.1578 -1.0610
 3953TIP3   OH233273   1.772   0.598   1.303 -0.2613  0.1504  0.0678
 3953TIP3    H133274   1.698   0.539   1.312 -0.0016 -0.1095  0.5668
 3953TIP3    H233275   1.843   0.554   1.350  0.0612  0.6361  0.0400
 3954TIP3   OH233276   3.520   2.279  12.883 -0.2067 -0.2612  0.4559
 3954TIP3    H133277   3.492   2.203  12.934  3.2093 -1.5080  0.6937
 3954TIP3    H233278   3.551   2.342  12.947  1.8229 -0.8503  0.1273
 3955TIP3   OH233279   6.262   5.316  15.401  0.0084  0.2007  0.0123
 3955TIP3    H133280   6.224   5.369  15.471 -1.8598 -2.0924  0.8879
 3955TIP3    H233281   6.270   5.376  15.326  2.9721  3.0128  2.2793
 3956TIP3   OH233282   0.529   3.091  15.830  0.2457 -0.5652  0.2634
 3956TIP3    H133283   0.572   3.119  15.911 -0.7355  0.8104  0.3442
 3956TIP3    H233284   0.436   3.107  15.846  0.1726  1.3736 -1.7350
 3957TIP3   OH233285   5.597   2.201  13.783 -0.1697  0.1554  0.8485
 3957TIP3    H133286   5.570   2.289  13.809  0.3895  0.0946  1.6491
 3957TIP3    H233287   5.574   2.146  13.858 -1.3886 -0.5619 -0.0075
 3958TIP3   OH233288   5.963   3.346  14.441 -0.1001  0.2460  0.3784
 3958TIP3    H133289   6.014   3.418  14.478 -0.1027 -0.4455  1.7937
 3958TIP3    H233290   5.967   3.360  14.346  1.0048  1.3508  0.5596
 3959TIP3   OH233291   0.669   2.629   1.523 -0.0327 -0.1560  0.1305
 3959TIP3    H133292   0.655   2.684   1.600 -1.4876 -2.6796  1.7951
 3959TIP3    H233293   0.736   2.567   1.549 -0.8349 -1.3095 -0.4557
 3960TIP3   OH233294   0.282   5.207  17.245 -0.0645  0.2136 -0.2938
 3960TIP3    H133295   0.266   5.123  17.202 -1.6073 -0.1793  0.9479
 3960TIP3    H233296   0.377   5.212  17.254 -0.0017 -2.8088  2.2470
 3961TIP3   OH233297   0.867   3.590   6.010  0.2946 -0.5752  0.2730
 3961TIP3    H133298   0.936   3.633   5.959  2.7029 -2.2133  1.8920
 3961TIP3    H233299   0.908   3.573   6.095 -3.0887  0.8522  2.3864
 3962TIP3   OH233300   0.483   2.103   0.703 -0.0421  0.4007 -0.5000
 3962TIP3    H133301   0.475   2.198   0.694 -0.7221  0.2705 -1.3634
 3962TIP3    H233302   0.544   2.091   0.776 -0.5732  1.4958  0.1471
 3963TIP3   OH233303   3.637   2.885   1.470  0.3996 -0.8680 -0.3810
 3963TIP3    H133304   3.634   2.946   1.544 -0.8958 -0.7007 -0.5394
 3963TIP3    H233305   3.726   2.893   1.436  0.3889  0.6316 -0.1442
 3964TIP3   OH233306   4.168   6.277   3.132  0.4530  0.3715 -0.0569
 3964TIP3    H133307   4.085   6.236   3.157  0.6887 -0.2432 -0.2519
 3964TIP3    H233308   4.165   6.365   3.170  0.0512  0.0782  0.6008
 3965TIP3   OH233309   6.202   0.075  15.737 -0.1143  0.5645 -0.7619
 3965TIP3    H133310   6.166   0.033  15.659 -3.0483 -0.6482  1.0337
 3965TIP3    H233311   6.293   0.046  15.741 -1.0675 -3.0789 -1.4418
 3966TIP3   OH233312   2.116   3.635  15.799  0.5897 -0.1333  0.7384
 3966TIP3    H133313   2.094   3.667  15.887  1.5328  1.7738  0.3313
 3966TIP3    H233314   2.108   3.712  15.743  3.7493 -0.3503 -0.1881
 3967TIP3   OH233315   5.966   1.427  14.354  0.2342 -0.5876  0.2689
 3967TIP3    H133316   5.871   1.421  14.349  0.3737 -2.4484 -0.9368
 3967TIP3    H233317   5.988   1.501  14.297 -0.5254  0.4124  1.2454
 3968TIP3   OH233318   4.250   0.000   5.273  0.1682  0.3360 -0.6141
 3968TIP3    H133319   4.238   0.038   5.360 -1.5682  1.7360 -1.4022
 3968TIP3    H233320   4.219  -0.090   5.282  1.9733 -0.2209  0.6790
 3969TIP3   OH233321   5.016   4.826  11.948  0.0030 -0.0025 -0.0839
 3969TIP3    H133322   5.050   4.893  12.006 -0.0605  1.8027 -2.0222
 3969TIP3    H233323   5.006   4.869  11.863 -2.5333 -1.7492 -0.8103
 3970TIP3   OH233324   6.514   5.711  13.537 -0.5119 -0.1981 -0.2857
 3970TIP3    H133325   6.563   5.683  13.614 -1.4808  0.8046  0.7306
 3970TIP3    H233326   6.442   5.648  13.530  0.7087 -1.5283 -1.6377
 3971TIP3   OH233327   0.489   6.213  15.663 -0.4322 -0.8864 -0.1160
 3971TIP3    H133328   0.564   6.166  15.700 -0.1196  0.4337  1.0034
 3971TIP3    H233329   0.424   6.214  15.734 -0.8288 -0.5031 -0.4800
 3972TIP3   OH233330   4.965   4.566   5.005  0.0981  0.0847  0.0168
 3972TIP3    H133331   4.891   4.559   4.944  0.4356  0.7431 -0.4819
 3972TIP3    H233332   4.930   4.534   5.089 -0.4238 -0.6531 -0.4724
 3973TIP3   OH233333   4.023   0.847  15.371  0.0214  0.2092 -0.1949
 3973TIP3    H133334   3.942   0.798  15.360 -0.5834  0.8600  1.0927
 3973TIP3    H233335   4.000   0.938  15.354  0.7933  0.2450 -1.1122
 3974TIP3   OH233336   5.720   3.092   4.992 -0.3708 -0.1691  0.2743
 3974TIP3    H133337   5.697   3.130   5.077  1.4665 -0.4522  0.9462
 3974TIP3    H233338   5.637   3.063   4.955 -0.9820 -3.2836  3.5633
 3975TIP3   OH233339   4.539   5.128  13.055 -0.1109  1.1183  0.2208
 3975TIP3    H133340   4.574   5.123  13.144 -0.5630  1.5083  0.4209
 3975TIP3    H233341   4.467   5.190  13.060 -1.6902 -0.6312  0.0791
 3976TIP3   OH233342   1.642   2.734  15.835  0.1829  0.2110  0.1429
 3976TIP3    H133343   1.640   2.734  15.931  0.1033 -2.4165  0.1975
 3976TIP3    H233344   1.570   2.677  15.810 -0.1058  1.2567 -1.5388
 3977TIP3   OH233345   0.995   3.485  13.533  0.3137 -0.2964  0.0500
 3977TIP3    H133346   1.028   3.461  13.620  0.0657 -0.2877  0.1492
 3977TIP3    H233347   0.899   3.483  13.543  0.2887  0.4404 -0.0216
 3978TIP3   OH233348   2.236   4.975  13.874  0.0428 -0.2943  0.3127
 3978TIP3    H133349   2.329   4.981  13.853  0.2144 -0.4981  0.9852
 3978TIP3    H233350   2.234   4.955  13.967 -0.6971  0.8804  0.5671
 3979TIP3   OH233351   3.076   1.731   2.318  0.0586  0.4611  0.2742
 3979TIP3    H133352   2.995   1.721   2.268  0.0572  1.0371  0.1613
 3979TIP3    H233353   3.096   1.642   2.348 -1.6086  0.5585  1.8591
 3980TIP3   OH233354   6.038   3.361   0.866 -0.1452 -0.1243  0.3115
 3980TIP3    H133355   6.061   3.269   0.875  1.7589  0.2111 -0.7255
 3980TIP3    H233356   5.978   3.364   0.791  0.8942 -0.3722 -0.5441
 3981TIP3   OH233357   3.520   2.927   5.826  0.5470 -1.2134  0.1354
 3981TIP3    H133358   3.576   2.946   5.902  1.5341 -1.1323 -0.5975
 3981TIP3    H233359   3.494   2.836   5.838 -1.2751 -0.5532  1.7995
 3982TIP3   OH233360   2.288   5.519   5.453  0.4652 -0.6911  0.3858
 3982TIP3    H133361   2.213   5.577   5.462  0.5681 -0.4490 -0.2398
 3982TIP3    H233362   2.251   5.431   5.460  0.5027 -0.5734  2.7521
 3983TIP3   OH233363   1.861   0.807   4.215  0.4658 -0.3630  0.2145
 3983TIP3    H133364   1.948   0.845   4.200  0.4653 -0.2030  0.5905
 3983TIP3    H233365   1.879   0.725   4.261  0.5074 -1.2006 -1.2234
 3984TIP3   OH233366   5.814   1.685  13.473  0.0921 -0.4476  0.1711
 3984TIP3    H133367   5.722   1.709  13.467  0.4254  1.3601  1.4634
 3984TIP3    H233368   5.860   1.758  13.430  0.9714 -0.8173  0.4663
 3985TIP3   OH233369   5.160   4.787  11.500  0.2488  0.9533  0.0225
 3985TIP3    H133370   5.170   4.767  11.407  1.8811 -0.2792  0.4021
 3985TIP3    H233371   5.221   4.860  11.516  0.6675  0.5549  0.2817
 3986TIP3   OH233372   1.272   0.701   4.589 -0.2759 -0.0039 -0.0999
 3986TIP3    H133373   1.288   0.776   4.533 -0.6743 -0.7571 -1.2529
 3986TIP3    H233374   1.359   0.664   4.606 -0.2598 -0.7234 -1.5972
 3987TIP3   OH233375   1.053   2.597  15.617  0.4610  0.0220 -0.6383
 3987TIP3    H133376   0.985   2.645  15.570  0.6629  1.2068  0.2340
 3987TIP3    H233377   1.014   2.511  15.634 -0.3414  0.2517 -1.2402
 3988TIP3   OH233378   5.854   1.720   5.548  0.0291  0.1712  0.2160
 3988TIP3    H133379   5.794   1.793   5.557  0.0998  0.7334 -2.7467
 3988TIP3    H233380   5.800   1.642   5.560 -0.7920  0.6879 -0.1001
 3989TIP3   OH233381   4.558   3.366   1.519  0.2981  0.5567  0.1577
 3989TIP3    H133382   4.485   3.412   1.478 -0.5966  0.2096  1.3141
 3989TIP3    H233383   4.611   3.436   1.558  0.1711  0.7530 -0.0187
 3990TIP3   OH233384   1.582   4.877   2.779 -0.4608 -0.2466 -0.3571
 3990TIP3    H133385   1.586   4.925   2.696 -1.3019 -1.0176 -0.8502
 3990TIP3    H233386   1.530   4.933   2.837 -2.2117 -0.9209 -1.2071
 3991TIP3   OH233387   0.480   6.134   0.358  0.3431  0.4904  0.2574
 3991TIP3    H133388   0.572   6.107   0.349  1.2006  2.3934  2.4322
 3991TIP3    H233389   0.477   6.222   0.319 -0.4486  0.6084  0.5666
 3992TIP3   OH233390   5.797   5.556   2.633  0.1227  0.1846  1.0324
 3992TIP3    H133391   5.748   5.635   2.609  0.8386 -0.1667 -1.9889
 3992TIP3    H233392   5.858   5.543   2.560  2.4965 -1.2180  3.1041
 3993TIP3   OH233393   2.175   1.386  11.705  0.3856  0.3059 -0.1112
 3993TIP3    H133394   2.135   1.407  11.789 -0.7219  1.2634 -0.8556
 3993TIP3    H233395   2.164   1.466  11.653  3.6277  0.7917 -0.2490
 3994TIP3   OH233396   3.183   0.497  12.011 -0.1592 -0.0932  0.4105
 3994TIP3    H133397   3.126   0.425  12.040  0.9618 -0.8457  0.7801
 3994TIP3    H233398   3.201   0.477  11.919 -2.3935  1.4329 -0.4556
 3995TIP3   OH233399   1.082   3.065   3.294  0.1114  0.4529  0.2486
 3995TIP3    H133400   0.996   3.107   3.300 -0.4858 -0.2067 -2.4533
 3995TIP3    H233401   1.142   3.135   3.268  0.2811  0.7490  1.3721
 3996TIP3   OH233402   1.574   5.271  13.516  0.7954 -0.6514 -0.4220
 3996TIP3    H133403   1.601   5.192  13.562 -0.9105 -2.0579 -1.6737
 3996TIP3    H233404   1.489   5.292  13.554  0.3243 -0.6268 -1.4501
 3997TIP3   OH233405   5.340   3.688   3.854  0.3120  0.6885 -0.6337
 3997TIP3    H133406   5.301   3.774   3.868  0.7212  0.6853  0.6845
 3997TIP3    H233407   5.277   3.643   3.797 -0.8745  1.2117  0.1993
 3998TIP3   OH233408   3.539   0.208   0.587 -0.4085  0.1683 -0.0543
 3998TIP3    H133409   3.582   0.276   0.536  2.8980 -1.6739  0.0006
 3998TIP3    H233410   3.473   0.172   0.528  1.1096  0.2313 -1.9036
 3999TIP3   OH233411   5.291   2.687  17.249 -0.0253 -0.1440  0.0730
 3999TIP3    H133412   5.384   2.700  17.268  0.0839 -1.0037  0.1313
 3999TIP3    H233413   5.250   2.769  17.278  0.7073  0.2484  0.0352
 4000TIP3   OH233414   3.409   3.079  12.864 -0.3130 -0.2429  0.5917
 4000TIP3    H133415   3.337   3.050  12.919 -0.6062 -1.9160 -0.5853
 4000TIP3    H233416   3.458   2.999  12.844  1.4764  0.7397  0.7657
 4001TIP3   OH233417   2.280   0.864  14.210  0.3655  0.0462 -0.1873
 4001TIP3    H133418   2.234   0.807  14.271 -2.9255  0.8105 -1.7069
 4001TIP3    H233419   2.212   0.921  14.174  2.6308  1.6243 -2.3733
 4002TIP3   OH233420   3.169   1.817  17.131 -0.1908 -0.4675 -0.1072
 4002TIP3    H133421   3.096   1.837  17.072  1.1917  2.9594 -0.8730
 4002TIP3    H233422   3.150   1.867  17.210  2.1246  2.0738 -1.0299
 4003TIP3   OH233423   3.365   3.405  13.117 -0.0620 -0.7389  0.1954
 4003TIP3    H133424   3.341   3.493  13.087  0.8931 -0.4766  0.1854
 4003TIP3    H233425   3.456   3.394  13.088 -0.3278 -1.9215 -0.2301
 4004TIP3   OH233426   0.932   6.108  13.326  0.4928 -0.0228 -0.5951
 4004TIP3    H133427   0.980   6.047  13.383  1.1630  0.7201 -0.3428
 4004TIP3    H233428   0.846   6.068  13.315  0.9449 -1.0617 -0.5096
 4005TIP3   OH233429   4.360   2.585   2.802  0.3517 -0.3294  0.0410
 4005TIP3    H133430   4.331   2.618   2.717  0.4352 -1.1270 -0.2955
 4005TIP3    H233431   4.443   2.630   2.818  1.1517 -1.3609 -1.0464
 4006TIP3   OH233432   5.908   6.133  12.765 -0.0292  0.2394  0.0962
 4006TIP3    H133433   5.950   6.102  12.845  0.6900  3.2709  1.0437
 4006TIP3    H233434   5.968   6.106  12.695  0.8594  0.0724  0.9013
 4007TIP3   OH233435   3.736   6.266   2.210  0.8223 -0.6405  0.0736
 4007TIP3    H133436   3.648   6.265   2.171 -0.0621  0.6470  1.8779
 4007TIP3    H233437   3.779   6.340   2.168 -0.0798  0.6615  1.3438
 4008TIP3   OH233438   2.353   0.493   2.018 -0.0715  0.4314 -0.2659
 4008TIP3    H133439   2.299   0.496   2.097 -0.1673 -0.3615 -0.2917
 4008TIP3    H233440   2.299   0.448   1.953  0.8808 -1.1002 -0.0485
 4009TIP3   OH233441   5.189   0.887   5.840 -0.0502  0.0834  0.0027
 4009TIP3    H133442   5.182   0.890   5.744 -1.0377 -0.5028  0.0430
 4009TIP3    H233443   5.281   0.869   5.856  0.2916  1.0297 -0.8146
 4010TIP3   OH233444   2.552   6.726  11.297  0.4075  0.2847  0.1175
 4010TIP3    H133445   2.645   6.702  11.297  0.7888  1.6421  1.1244
 4010TIP3    H233446   2.513   6.670  11.230  1.9157 -0.4223 -0.2183
 4011TIP3   OH233447   0.115   3.930  12.459 -0.3209 -0.1782 -0.0153
 4011TIP3    H133448   0.021   3.927  12.476 -0.1674  1.8063  1.7735
 4011TIP3    H233449   0.155   3.918  12.545  1.0554 -0.6876 -0.6981
 4012TIP3   OH233450   0.728   4.531  10.791  0.4400 -0.5820 -0.0160
 4012TIP3    H133451   0.635   4.553  10.783  0.7086 -0.0471 -2.3468
 4012TIP3    H233452   0.728   4.441  10.824 -0.9074 -0.6601 -0.1655
 4013TIP3   OH233453   4.116   1.932   3.447  0.6619  0.0164 -0.5265
 4013TIP3    H133454   4.139   1.851   3.403  0.9413 -1.1915  1.6902
 4013TIP3    H233455   4.022   1.924   3.466 -0.2127  1.8503 -3.3612
 4014TIP3   OH233456   5.703   3.998  13.555 -0.1533  0.3116 -0.2250
 4014TIP3    H133457   5.743   3.919  13.592  0.4775  0.6289 -0.2165
 4014TIP3    H233458   5.623   3.967  13.513 -1.0252 -0.0450  1.5920
 4015TIP3   OH233459   0.664   4.185  13.932  0.2134 -0.3905  0.0582
 4015TIP3    H133460   0.602   4.167  14.003  2.2009 -2.5269  1.3984
 4015TIP3    H233461   0.637   4.128  13.861 -0.1809 -0.2390  0.0811
 4016TIP3   OH233462   0.524   1.347  12.012 -0.3223 -0.2234 -0.2419
 4016TIP3    H133463   0.455   1.281  12.009  0.3246 -0.8793 -2.2250
 4016TIP3    H233464   0.479   1.430  11.993 -0.7206 -0.4755 -0.4112
 4017TIP3   OH233465   0.006   4.642   5.658 -0.2638  0.1319  0.4855
 4017TIP3    H133466   0.032   4.724   5.615 -1.1522 -0.3073 -0.9504
 4017TIP3    H233467  -0.075   4.616   5.613 -1.5260 -0.1250  2.7553
 4018TIP3   OH233468   4.327   3.814   3.630 -0.5078 -0.0974 -0.5836
 4018TIP3    H133469   4.276   3.761   3.692 -1.7327 -0.4549 -1.8504
 4018TIP3    H233470   4.282   3.899   3.628 -0.5205 -0.1142 -1.0429
 4019TIP3   OH233471   2.721   6.308   4.333 -0.0890 -0.3594 -0.2577
 4019TIP3    H133472   2.756   6.349   4.412  0.9455  0.2103 -0.9848
 4019TIP3    H233473   2.717   6.215   4.354  2.2555 -0.5112 -0.2450
 4020TIP3   OH233474   3.924   3.370  16.593 -0.1934 -0.0370  0.5446
 4020TIP3    H133475   3.847   3.330  16.634 -0.1770 -0.2507  0.3667
 4020TIP3    H233476   3.971   3.297  16.553 -1.8174  0.4431 -2.5789
 4021TIP3   OH233477   2.069   3.364   4.333  0.1523  0.9380  0.0404
 4021TIP3    H133478   2.161   3.341   4.318 -0.0280  0.3372 -0.1487
 4021TIP3    H233479   2.025   3.281   4.350 -0.5629  1.1013 -0.9541
 4022TIP3   OH233480   5.365   4.039  14.472 -0.4524 -0.9531 -0.0587
 4022TIP3    H133481   5.279   4.045  14.430 -1.4865  0.0376  2.0456
 4022TIP3    H233482   5.356   4.089  14.553  1.7923 -1.7711  0.7859
 4023TIP3   OH233483   0.817   2.483   1.951 -0.0177 -0.4217 -0.1025
 4023TIP3    H133484   0.905   2.506   1.921  1.0979 -2.3706  1.4421
 4023TIP3    H233485   0.773   2.451   1.872  1.0595 -0.5521 -0.6776
 4024TIP3   OH233486   1.008   4.976  14.168 -0.2743  0.0274  0.0874
 4024TIP3    H133487   1.052   5.017  14.094 -0.1518  1.3105  0.8444
 4024TIP3    H233488   0.928   5.027  14.180 -0.7025 -0.6868  0.3218
 4025TIP3   OH233489   4.476   0.302   5.796  0.1047 -0.5195 -0.4362
 4025TIP3    H133490   4.455   0.353   5.874 -0.7213  0.4397 -1.2456
 4025TIP3    H233491   4.427   0.345   5.726  2.0811 -0.3304 -1.7994
 4026TIP3   OH233492   0.095   5.677  12.376  0.0182  0.2479  0.1908
 4026TIP3    H133493   0.160   5.701  12.310  2.5942 -1.4224  1.9168
 4026TIP3    H233494   0.100   5.748  12.441  1.4962 -0.6755  1.1618
 4027TIP3   OH233495   4.303   1.337   5.488 -0.3800  0.6586  0.7532
 4027TIP3    H133496   4.230   1.396   5.471 -0.6889  0.3166  0.8652
 4027TIP3    H233497   4.349   1.329   5.404 -2.6693 -2.0834 -0.3971
 4028TIP3   OH233498   5.620   4.705  17.258  0.6027  0.0148 -0.5075
 4028TIP3    H133499   5.663   4.781  17.219  1.4038 -0.2349 -0.1365
 4028TIP3    H233500   5.685   4.670  17.319 -0.4410  0.1038  0.6874
 4029TIP3   OH233501   0.297   1.282  12.669  0.0850 -0.3570 -0.3732
 4029TIP3    H133502   0.288   1.371  12.702  0.8287  0.5139 -2.3610
 4029TIP3    H233503   0.226   1.233  12.712 -2.9287  2.0825 -2.1622
 4030TIP3   OH233504   5.854   5.060  12.905 -0.7426 -0.3370  0.3791
 4030TIP3    H133505   5.939   5.040  12.944 -1.2263 -0.8641  1.2123
 4030TIP3    H233506   5.792   5.045  12.976 -1.8225 -2.8670 -0.9678
 4031TIP3   OH233507   4.686   3.518  15.601 -0.0088  0.1187 -0.0862
 4031TIP3    H133508   4.606   3.533  15.652  0.2245 -1.6437  0.8824
 4031TIP3    H233509   4.665   3.550  15.513 -1.6249  0.0986  0.2639
 4032TIP3   OH233510   0.335   5.924   0.212 -0.2149  0.1118 -0.0868
 4032TIP3    H133511   0.412   5.937   0.157  0.9014 -1.3313  1.0542
 4032TIP3    H233512   0.353   5.976   0.291 -0.5997  0.0693  0.0313
 4033TIP3   OH233513   1.611   0.980   1.646 -0.4286 -0.2868 -0.4446
 4033TIP3    H133514   1.648   0.944   1.566  0.9784 -3.6371  1.5152
 4033TIP3    H233515   1.684   0.985   1.707 -1.5003  1.9332  0.7772
 4034TIP3   OH233516   4.812   4.584   0.461 -0.6539 -0.0398 -0.0059
 4034TIP3    H133517   4.735   4.576   0.404  0.4878  0.0931 -1.6207
 4034TIP3    H233518   4.776   4.584   0.550 -2.4396 -0.9325 -0.6863
 4035TIP3   OH233519   3.354   1.521   3.946 -0.3237 -0.0646  0.0447
 4035TIP3    H133520   3.333   1.614   3.950  3.1228  0.8147  1.0874
 4035TIP3    H233521   3.427   1.515   3.884  0.0244 -1.9452  0.5562
 4036TIP3   OH233522   6.609   0.598   3.043  0.2091  0.6070  0.4403
 4036TIP3    H133523   6.654   0.541   3.105  1.2707  0.3289 -0.5468
 4036TIP3    H233524   6.643   0.571   2.957 -1.6635  0.5687 -0.3261
 4037TIP3   OH233525   4.575   0.074  11.081 -0.0186  0.1739  0.1914
 4037TIP3    H133526   4.517   0.142  11.048 -1.0462 -0.0312  1.4793
 4037TIP3    H233527   4.581   0.011  11.009 -0.8458  0.5465 -0.2201
 4038TIP3   OH233528   0.125   3.143   5.318 -0.1369  0.2884  0.0134
 4038TIP3    H133529   0.101   3.082   5.248 -0.1615  2.0790 -1.6282
 4038TIP3    H233530   0.221   3.138   5.322 -0.2352 -1.1178  1.1238
 4039TIP3   OH233531   4.864   4.259  10.205 -0.0456 -0.1394  0.4539
 4039TIP3    H133532   4.791   4.214  10.162  0.2902 -0.3084  0.0594
 4039TIP3    H233533   4.821   4.321  10.265 -0.5313  0.7632 -0.7743
 4040TIP3   OH233534   0.301   4.662   0.110 -0.3690 -0.2100 -0.1115
 4040TIP3    H133535   0.331   4.717   0.038 -1.0032 -0.1665 -0.3436
 4040TIP3    H233536   0.291   4.575   0.072 -3.0382  0.2940 -0.7090
 4041TIP3   OH233537   2.626   1.481  15.354  0.3591  0.5447  0.1551
 4041TIP3    H133538   2.596   1.537  15.282 -1.7510  0.0236  0.5761
 4041TIP3    H233539   2.661   1.541  15.419 -0.0010  1.2135 -0.2624
 4042TIP3   OH233540   2.961   0.758   3.307  0.0026  0.0069  0.3107
 4042TIP3    H133541   2.915   0.685   3.264  0.7512 -1.0847  1.2915
 4042TIP3    H233542   2.917   0.836   3.275 -0.9865 -0.8866 -0.6013
 4043TIP3   OH233543   5.383   5.407  15.807 -0.5516  0.2420 -0.7595
 4043TIP3    H133544   5.358   5.319  15.778 -0.9850 -0.7695  2.2662
 4043TIP3    H233545   5.476   5.413  15.787 -0.6225 -0.7231 -1.4649
 4044TIP3   OH233546   1.044   3.126  14.108 -0.2453  0.6586  0.2527
 4044TIP3    H133547   1.105   3.078  14.052  0.0501  0.1782  0.9738
 4044TIP3    H233548   1.058   3.218  14.086  0.2918  0.5135 -0.0336
 4045TIP3   OH233549   3.545   2.189   3.663 -0.0750  0.1916  0.8611
 4045TIP3    H133550   3.578   2.141   3.739 -0.5093  0.3727  1.1704
 4045TIP3    H233551   3.451   2.172   3.663 -0.1499  0.5922  0.6527
 4046TIP3   OH233552   2.076   1.161  12.961 -0.1503  0.7858  0.2516
 4046TIP3    H133553   2.121   1.245  12.970  1.1451  0.1888 -0.4206
 4046TIP3    H233554   2.054   1.156  12.868  2.1338 -0.7379 -0.2760
 4047TIP3   OH233555   3.110   2.144  12.700 -0.0410  0.1476  0.1770
 4047TIP3    H133556   3.165   2.197  12.643 -1.1860  0.7272 -0.4199
 4047TIP3    H233557   3.036   2.117  12.645 -0.4398 -0.4752  0.9932
 4048TIP3   OH233558   3.707   4.981  16.461  0.1221 -0.2532  0.0317
 4048TIP3    H133559   3.620   4.952  16.488  0.0529 -0.5558 -0.5103
 4048TIP3    H233560   3.691   5.063  16.414  0.2785  0.4734  1.2112
 4049TIP3   OH233561   3.716   0.679  16.584 -0.2473 -0.0874  0.1916
 4049TIP3    H133562   3.784   0.673  16.651 -0.5496  2.4810  0.8314
 4049TIP3    H233563   3.743   0.752  16.528 -2.1017  0.5505  0.0559
 4050TIP3   OH233564   3.325   0.942  16.943  0.0105  0.6088 -0.2813
 4050TIP3    H133565   3.231   0.954  16.936 -0.0745 -0.1591 -0.5307
 4050TIP3    H233566   3.352   1.004  17.011 -1.0550 -0.9501  1.6594
 4051TIP3   OH233567   5.913   4.218   1.078  0.3106 -0.3046  0.2138
 4051TIP3    H133568   5.888   4.276   1.006  1.7190  0.0858  0.0191
 4051TIP3    H233569   6.009   4.222   1.080  0.3498 -1.3648  1.2440
 4052TIP3   OH233570   0.428   3.935   0.590  0.2000  0.2438 -1.1428
 4052TIP3    H133571   0.452   3.842   0.591  1.6381  0.5761  0.3618
 4052TIP3    H233572   0.460   3.969   0.674 -0.5724  2.0350 -1.5289
 4053TIP3   OH233573   1.348   6.573  17.156  0.6319 -0.7347  0.0480
 4053TIP3    H133574   1.361   6.516  17.233  2.9415 -0.0223  0.2730
 4053TIP3    H233575   1.416   6.545  17.095  1.7641  1.6376  0.1204
 4054TIP3   OH233576   5.010   0.405  15.639  0.2817 -0.1112 -0.4396
 4054TIP3    H133577   4.935   0.465  15.644  0.3539 -0.0538  0.0355
 4054TIP3    H233578   4.998   0.346  15.714  0.2739 -0.6220 -0.8409
 4055TIP3   OH233579   6.442   1.134   4.806 -0.1645  0.4206 -0.3344
 4055TIP3    H133580   6.447   1.221   4.766  2.1280 -0.0845 -1.2574
 4055TIP3    H233581   6.449   1.073   4.733  1.4087 -0.5203  0.5442
 4056TIP3   OH233582   3.267   5.868  13.434  0.0855 -0.3073  0.1661
 4056TIP3    H133583   3.215   5.874  13.354 -0.5563  0.4549  0.6291
 4056TIP3    H233584   3.205   5.840  13.501  0.8182 -1.9278  0.2263
 4057TIP3   OH233585   0.341   0.863   5.707 -0.0684  0.0183  0.1983
 4057TIP3    H133586   0.324   0.773   5.678  0.2136 -1.1356  3.2440
 4057TIP3    H233587   0.273   0.915   5.664 -0.3263 -1.6556 -1.5381
 4058TIP3   OH233588   5.480   2.825   3.589  0.0260 -0.2243 -0.0639
 4058TIP3    H133589   5.453   2.910   3.624  1.3838  0.8846 -1.5622
 4058TIP3    H233590   5.444   2.822   3.501  1.8557 -0.1473 -0.8752
 4059TIP3   OH233591   2.150   5.583  13.334 -0.5578 -0.2975  0.1200
 4059TIP3    H133592   2.073   5.543  13.295  0.9578 -0.3969 -3.0479
 4059TIP3    H233593   2.207   5.510  13.356  0.7672 -0.1298 -2.4726
 4060TIP3   OH233594   3.908   5.307  12.296 -0.8110  0.0026  0.0519
 4060TIP3    H133595   3.947   5.273  12.377  0.8504 -0.2350 -0.7964
 4060TIP3    H233596   3.845   5.372  12.326 -2.4673 -2.1596  1.6387
 4061TIP3   OH233597   3.744   0.298   0.929  0.0159  0.0192 -0.5846
 4061TIP3    H133598   3.776   0.216   0.965  0.2405  0.2349 -0.2891
 4061TIP3    H233599   3.787   0.306   0.844  0.6785  0.2673 -0.2268
 4062TIP3   OH233600   6.265   0.909   6.063  0.3616 -0.0235 -0.0285
 4062TIP3    H133601   6.203   0.895   5.991 -0.6055  0.0937  0.7479
 4062TIP3    H233602   6.258   1.003   6.082  0.7880 -0.0106  0.0696
 4063TIP3   OH233603   0.405   2.105  12.215 -0.0682  0.2644 -0.4717
 4063TIP3    H133604   0.424   2.147  12.299 -0.7398  0.0724 -0.2187
 4063TIP3    H233605   0.491   2.093  12.175  0.5111 -1.7231  1.1762
 4064TIP3   OH233606   1.942   4.792  13.493  0.0830  0.0425 -0.2520
 4064TIP3    H133607   2.019   4.834  13.531  0.8896 -0.1958 -1.5641
 4064TIP3    H233608   1.977   4.724  13.436 -1.1260 -0.4665 -0.4271
 4065TIP3   OH233609   2.212   4.487  16.418 -0.4821 -0.2977 -0.1529
 4065TIP3    H133610   2.232   4.575  16.386 -0.5748  0.0479  0.7411
 4065TIP3    H233611   2.270   4.475  16.493 -2.2534  0.0054  1.3302
 4066TIP3   OH233612   5.141   5.932  11.790  0.2355  0.6236  0.0733
 4066TIP3    H133613   5.061   5.883  11.805 -0.5259  2.4738  2.7359
 4066TIP3    H233614   5.119   5.996  11.723 -0.1394  0.3430 -0.0711
 4067TIP3   OH233615   4.763   3.802   3.429 -0.0629 -0.4597  0.3501
 4067TIP3    H133616   4.673   3.825   3.407 -0.2283 -0.9761  0.4693
 4067TIP3    H233617   4.809   3.886   3.433 -1.0069  0.0236  2.4452
 4068TIP3   OH233618   1.865   3.148   4.262 -0.2151  0.2704 -0.1929
 4068TIP3    H133619   1.846   3.144   4.168 -2.1846 -1.5193  0.1870
 4068TIP3    H233620   1.913   3.067   4.279  2.3666  1.7500 -0.0015
 4069TIP3   OH233621   1.260   1.346   4.354 -0.7003 -0.5208 -0.1758
 4069TIP3    H133622   1.201   1.271   4.362  1.0615 -1.8947  0.8366
 4069TIP3    H233623   1.342   1.308   4.320  0.5313  0.7584  1.2065
 4070TIP3   OH233624   4.607   6.717  14.871 -0.1370 -0.3684 -0.8947
 4070TIP3    H133625   4.655   6.769  14.934 -3.3574  2.3092 -0.3556
 4070TIP3    H233626   4.589   6.777  14.798 -0.6289 -1.9241 -2.1200
 4071TIP3   OH233627   1.309   1.130  12.936  0.0476  0.7013  0.5583
 4071TIP3    H133628   1.331   1.222  12.954 -0.0324  0.8612 -0.1375
 4071TIP3    H233629   1.244   1.107  13.002  0.3558  1.0294  0.9797
 4072TIP3   OH233630   2.100   2.542  16.094 -0.1936 -0.0861 -0.0508
 4072TIP3    H133631   2.121   2.635  16.095 -2.7933  0.6251 -1.0739
 4072TIP3    H233632   2.095   2.519  16.001  0.1685 -1.1930  0.1846
 4073TIP3   OH233633   2.880   0.505   5.621  1.1402  0.3357 -0.2364
 4073TIP3    H133634   2.883   0.574   5.555 -0.6628  2.0172  1.3123
 4073TIP3    H233635   2.789   0.476   5.622  1.6577 -1.4076 -0.1536
 4074TIP3   OH233636   2.905   3.239   3.919  0.4357 -0.4749 -0.0064
 4074TIP3    H133637   2.981   3.206   3.872  1.4224  0.3201  0.9978
 4074TIP3    H233638   2.880   3.167   3.976 -1.7610 -2.0913 -2.7204
 4075TIP3   OH233639   0.629   3.196   1.632 -0.5005 -0.3496 -0.1551
 4075TIP3    H133640   0.681   3.133   1.583 -2.2599 -2.4005  0.4484
 4075TIP3    H233641   0.569   3.233   1.567  1.1697  1.5489 -0.7179
 4076TIP3   OH233642   2.488   4.018   2.681 -0.3546 -0.4977 -0.2989
 4076TIP3    H133643   2.535   3.983   2.605  0.4379 -2.0948  0.8696
 4076TIP3    H233644   2.557   4.045   2.742 -0.9343 -1.1480  0.6802
 4077TIP3   OH233645   3.951   2.740   6.133  0.3212 -0.4144 -0.2746
 4077TIP3    H133646   3.922   2.650   6.149  1.7855 -0.7367  0.6912
 4077TIP3    H233647   4.037   2.731   6.093  1.7322  0.4960  2.2755
 4078TIP3   OH233648   1.691   1.153  12.476 -0.0275  0.2408  0.0972
 4078TIP3    H133649   1.648   1.179  12.395 -0.3520  2.2919  0.8525
 4078TIP3    H233650   1.636   1.085  12.513 -0.9663  0.6923 -0.4516
 4079TIP3   OH233651   5.972   4.335  15.877 -0.0353 -0.2882  0.3796
 4079TIP3    H133652   5.907   4.397  15.845  0.3096  0.5961  1.3499
 4079TIP3    H233653   6.010   4.377  15.954  1.3012 -1.0240  0.1550
 4080TIP3   OH233654   0.750   5.421  14.280 -0.2363 -0.6934 -0.0737
 4080TIP3    H133655   0.716   5.335  14.258 -0.2942 -0.7324  0.1642
 4080TIP3    H233656   0.697   5.449  14.355  0.0447 -0.6211  0.0986
 4081TIP3   OH233657   6.177   5.873  14.067 -0.3612  0.2707 -0.3819
 4081TIP3    H133658   6.104   5.813  14.081  0.5922 -0.8595 -0.0602
 4081TIP3    H233659   6.255   5.818  14.074  0.5574  1.5514 -0.0593
 4082TIP3   OH233660   1.946   2.444  16.319 -0.6574 -0.2789  0.5082
 4082TIP3    H133661   1.913   2.354  16.324 -0.5925 -0.3028  0.5179
 4082TIP3    H233662   1.948   2.463  16.225 -0.0144 -0.5386  0.4631
 4083TIP3   OH233663   1.128   1.012  17.153  0.3051  0.4043  0.2767
 4083TIP3    H133664   1.147   1.074  17.083  0.2221 -0.0436 -0.1431
 4083TIP3    H233665   1.211   1.002  17.199  0.3697  0.6692  0.2241
 4084TIP3   OH233666   4.037   3.569   3.940  0.1699 -0.4607  0.2432
 4084TIP3    H133667   4.094   3.494   3.954  0.9182  0.0618  0.0354
 4084TIP3    H233668   4.095   3.645   3.943 -0.6147  0.1444  0.7422
 4085TIP3   OH233669   4.763   2.713  16.052  0.3212  0.2440 -0.2755
 4085TIP3    H133670   4.734   2.712  15.961  0.8332 -1.3293 -0.4625
 4085TIP3    H233671   4.709   2.646  16.094  0.1059  0.9458  0.5756
 4086TIP3   OH233672   4.853   1.426  14.949  0.1426  0.5441  0.0305
 4086TIP3    H133673   4.882   1.504  14.996 -2.4380  0.9023  1.1954
 4086TIP3    H233674   4.932   1.373  14.940  1.5956  2.4444  0.8478
 4087TIP3   OH233675   1.360   5.626  16.046  0.4192 -0.3230 -0.0829
 4087TIP3    H133676   1.328   5.550  15.998  0.0019 -0.2057  0.0070
 4087TIP3    H233677   1.283   5.662  16.088  0.4471  0.7042 -0.8770
 4088TIP3   OH233678   3.478   0.283  14.467 -0.4971  0.3946  0.0761
 4088TIP3    H133679   3.508   0.207  14.517 -1.3356  0.8205  1.2561
 4088TIP3    H233680   3.391   0.301  14.501 -2.2956 -0.8906 -3.3273
 4089TIP3   OH233681   4.358   5.087   1.886 -0.1907 -0.0532 -0.0683
 4089TIP3    H133682   4.321   5.083   1.798 -2.4804  2.0337  0.7053
 4089TIP3    H233683   4.297   5.036   1.940  1.0256 -1.0629  0.3974
 4090TIP3   OH233684   1.706   1.374  16.661 -0.1260 -0.0502 -0.0253
 4090TIP3    H133685   1.711   1.427  16.582 -0.0686  0.1192  0.0892
 4090TIP3    H233686   1.651   1.425  16.721 -0.0819 -0.1271  0.0810
 4091TIP3   OH233687   3.459   1.483   0.128  0.4045 -0.1040  0.5148
 4091TIP3    H133688   3.520   1.552   0.103 -0.4100  0.5161  0.2158
 4091TIP3    H233689   3.432   1.444   0.045 -0.6955  0.5767  0.5349
 4092TIP3   OH233690   6.393   0.592  11.605 -0.4519  0.3635 -0.3858
 4092TIP3    H133691   6.480   0.616  11.575 -0.2432  0.2110  0.0976
 4092TIP3    H233692   6.354   0.545  11.531  0.0448  0.0145 -0.4262
 4093TIP3   OH233693   2.009   3.779   4.985 -0.6903  0.0901 -0.0847
 4093TIP3    H133694   1.922   3.819   4.975 -1.3134 -0.2256  2.9812
 4093TIP3    H233695   1.993   3.685   4.974 -0.4164  0.1367 -0.9789
 4094TIP3   OH233696   4.882   6.040  12.055 -0.1426 -0.0322  0.9578
 4094TIP3    H133697   4.821   6.039  11.982  1.1788  0.1307 -0.1923
 4094TIP3    H233698   4.960   6.085  12.021  0.8442 -0.7450  2.1752
 4095TIP3   OH233699   5.409   3.980  12.797  0.4541  0.1578 -0.2881
 4095TIP3    H133700   5.327   4.000  12.753 -0.6676 -0.5805  1.3428
 4095TIP3    H233701   5.476   3.986  12.729 -0.9408  0.8263 -1.6478
 4096TIP3   OH233702   2.534   4.691   3.353 -0.3221 -0.1061 -0.7483
 4096TIP3    H133703   2.547   4.656   3.442 -0.4712  2.2862  0.2829
 4096TIP3    H233704   2.490   4.620   3.306  0.9194 -1.9388  0.6702
 4097TIP3   OH233705   5.465   0.026  16.017  0.1119  0.5611 -0.1451
 4097TIP3    H133706   5.466   0.013  15.922  2.8319 -2.6779  0.1288
 4097TIP3    H233707   5.491   0.117  16.029  0.9092  0.7112 -2.4945
 4098TIP3   OH233708   6.057   0.267  11.795 -0.0024  0.0050 -0.3698
 4098TIP3    H133709   6.114   0.292  11.722  0.5791 -1.9375 -0.6167
 4098TIP3    H233710   6.100   0.303  11.873  0.3198  0.5365 -0.7864
 4099TIP3   OH233711   2.914   4.940  13.049 -0.3841  0.6101 -0.3171
 4099TIP3    H133712   2.870   5.025  13.052  1.4592  1.7050 -2.0792
 4099TIP3    H233713   3.005   4.960  13.070  0.1285 -0.8747 -1.0292
 4100TIP3   OH233714   4.195   1.130  17.356 -0.4687  0.6080 -0.6952
 4100TIP3    H133715   4.130   1.072  17.316  0.0551  0.8192 -1.8649
 4100TIP3    H233716   4.150   1.165  17.433 -1.4864  0.1823 -1.0708
 4101TIP3   OH233717   6.421   6.622   5.005 -0.4679 -0.8393 -0.1525
 4101TIP3    H133718   6.515   6.617   4.990 -0.5542 -0.7469 -0.7536
 4101TIP3    H233719   6.412   6.634   5.099  0.2060  1.5356 -0.3338
 4102TIP3   OH233720   1.585   1.902  16.508 -0.3103  0.6550  0.2879
 4102TIP3    H133721   1.618   1.879  16.595  0.3650  0.9190  0.1089
 4102TIP3    H233722   1.491   1.914  16.520 -0.0716  1.6923  1.1925
 4103TIP3   OH233723   3.607   4.303  16.123  0.0549 -0.5730 -0.0810
 4103TIP3    H133724   3.668   4.375  16.140 -0.2172 -0.0197 -1.3283
 4103TIP3    H233725   3.520   4.341  16.139 -0.0152 -1.2799  1.4284
 4104TIP3   OH233726   0.452   5.804  10.747  0.1735 -0.7578 -0.5217
 4104TIP3    H133727   0.480   5.894  10.729  0.6109 -0.9533 -0.8305
 4104TIP3    H233728   0.361   5.813  10.776  0.4297 -0.1491  0.1450
 4105TIP3   OH233729   4.310   5.163   2.384  0.5994  0.0388 -1.0717
 4105TIP3    H133730   4.228   5.118   2.365  0.7363 -0.9889  0.6153
 4105TIP3    H233731   4.359   5.102   2.438  0.1750  2.6846  2.6809
 4106TIP3   OH233732   6.683   4.576  14.243 -0.4070 -0.2072 -0.0061
 4106TIP3    H133733   6.625   4.652  14.246  0.2610  0.3494 -0.8606
 4106TIP3    H233734   6.630   4.508  14.201 -1.2135 -0.4281  1.3110
 4107TIP3   OH233735   1.002   3.863  11.569  0.0880 -0.1072  0.3341
 4107TIP3    H133736   0.945   3.873  11.493 -1.1342 -3.5230  0.6374
 4107TIP3    H233737   1.088   3.890  11.538 -0.5578 -0.5114 -1.9963
 4108TIP3   OH233738   0.039   3.579  15.919 -0.3491  0.1577  0.0664
 4108TIP3    H133739   0.014   3.508  15.977 -1.3520 -1.8732 -2.6481
 4108TIP3    H233740   0.108   3.542  15.864  1.2407  2.3003  0.4795
 4109TIP3   OH233741   1.352   0.181   4.758  0.3238 -0.4601 -0.8164
 4109TIP3    H133742   1.381   0.100   4.800 -2.1946 -0.8036  0.4705
 4109TIP3    H233743   1.348   0.245   4.829  0.9621  0.4385 -1.5647
 4110TIP3   OH233744   6.533   5.108   6.092 -0.2339  0.2590 -0.0535
 4110TIP3    H133745   6.554   5.017   6.068 -0.5724 -0.4542  2.1711
 4110TIP3    H233746   6.613   5.141   6.132 -0.3296  0.7219 -0.2416
 4111TIP3   OH233747   0.073   2.302   4.420 -0.0914 -0.1977 -0.6510
 4111TIP3    H133748   0.009   2.355   4.468  0.1997 -1.3608  1.0927
 4111TIP3    H233749   0.128   2.264   4.488  1.4075 -0.5826 -2.0267
 4112TIP3   OH233750   2.559   4.810  12.613  0.2500 -0.6557  0.4587
 4112TIP3    H133751   2.623   4.854  12.556  0.5332 -3.5888 -1.7680
 4112TIP3    H233752   2.478   4.810  12.562 -1.4211  2.1698  2.8577
 4113TIP3   OH233753   3.490   2.372  17.222  0.0556 -0.0089 -0.3872
 4113TIP3    H133754   3.543   2.309  17.271  0.6112  1.5639  1.1455
 4113TIP3    H233755   3.400   2.345  17.239  0.2924 -0.6024 -0.0403
 4114TIP3   OH233756   4.670   0.236   0.937  0.3723  0.6580  0.6485
 4114TIP3    H133757   4.755   0.217   0.898 -0.8052 -0.7760 -1.3946
 4114TIP3    H233758   4.617   0.271   0.865 -2.0112 -2.3946  0.7259
 4115TIP3   OH233759   3.401   1.371  17.291  0.4059 -0.7146 -0.5051
 4115TIP3    H133760   3.483   1.389  17.245  0.5510  0.1881  0.0832
 4115TIP3    H233761   3.335   1.418  17.241  0.7417  1.3612  0.8571
 4116TIP3   OH233762   1.369   3.843  13.408  0.1170  0.2790 -0.3470
 4116TIP3    H133763   1.419   3.921  13.429  0.7170 -0.0324 -0.6084
 4116TIP3    H233764   1.362   3.844  13.313  0.0174  0.0796 -0.3416
 4117TIP3   OH233765   3.932   4.553  11.843 -0.4909 -0.5877 -0.3974
 4117TIP3    H133766   3.870   4.550  11.916 -1.2601 -0.6027 -1.0407
 4117TIP3    H233767   4.016   4.572  11.884 -0.6471 -1.9918  0.6474
 4118TIP3   OH233768   2.549   4.990   4.787 -0.4192  0.2257  0.5550
 4118TIP3    H133769   2.602   5.009   4.865 -0.0738 -0.2010  0.4335
 4118TIP3    H233770   2.498   5.070   4.773  2.2205  1.7944 -0.9582
 4119TIP3   OH233771   0.759   2.350   3.029 -0.5202  0.0800 -0.7429
 4119TIP3    H133772   0.842   2.360   3.074  0.7138  0.4524 -2.9356
 4119TIP3    H233773   0.706   2.425   3.057  0.2465  0.3685 -0.0559
 4120TIP3   OH233774   1.044   5.125  14.970  0.5687 -0.4320 -0.2156
 4120TIP3    H133775   1.106   5.118  14.897 -0.4786 -0.8128 -1.0951
 4120TIP3    H233776   0.999   5.208  14.956  1.4864  0.2978  0.9413
 4121TIP3   OH233777   2.580   3.281   5.961  0.0879 -0.6095  0.0423
 4121TIP3    H133778   2.653   3.241   5.913 -0.5837 -0.2834 -1.3069
 4121TIP3    H233779   2.589   3.248   6.050 -0.3685 -3.7515 -0.9306
 4122TIP3   OH233780   5.388   5.476   0.001  0.3214  0.4027 -0.3455
 4122TIP3    H133781   5.309   5.446  -0.045 -0.4590  1.3081  0.3579
 4122TIP3    H233782   5.458   5.469  -0.064  0.2235 -2.8239 -0.2645
 4123TIP3   OH233783   3.141   3.004  17.297  0.0477  0.2193 -0.0396
 4123TIP3    H133784   3.097   3.086  17.317 -0.6546 -0.5383  1.6845
 4123TIP3    H233785   3.071   2.945  17.267  0.3494 -0.1189 -0.0880
 4124TIP3   OH233786   5.302   6.705  16.789  0.1058  0.1282 -0.2513
 4124TIP3    H133787   5.225   6.675  16.742 -0.1643  1.1347 -0.4792
 4124TIP3    H233788   5.364   6.632  16.783 -0.5685 -0.4278 -0.6460
 4125TIP3   OH233789   1.770   0.593  17.053  0.0348  0.6160  0.0151
 4125TIP3    H133790   1.842   0.535  17.026  0.4982  1.3454 -0.3453
 4125TIP3    H233791   1.786   0.609  17.146 -0.9822 -1.0691  0.5276
 4126TIP3   OH233792   5.187   5.522   0.450 -0.0457  0.2151  0.0077
 4126TIP3    H133793   5.194   5.568   0.534 -0.5218  1.9558 -0.8638
 4126TIP3    H233794   5.266   5.467   0.446 -0.3125 -0.3701  1.8403
 4127TIP3   OH233795   0.847   5.547  11.821  0.2950  0.0121 -0.0004
 4127TIP3    H133796   0.759   5.511  11.822 -0.2802  1.2584 -1.3175
 4127TIP3    H233797   0.892   5.503  11.893 -1.9021  0.5710  1.8433
 4128TIP3   OH233798   0.581   3.142  10.890 -0.3114  0.5283 -0.1296
 4128TIP3    H133799   0.642   3.215  10.902  3.8200 -2.6184  0.1154
 4128TIP3    H233800   0.551   3.150  10.800  0.4004  2.2409 -0.2521
 4129TIP3   OH233801   5.338   2.401   0.078 -0.5091 -0.2571  0.3903
 4129TIP3    H133802   5.421   2.354   0.090  0.8036  1.6903 -0.6252
 4129TIP3    H233803   5.301   2.362  -0.002 -1.1129 -1.8003  1.3714
 4130TIP3   OH233804   6.132   3.863   3.954  0.2597 -0.3344  0.4000
 4130TIP3    H133805   6.205   3.812   3.987  1.0943  1.7701  2.0676
 4130TIP3    H233806   6.059   3.841   4.013 -0.0936 -1.4234 -0.4270
 4131TIP3   OH233807   6.126   4.396   4.620  0.0132  0.1882 -0.1514
 4131TIP3    H133808   6.108   4.394   4.526 -0.5400  0.4773 -0.0564
 4131TIP3    H233809   6.118   4.305   4.648 -0.6164  0.2151 -0.2407
 4132TIP3   OH233810   3.409   4.177   4.663 -0.1617 -0.0601  0.0407
 4132TIP3    H133811   3.485   4.166   4.720 -0.2433  1.2340  0.4479
 4132TIP3    H233812   3.343   4.218   4.718 -1.2397 -1.3255 -0.2651
 4133TIP3   OH233813   1.645   6.365   2.042  0.2240 -0.5804 -0.1419
 4133TIP3    H133814   1.680   6.454   2.041  1.7748 -1.1612 -0.6815
 4133TIP3    H233815   1.572   6.368   2.104  0.7686  0.8753  0.4642
 4134TIP3   OH233816   3.566   5.938   6.511 -0.7381  0.3249 -0.9034
 4134TIP3    H133817   3.588   5.845   6.503  1.8165  0.6271  1.1159
 4134TIP3    H233818   3.499   5.941   6.580  0.6237  0.0572  0.4858
 4135TIP3   OH233819   4.332   6.014  13.498  0.4110  0.0555  0.4239
 4135TIP3    H133820   4.414   5.996  13.452  0.1092  1.0078 -0.5443
 4135TIP3    H233821   4.358   6.059  13.578  0.8605 -0.1601  0.4024
 4136TIP3   OH233822   2.356   4.887   5.852 -0.1004  0.2563 -0.0055
 4136TIP3    H133823   2.370   4.793   5.862 -0.9701  0.0995 -0.2451
 4136TIP3    H233824   2.302   4.895   5.773 -0.1851  0.9415  0.1202
 4137TIP3   OH233825   0.371   4.184  13.078 -0.1858  0.1095 -0.7778
 4137TIP3    H133826   0.457   4.151  13.105  0.0867  0.3096 -1.3923
 4137TIP3    H233827   0.315   4.107  13.075  0.0170 -0.0482 -0.5544
 4138TIP3   OH233828   1.914   2.400   0.149 -0.5388 -0.1633  0.0483
 4138TIP3    H133829   1.851   2.341   0.107 -0.5479  0.6444 -1.1231
 4138TIP3    H233830   1.861   2.475   0.176 -0.3695 -0.2630  0.6562
 4139TIP3   OH233831   5.350   4.478   1.398  0.5250  0.6985 -0.0418
 4139TIP3    H133832   5.315   4.431   1.322 -0.7263  1.2713  0.1499
 4139TIP3    H233833   5.328   4.570   1.382  1.2400  0.9767  0.4911
 4140TIP3   OH233834   4.777   2.342  17.391 -0.0215 -0.2013  0.1895
 4140TIP3    H133835   4.699   2.336  17.446  0.2879  0.2374  0.6940
 4140TIP3    H233836   4.768   2.270  17.329 -1.3129  0.4579 -0.4176
 4141TIP3   OH233837   1.052   1.199   0.793  0.4904 -0.0720  0.6915
 4141TIP3    H133838   1.031   1.157   0.877  0.9875 -0.9864  0.3688
 4141TIP3    H233839   1.083   1.286   0.818 -1.8943  0.6661  1.2789
 4142TIP3   OH233840   4.047   4.807   2.408  0.6972 -0.0255  0.5055
 4142TIP3    H133841   4.119   4.756   2.446  1.1705 -0.9017 -1.4263
 4142TIP3    H233842   4.001   4.744   2.352  0.2348  1.2554 -0.6000
 4143TIP3   OH233843   1.661   1.852  14.623 -0.1511  0.1766 -0.0280
 4143TIP3    H133844   1.665   1.826  14.715  1.0404 -1.5049 -0.5131
 4143TIP3    H233845   1.574   1.824  14.594 -0.4761  0.5798  0.5130
 4144TIP3   OH233846   2.997   1.991  15.555  0.1337 -0.2291 -0.3641
 4144TIP3    H133847   2.942   2.061  15.519 -0.0927  1.1680  2.3867
 4144TIP3    H233848   3.085   2.012  15.525 -0.0356  0.8668 -0.1483
 4145TIP3   OH233849   1.002   5.758  11.754  0.3734 -0.3473  0.3155
 4145TIP3    H133850   0.936   5.789  11.692  0.5666  0.5245  0.5270
 4145TIP3    H233851   0.966   5.677  11.790  0.0663 -0.6372 -0.6122
 4146TIP3   OH233852   1.101   1.429  14.962 -0.1117  0.2393 -0.1108
 4146TIP3    H133853   1.119   1.335  14.952  2.3094  0.6720 -0.4700
 4146TIP3    H233854   1.056   1.436  15.046 -1.3958 -1.3367 -0.6119
 4147TIP3   OH233855   2.625   1.092  14.759 -0.9032  0.3849  0.1399
 4147TIP3    H133856   2.688   1.105  14.688 -0.4628 -0.6341  0.3260
 4147TIP3    H233857   2.580   1.176  14.767 -0.1388  0.8726 -0.5500
 4148TIP3   OH233858   3.004   3.475   1.239 -0.2761  0.5923 -0.4923
 4148TIP3    H133859   2.929   3.437   1.192  0.0673 -0.6620 -0.0883
 4148TIP3    H233860   2.986   3.569   1.242 -2.7705  0.1607  1.1613
 4149TIP3   OH233861   4.465   1.756   6.351 -0.0993 -0.5433 -0.0575
 4149TIP3    H133862   4.472   1.682   6.412  0.3290 -0.8118 -0.4248
 4149TIP3    H233863   4.552   1.796   6.353 -0.2602 -0.1978 -0.0434
 4150TIP3   OH233864   5.871   3.948  16.356 -0.6043 -0.2217 -0.0807
 4150TIP3    H133865   5.863   3.866  16.404  0.8199 -1.0103 -1.1091
 4150TIP3    H233866   5.965   3.956  16.338 -0.8770  0.9984 -1.0982
 4151TIP3   OH233867   0.830   3.015   1.550  0.6820  0.6446  0.2342
 4151TIP3    H133868   0.886   3.025   1.473  0.3508  1.1238  0.0529
 4151TIP3    H233869   0.843   2.925   1.578  2.1182  0.9542  0.6391
 4152TIP3   OH233870   3.657   3.749   2.590 -0.1748 -0.0389 -0.6369
 4152TIP3    H133871   3.595   3.710   2.652  0.2617 -0.1186 -0.2486
 4152TIP3    H233872   3.700   3.673   2.550 -2.3417 -0.1568 -3.0687
 4153TIP3   OH233873   6.521   6.491  14.089  0.0116  0.2805  0.7850
 4153TIP3    H133874   6.616   6.487  14.104  0.3718  1.4935 -0.9690
 4153TIP3    H233875   6.495   6.577  14.120 -1.0818 -0.9746  3.7673
 4154TIP3   OH233876   6.359   3.525   1.696  0.0485  0.0969  0.5171
 4154TIP3    H133877   6.329   3.438   1.722  1.7791 -0.1069  2.0497
 4154TIP3    H233878   6.314   3.585   1.755  0.9209 -0.0254  1.3341
 4155TIP3   OH233879   5.510   5.901   5.179  0.0790 -0.3397  0.7443
 4155TIP3    H133880   5.486   5.817   5.139  0.7171 -0.6781  1.0781
 4155TIP3    H233881   5.455   5.965   5.133 -0.1249 -0.8872  0.2131
 4156TIP3   OH233882   2.464   3.772  11.631 -0.2410 -0.0777  0.0473
 4156TIP3    H133883   2.477   3.784  11.537 -0.8684  0.3465  0.0092
 4156TIP3    H233884   2.501   3.685  11.650 -0.5039 -0.3512 -0.6705
 4157TIP3   OH233885   2.310   3.674  15.204 -0.4657 -0.7379 -0.6146
 4157TIP3    H133886   2.359   3.731  15.264 -0.2876  0.6859 -2.0383
 4157TIP3    H233887   2.290   3.597  15.256  1.8578 -0.6642  0.5512
 4158TIP3   OH233888   0.164   6.355  13.285 -0.3365  0.0978 -0.1391
 4158TIP3    H133889   0.106   6.343  13.360  1.0078  0.7356  1.0704
 4158TIP3    H233890   0.184   6.449  13.285 -1.4031  0.3701 -2.1777
 4159TIP3   OH233891   5.830   0.750   3.192  0.0154 -0.0514 -0.7295
 4159TIP3    H133892   5.896   0.688   3.221  0.3788  0.9132  0.5723
 4159TIP3    H233893   5.759   0.743   3.256  0.9543  2.3060  0.6959
 4160TIP3   OH233894   3.799   3.838   2.134  0.3368 -0.3694  0.1454
 4160TIP3    H133895   3.741   3.828   2.209 -1.4715 -0.8498 -1.2384
 4160TIP3    H233896   3.852   3.758   2.134  0.9084 -0.0120  1.3219
 4161TIP3   OH233897   2.727   3.446  13.717 -0.4545 -0.1462 -0.3923
 4161TIP3    H133898   2.663   3.484  13.656 -0.4245 -0.6182 -0.7233
 4161TIP3    H233899   2.787   3.397  13.661  0.8302  1.1343 -0.2021
 4162TIP3   OH233900   1.756   1.359   1.655 -0.2883 -0.7004 -0.0306
 4162TIP3    H133901   1.824   1.381   1.591  0.0627 -1.0373  0.2211
 4162TIP3    H233902   1.784   1.275   1.693 -0.0430 -0.0942  1.1765
 4163TIP3   OH233903   2.250   0.157   2.616  0.2005  0.1092 -0.2052
 4163TIP3    H133904   2.181   0.103   2.578 -0.3306 -0.1881  1.1183
 4163TIP3    H233905   2.329   0.132   2.568 -0.1522 -1.4155 -0.0547
 4164TIP3   OH233906   5.046   4.703  13.026  1.2260  0.0297 -0.3659
 4164TIP3    H133907   5.107   4.630  13.037  0.9282 -0.1174  0.4036
 4164TIP3    H233908   5.058   4.756  13.106 -0.2032 -0.4275  0.1814
 4165TIP3   OH233909   0.080   1.990  12.845 -0.2485  0.2291 -0.6429
 4165TIP3    H133910   0.097   2.008  12.753  1.9397  0.2916 -0.2811
 4165TIP3    H233911   0.079   1.894  12.851 -1.8539  0.2106 -0.9447
 4166TIP3   OH233912   5.609   0.612  13.201  0.0219 -0.2161  0.2100
 4166TIP3    H133913   5.547   0.543  13.226  0.8138 -0.5897  1.2324
 4166TIP3    H233914   5.645   0.642  13.284  1.6719 -0.4547 -0.3932
 4167TIP3   OH233915   1.246   5.744  16.488  0.3798 -0.0964  0.8324
 4167TIP3    H133916   1.299   5.756  16.410 -0.0410 -0.7894  0.4317
 4167TIP3    H233917   1.160   5.718  16.455  0.0595  0.0802  1.5073
 4168TIP3   OH233918   4.450   1.660   4.191 -0.1944 -0.0718  0.1402
 4168TIP3    H133919   4.472   1.572   4.162  1.7388  0.0841  0.9928
 4168TIP3    H233920   4.494   1.670   4.275  0.5828  2.0910 -0.4554
 4169TIP3   OH233921   5.836   4.337  15.285 -0.5488 -0.4727  0.1597
 4169TIP3    H133922   5.931   4.332  15.273 -0.4430 -1.6432  1.2910
 4169TIP3    H233923   5.801   4.280  15.217 -0.4065 -0.5078  0.1134
 4170TIP3   OH233924   0.757   1.363  11.504  0.1051 -0.4544 -0.3026
 4170TIP3    H133925   0.817   1.293  11.479  0.2404  0.0240 -1.3819
 4170TIP3    H233926   0.688   1.360  11.438  0.1454  0.4512 -0.3983
 4171TIP3   OH233927   0.194   4.572   2.493  0.3322 -0.4974 -0.1008
 4171TIP3    H133928   0.246   4.625   2.552  1.3796 -0.4015 -1.0940
 4171TIP3    H233929   0.229   4.483   2.503  0.3955 -0.5127 -0.4409
 4172TIP3   OH233930   5.843   5.927   4.939  0.0727 -1.1558 -0.5807
 4172TIP3    H133931   5.854   5.984   5.015 -0.5317 -1.6732 -0.0915
 4172TIP3    H233932   5.866   5.840   4.971  0.2519 -1.3087 -1.1157
 4173TIP3   OH233933   0.319   3.307   2.125 -0.4559  0.0974  0.4114
 4173TIP3    H133934   0.269   3.266   2.055  0.4123  0.8265 -0.6704
 4173TIP3    H233935   0.360   3.384   2.084  2.0589 -0.8020  1.0552
 4174TIP3   OH233936   3.690   0.167  12.977 -0.3603 -0.6597  0.2706
 4174TIP3    H133937   3.684   0.252  12.934 -2.7374 -0.1311  1.4519
 4174TIP3    H233938   3.781   0.159  13.004  0.4792  0.3723 -1.9965
 4175TIP3   OH233939   0.490   5.630  13.585 -0.3037  0.1942 -0.4584
 4175TIP3    H133940   0.517   5.549  13.542 -1.1376  0.0698 -0.7567
 4175TIP3    H233941   0.564   5.653  13.641  1.0391  0.5938 -2.2648
 4176TIP3   OH233942   3.543   1.581   4.887 -0.4489 -0.3116 -0.5632
 4176TIP3    H133943   3.474   1.590   4.822  1.3180  0.7240 -2.4110
 4176TIP3    H233944   3.604   1.518   4.850 -0.0827 -0.7607  0.7468
 4177TIP3   OH233945   1.562   1.814   1.943  0.5995  0.2162  1.2091
 4177TIP3    H133946   1.645   1.770   1.962  0.1909 -0.5357  1.2657
 4177TIP3    H233947   1.581   1.865   1.863  0.4247 -2.0074 -0.3495
 4178TIP3   OH233948   3.677   0.392  12.095  0.1161  0.1238 -0.4536
 4178TIP3    H133949   3.587   0.418  12.079  0.6662  1.7664 -1.0851
 4178TIP3    H233950   3.688   0.312  12.043 -1.1830 -0.5642  0.2811
 4179TIP3   OH233951   4.878   0.047   0.654  0.2041 -0.6323  0.2747
 4179TIP3    H133952   4.801  -0.005   0.677 -0.7401  0.4346 -0.3589
 4179TIP3    H233953   4.902   0.016   0.566  0.0784 -0.5045  0.1942
 4180TIP3   OH233954   3.084   2.654  15.092  0.1006 -0.1272  0.7156
 4180TIP3    H133955   3.070   2.746  15.068 -3.3949 -0.2881  1.5451
 4180TIP3    H233956   3.173   2.651  15.127  0.7557  2.6523 -0.4642
 4181TIP3   OH233957   1.338   0.926  15.083  0.2673  0.5073  0.4954
 4181TIP3    H133958   1.273   0.966  15.141 -0.3587 -1.1894  1.0120
 4181TIP3    H233959   1.423   0.948  15.123 -0.1032  0.5232  1.2831
 4182TIP3   OH233960   5.486   4.020  13.053 -0.2210  0.5689  0.6244
 4182TIP3    H133961   5.486   4.011  12.958  0.1551  1.1729  0.5562
 4182TIP3    H233962   5.571   3.986  13.080 -1.1985 -1.7001  0.9916
 4183TIP3   OH233963   4.361   2.152   3.949 -0.3058 -0.1402  0.3589
 4183TIP3    H133964   4.416   2.109   3.883  1.2987 -0.2978  1.7410
 4183TIP3    H233965   4.386   2.111   4.031 -0.6192  1.6280  1.3767
 4184TIP3   OH233966   0.711   2.819   4.707 -0.0793  0.4486 -0.2479
 4184TIP3    H133967   0.711   2.804   4.802  0.5962 -1.8744 -0.5723
 4184TIP3    H233968   0.780   2.884   4.694  1.7367 -1.1845  0.6323
 4185TIP3   OH233969   3.791   1.567   4.279  0.3998 -0.2986  0.3021
 4185TIP3    H133970   3.702   1.533   4.285  0.3350 -0.2800 -0.4400
 4185TIP3    H233971   3.837   1.504   4.223  1.3433 -1.2644  2.0543
 4186TIP3   OH233972   0.206   3.388   0.208  0.2207 -0.2884 -0.3566
 4186TIP3    H133973   0.270   3.445   0.251  1.2842 -1.4966 -0.2602
 4186TIP3    H233974   0.183   3.434   0.127 -1.6200  1.8990  1.3146
 4187TIP3   OH233975   6.479   4.139   4.750 -0.2455  0.4725  0.5673
 4187TIP3    H133976   6.525   4.093   4.680  1.6821  2.7942  0.1844
 4187TIP3    H233977   6.438   4.214   4.706 -2.1554 -0.0166  1.3905
 4188TIP3   OH233978   4.542   6.305  11.244 -0.5513 -0.0071 -0.3140
 4188TIP3    H133979   4.583   6.227  11.280 -3.7520 -1.0403  1.5612
 4188TIP3    H233980   4.556   6.299  11.149  1.2682 -1.5667  0.0187
 4189TIP3   OH233981   4.360   2.499   3.587 -0.2026  0.1825 -0.4206
 4189TIP3    H133982   4.283   2.520   3.639 -0.2727  1.7442 -1.0884
 4189TIP3    H233983   4.349   2.407   3.563 -3.0870  0.9014 -2.4388
 4190TIP3   OH233984   4.072   4.967   2.652  0.1000  0.2014 -0.2393
 4190TIP3    H133985   4.027   4.900   2.703 -0.0470  0.1032 -0.4980
 4190TIP3    H233986   4.077   4.932   2.563  0.6315  0.2384 -0.2299
 4191TIP3   OH233987   5.312   1.457  12.750  0.0536 -0.2851 -0.2676
 4191TIP3    H133988   5.242   1.423  12.695 -0.0579 -0.9812  0.2971
 4191TIP3    H233989   5.378   1.488  12.688 -0.8123  0.5357 -0.8070
 4192TIP3   OH233990   6.545   2.784   2.363  0.1765  0.3107  0.0387
 4192TIP3    H133991   6.579   2.821   2.444 -3.0023  1.5585  0.9562
 4192TIP3    H233992   6.509   2.699   2.389  2.0441 -0.7790 -0.8048
 4193TIP3   OH233993   2.133   4.061   2.827  0.0088  0.4138  0.3629
 4193TIP3    H133994   2.217   4.106   2.834  0.1990  0.1016  0.0938
 4193TIP3    H233995   2.114   4.059   2.733  1.0659 -1.9753  0.1316
 4194TIP3   OH233996   0.626   4.889   0.528 -0.6924  0.3760  1.0156
 4194TIP3    H133997   0.592   4.838   0.454 -1.1121  1.2659  0.5745
 4194TIP3    H233998   0.588   4.976   0.516 -0.7648  0.5409  2.2840
 4195TIP3   OH233999   4.780   3.722   4.366 -0.5086  0.2865  0.3441
 4195TIP3    H134000   4.767   3.672   4.285 -0.1041 -2.4115  1.8480
 4195TIP3    H234001   4.693   3.724   4.407 -0.4322  0.4585  0.4992
 4196TIP3   OH234002   1.135   4.678   3.712 -0.4533 -0.1255  0.2157
 4196TIP3    H134003   1.143   4.608   3.647  0.6755  0.3315 -0.1718
 4196TIP3    H234004   1.153   4.635   3.795 -0.3204 -0.4046  0.0461
 4197TIP3   OH234005   6.477   1.037  13.351  0.3923 -0.0929 -0.4136
 4197TIP3    H134006   6.487   1.110  13.290 -1.3108 -0.1754 -0.8457
 4197TIP3    H234007   6.525   1.064  13.429  0.1708  1.3154 -0.7336
 4198TIP3   OH234008   3.423   1.767   5.920 -0.1394 -0.2844  0.3262
 4198TIP3    H134009   3.489   1.832   5.944 -1.5385  1.2364  0.2212
 4198TIP3    H234010   3.400   1.725   6.003 -1.2682  1.3773  0.9023
 4199TIP3   OH234011   4.814   2.928  15.854 -0.0670  0.2917  0.3343
 4199TIP3    H134012   4.819   2.962  15.764 -0.8300 -1.3055 -0.3618
 4199TIP3    H234013   4.771   2.997  15.904  1.2797  1.6262 -0.2813
 4200TIP3   OH234014   5.322   2.514   3.447  0.2256 -0.1978  0.5887
 4200TIP3    H134015   5.391   2.462   3.486 -0.1153  0.4063  2.0602
 4200TIP3    H234016   5.321   2.488   3.355  1.0058 -1.7208  0.9825
 4201TIP3   OH234017   1.393   1.670   1.517 -0.9363  0.5355  0.7021
 4201TIP3    H134018   1.335   1.735   1.477 -2.5515 -0.6204  1.0830
 4201TIP3    H234019   1.465   1.721   1.553 -0.0127  1.7567 -2.5487
 4202TIP3   OH234020   1.475   1.259  15.561 -0.0095 -1.0619 -0.1129
 4202TIP3    H134021   1.512   1.334  15.607  0.1666 -0.7834 -0.7050
 4202TIP3    H234022   1.504   1.183  15.613  0.4577 -0.7746  0.0534
 4203TIP3   OH234023   4.331   3.655  12.551  0.0778 -0.5239  0.3780
 4203TIP3    H134024   4.377   3.677  12.471 -1.1866  1.2069  0.0675
 4203TIP3    H234025   4.311   3.562  12.543  0.3128 -0.4643 -1.1386
 4204TIP3   OH234026   6.533   4.352  14.133 -0.3370  0.8527  0.0475
 4204TIP3    H134027   6.483   4.270  14.130  0.8498  0.0243  1.3757
 4204TIP3    H234028   6.549   4.374  14.041  0.8905 -1.4421 -0.3552
 4205TIP3   OH234029   6.030   1.039   4.874  0.2361 -0.3249 -1.0560
 4205TIP3    H134030   6.036   0.994   4.790  2.1160  0.2236 -1.2663
 4205TIP3    H234031   6.117   1.029   4.913 -0.4869 -0.2307  0.6565
 4206TIP3   OH234032   1.978   6.217  12.408 -0.3697 -0.2610  0.8082
 4206TIP3    H134033   1.980   6.126  12.438  0.6187 -0.4912  0.1138
 4206TIP3    H234034   1.959   6.268  12.486 -3.3501 -1.1900  0.8231
 4207TIP3   OH234035   6.584   4.104  14.728  0.3917 -0.8125  0.7781
 4207TIP3    H134036   6.643   4.129  14.657  0.9514 -0.9674  1.1695
 4207TIP3    H234037   6.643   4.068  14.795  0.0951  0.8992  2.0239
 4208TIP3   OH234038   2.587   1.950  15.281  0.1430 -0.2645 -0.0634
 4208TIP3    H134039   2.581   2.024  15.221  0.9696 -0.3602 -0.2724
 4208TIP3    H234040   2.555   1.875  15.230 -1.6217  0.0940  0.4539
 4209TIP3   OH234041   4.345   0.219  13.103  1.1061 -0.0124 -0.5253
 4209TIP3    H134042   4.270   0.271  13.131  3.3765  2.5198  1.4052
 4209TIP3    H234043   4.369   0.256  13.018  1.4647  0.7237 -0.1144
 4210TIP3   OH234044   0.917   2.688   0.960 -0.4919  0.1105  0.0260
 4210TIP3    H134045   0.983   2.625   0.932 -1.0452 -0.0415 -0.9797
 4210TIP3    H234046   0.857   2.638   1.016 -0.8278 -0.2313 -0.6229
 4211TIP3   OH234047   0.869   1.591  16.889  0.5192 -0.0873  0.0962
 4211TIP3    H134048   0.778   1.570  16.911 -0.3610  2.5563 -0.6567
 4211TIP3    H234049   0.876   1.571  16.795  0.0678  1.4834 -0.3095
 4212TIP3   OH234050   4.367   2.501   2.330 -0.1312  0.0945 -0.2305
 4212TIP3    H134051   4.330   2.441   2.394 -1.1421  0.4598 -0.4652
 4212TIP3    H234052   4.459   2.510   2.357  0.1403 -1.7903 -0.3766
 4213TIP3   OH234053   3.862   1.936   1.563 -0.5393  0.3239  0.0427
 4213TIP3    H134054   3.819   1.977   1.638 -0.1347  0.3419  0.2619
 4213TIP3    H234055   3.930   1.998   1.537 -2.1420  1.4377 -1.7863
 4214TIP3   OH234056   2.551   0.037   1.153  0.0955 -0.2555 -0.3894
 4214TIP3    H134057   2.643   0.034   1.180 -0.2325 -0.1655  0.7697
 4214TIP3    H234058   2.549   0.108   1.087  0.7231  0.2344  0.0986
 4215TIP3   OH234059   3.435   0.938  10.767 -0.2168  0.3901 -0.3571
 4215TIP3    H134060   3.514   0.900  10.805 -0.7465 -1.3812 -0.9146
 4215TIP3    H234061   3.397   0.990  10.838 -0.6279 -2.0019  1.3122
 4216TIP3   OH234062   1.190   6.112  17.239 -0.2271  0.3994 -0.0065
 4216TIP3    H134063   1.145   6.195  17.222  1.1136  1.5420  1.6523
 4216TIP3    H234064   1.252   6.104  17.167  1.2279  2.0909  0.9497
 4217TIP3   OH234065   2.855   1.483   2.539 -0.0977  0.1556 -0.2450
 4217TIP3    H134066   2.945   1.453   2.548  0.4264  1.3479 -1.2252
 4217TIP3    H234067   2.826   1.502   2.628  0.8827  0.4497  0.0156
 4218TIP3   OH234068   2.379   3.763  11.331  0.5306  0.5092  0.0550
 4218TIP3    H134069   2.375   3.706  11.254 -0.2844  1.4276 -0.5990
 4218TIP3    H234070   2.318   3.834  11.312 -0.4498  0.2514  1.9820
 4219TIP3   OH234071   4.359   0.404   0.114 -0.4043 -0.2878 -0.3463
 4219TIP3    H134072   4.438   0.399   0.166 -0.7496  2.8917  0.7130
 4219TIP3    H234073   4.379   0.468   0.045 -1.5923 -0.4771 -0.9055
 4220TIP3   OH234074   4.779   3.930   1.555 -0.0854  0.5491  0.7869
 4220TIP3    H134075   4.817   4.014   1.529  1.7688 -0.1497  1.0152
 4220TIP3    H234076   4.695   3.952   1.595 -0.1255  2.1801 -0.1097
 4221TIP3   OH234077   0.002   4.465  12.764  0.0533  0.5400 -0.0240
 4221TIP3    H134078   0.043   4.418  12.690  2.5880  0.7244  1.1679
 4221TIP3    H234079  -0.064   4.404  12.797  1.1526 -0.9282 -0.4366
 4222TIP3   OH234080   2.883   1.702  11.544 -0.2780  0.1732  0.2547
 4222TIP3    H134081   2.800   1.658  11.526  0.8147 -1.3617 -1.3122
 4222TIP3    H234082   2.889   1.771  11.478  0.8341 -1.4004 -1.3676
 4223TIP3   OH234083   2.071   1.145  16.278  0.5315 -0.3576 -0.3387
 4223TIP3    H134084   2.000   1.096  16.238  1.9479 -3.5013  0.7063
 4223TIP3    H234085   2.120   1.080  16.328  1.3626  2.5417  2.9969
 4224TIP3   OH234086   1.568   4.899  17.298  0.2155 -0.4850  0.4871
 4224TIP3    H134087   1.640   4.948  17.258  0.2139 -0.2956  0.7170
 4224TIP3    H234088   1.534   4.957  17.365  0.3100 -0.8570  0.8639
 4225TIP3   OH234089   4.765   2.392  16.517 -0.1302  0.2578 -0.2999
 4225TIP3    H134090   4.823   2.467  16.525 -1.2395  1.2565 -1.2504
 4225TIP3    H234091   4.815   2.328  16.465  0.6858  0.4597  0.2220
 4226TIP3   OH234092   1.223   1.403  16.357  0.2280  0.1824  0.3432
 4226TIP3    H134093   1.150   1.426  16.414  1.0096  1.5566  0.8378
 4226TIP3    H234094   1.187   1.410  16.268 -0.8406 -1.4373  0.5995
 4227TIP3   OH234095   5.697   4.440   3.694 -0.1360 -0.1543 -0.2066
 4227TIP3    H134096   5.720   4.498   3.766  0.0622 -0.0186 -0.3807
 4227TIP3    H234097   5.713   4.352   3.729  0.3960 -0.0730 -0.2367
 4228TIP3   OH234098   2.050   0.202  12.860  0.3117  0.3593 -0.6340
 4228TIP3    H134099   2.045   0.106  12.855 -1.2641  0.4707 -2.3801
 4228TIP3    H234100   1.965   0.228  12.896  0.8139  1.1038  0.0355
 4229TIP3   OH234101   0.758   3.950  12.258  0.2773 -0.6175  0.1040
 4229TIP3    H134102   0.834   3.909  12.298 -0.3170 -1.8541  0.0110
 4229TIP3    H234103   0.690   3.944  12.326  0.7595  2.2814  0.9739
 4230TIP3   OH234104   2.607   3.089   3.668 -0.1902 -0.0726 -0.1161
 4230TIP3    H134105   2.634   3.101   3.577  0.4644 -1.9434 -0.2112
 4230TIP3    H234106   2.684   3.050   3.711 -1.3500 -1.7652  0.5589
 4231TIP3   OH234107   3.318   0.715  10.330 -0.7094 -0.0656  0.3610
 4231TIP3    H134108   3.334   0.794  10.382 -0.8337  0.1946  0.0147
 4231TIP3    H234109   3.224   0.698  10.341 -0.8207  0.2218 -0.0847
 4232TIP3   OH234110   4.779   0.275  15.774 -0.5686 -0.8230  0.4731
 4232TIP3    H134111   4.686   0.290  15.759 -0.4984 -0.2904  0.5503
 4232TIP3    H234112   4.788   0.180  15.776 -1.4865 -0.9172  2.7895
 4233TIP3   OH234113   2.818   5.472  12.601  0.1995 -0.1054  0.1360
 4233TIP3    H134114   2.728   5.504  12.593 -0.2195 -1.4423 -0.8704
 4233TIP3    H234115   2.814   5.405  12.669  0.9675  1.4982  1.8502
 4234TIP3   OH234116   0.532   6.191  15.232 -0.6894  0.2272  0.0360
 4234TIP3    H134117   0.498   6.222  15.316 -2.1468 -0.4902 -0.2719
 4234TIP3    H234118   0.612   6.144  15.255 -1.5545 -0.7667  1.1482
 4235TIP3   OH234119   3.885   2.428   1.918  0.0934  0.4074 -0.2820
 4235TIP3    H134120   3.879   2.489   1.991 -0.5341 -0.1425  0.1384
 4235TIP3    H234121   3.824   2.462   1.852  0.1199  0.5117 -0.2514
 4236TIP3   OH234122   3.179   6.057  13.017  0.1288 -0.4283  0.2939
 4236TIP3    H134123   3.192   6.148  12.991  0.1208 -0.8025 -1.0793
 4236TIP3    H234124   3.093   6.034  12.982 -0.2128 -0.7501  1.3063
 4237TIP3   OH234125   1.439   5.782   0.925  0.8999 -0.3773 -0.1486
 4237TIP3    H134126   1.474   5.704   0.969  0.5591 -0.1696  0.4967
 4237TIP3    H234127   1.350   5.758   0.901  0.7279 -0.1140  0.2292
 4238TIP3   OH234128   4.244   3.849   4.363 -0.2551  0.4030 -0.1369
 4238TIP3    H134129   4.207   3.821   4.446  2.3234 -1.2993  0.5694
 4238TIP3    H234130   4.262   3.767   4.316  0.8930  1.1961 -1.1490
 4239TIP3   OH234131   6.420   5.259   0.236 -0.0302 -0.2283 -0.1859
 4239TIP3    H134132   6.500   5.208   0.221 -1.2490 -1.7044 -2.1024
 4239TIP3    H234133   6.398   5.242   0.327 -0.1179 -2.8097 -0.6120
 4240TIP3   OH234134   1.255   3.005  12.354  0.6163 -0.1167 -0.2946
 4240TIP3    H134135   1.248   2.928  12.410 -0.6066 -1.0174 -1.6206
 4240TIP3    H234136   1.229   2.974  12.267 -0.1479  1.8533 -0.8228
 4241TIP3   OH234137   5.123   3.026  15.941  0.3598  0.0762 -0.0871
 4241TIP3    H134138   5.119   3.116  15.908  2.8552 -0.0424 -0.9283
 4241TIP3    H234139   5.103   2.972  15.865  2.3235 -0.1029 -0.5360
 4242TIP3   OH234140   5.028   2.868   5.781  0.7835 -0.1088 -0.1244
 4242TIP3    H134141   5.011   2.796   5.843 -0.9697  0.5687  0.2663
 4242TIP3    H234142   4.996   2.835   5.697 -0.1970  0.2361  0.0919
 4243TIP3   OH234143   1.278   4.886  13.754 -0.7831 -0.4563 -0.2513
 4243TIP3    H134144   1.367   4.899  13.722 -1.1375 -0.0692 -1.1029
 4243TIP3    H234145   1.289   4.830  13.831  0.2961  0.5080  0.3459
 4244TIP3   OH234146   3.800   1.515  16.154 -0.1701 -0.2388  0.0713
 4244TIP3    H134147   3.738   1.588  16.150 -0.2366  0.0001  2.9151
 4244TIP3    H234148   3.842   1.524  16.240  2.8150 -1.2257 -1.1618
 4245TIP3   OH234149   3.036   1.219   1.163  0.9498  0.0844  0.2289
 4245TIP3    H134150   3.053   1.225   1.257  0.7878 -1.6548  0.4085
 4245TIP3    H234151   3.081   1.138   1.136  0.0200 -0.0656 -0.9589
 4246TIP3   OH234152   1.686   2.482  14.063  0.4343 -0.1957  0.2144
 4246TIP3    H134153   1.602   2.489  14.108  0.1721 -0.8059 -0.1714
 4246TIP3    H234154   1.676   2.408  14.004  0.8709  0.4202 -0.6493
 4247TIP3   OH234155   4.397   3.444  17.409 -0.0278 -0.1576 -0.3172
 4247TIP3    H134156   4.360   3.459  17.497  0.0327 -0.1514 -0.2932
 4247TIP3    H234157   4.422   3.351  17.409  0.2723 -0.0780 -0.2157
 4248TIP3   OH234158   5.103   0.834   1.767 -0.1740  0.6158 -0.0066
 4248TIP3    H134159   5.034   0.886   1.725 -1.0560  0.2559  0.9476
 4248TIP3    H234160   5.132   0.774   1.698  0.3274  1.8424 -0.8911
 4249TIP3   OH234161   5.741   0.077  12.818 -0.6314  0.4740 -0.7696
 4249TIP3    H134162   5.771   0.028  12.742  2.2054  1.5391 -0.4524
 4249TIP3    H234163   5.646   0.083  12.807 -0.4981 -0.8212 -3.3242
 4250TIP3   OH234164   3.878   4.463   3.895 -0.1674  0.2580  0.1057
 4250TIP3    H134165   3.951   4.473   3.834  0.6407  3.7826  1.4040
 4250TIP3    H234166   3.918   4.467   3.982 -1.8249  3.8295  0.8982
 4251TIP3   OH234167   2.947   1.759  12.565  0.4401  0.1006  0.1257
 4251TIP3    H134168   2.891   1.710  12.505 -0.3210  1.3467 -0.2288
 4251TIP3    H234169   3.016   1.697  12.590 -0.0061 -0.8706 -0.9483
 4252TIP3   OH234170   4.848   5.300   4.034  0.3063 -0.1636 -0.2175
 4252TIP3    H134171   4.760   5.311   3.998 -0.2906 -0.6625  1.0357
 4252TIP3    H234172   4.902   5.360   3.983 -1.2200  2.0411  0.6051
 4253TIP3   OH234173   0.061   4.037   6.502  1.2711 -0.3041  0.2607
 4253TIP3    H134174   0.092   4.036   6.593 -0.0731 -0.6362  0.7434
 4253TIP3    H234175   0.141   4.038   6.449  2.1406  2.1192  1.4354
 4254TIP3   OH234176   2.398   1.834  13.793 -0.0719  0.0472 -0.4592
 4254TIP3    H134177   2.392   1.860  13.885  1.3295  0.3709 -0.4352
 4254TIP3    H234178   2.488   1.804  13.782 -0.1247  0.2916 -1.7946
 4255TIP3   OH234179   5.636   6.100   5.744  0.0058 -0.1215  0.5101
 4255TIP3    H134180   5.662   6.079   5.654 -0.4321 -0.4438  0.4535
 4255TIP3    H234181   5.690   6.175   5.768  1.2099 -0.9647  0.5132
 4256TIP3   OH234182   0.683   3.152   5.093  0.2180  0.3371  0.3077
 4256TIP3    H134183   0.588   3.144   5.100  0.3486 -1.5954  0.3917
 4256TIP3    H234184   0.696   3.208   5.017 -1.0101 -1.7663 -1.5661
 4257TIP3   OH234185   3.864   2.620   1.452  0.2511 -0.2227  0.2782
 4257TIP3    H134186   3.948   2.653   1.482 -0.0128  0.5551  0.1958
 4257TIP3    H234187   3.805   2.632   1.527 -0.8681  3.4380 -0.9624
 4258TIP3   OH234188   3.928   5.127   1.110  0.0433 -0.3125  0.1785
 4258TIP3    H134189   3.985   5.181   1.056  0.8047 -0.5765  0.7008
 4258TIP3    H234190   3.864   5.090   1.049 -1.0492  1.8442 -0.0726
 4259TIP3   OH234191   6.450   0.036  16.280  0.6384  0.0826  0.0655
 4259TIP3    H134192   6.404   0.119  16.292  2.7083  1.4326 -0.6919
 4259TIP3    H234193   6.415   0.001  16.198  0.0452  0.4115  0.1698
 4260TIP3   OH234194   5.524   3.943   1.847 -0.2956  0.3521 -0.4633
 4260TIP3    H134195   5.434   3.942   1.814 -0.2679 -0.7169 -0.5402
 4260TIP3    H234196   5.540   3.854   1.877  0.3684  0.8020  0.6055
 4261TIP3   OH234197   2.615   3.410   4.250  0.1310 -0.3974 -0.3454
 4261TIP3    H134198   2.572   3.489   4.220  0.1514 -0.5531 -0.7945
 4261TIP3    H234199   2.563   3.338   4.214 -2.0494 -0.6968  3.0053
 4262TIP3   OH234200   0.418   5.648   0.649 -0.0497 -0.2080  0.0103
 4262TIP3    H134201   0.383   5.559   0.642 -0.1989 -0.1163 -0.3797
 4262TIP3    H234202   0.350   5.704   0.613 -0.1416  0.1139  0.6606
 4263TIP3   OH234203   2.802   5.514  16.321  0.4903 -0.0759  0.2228
 4263TIP3    H134204   2.707   5.523  16.326  0.6534  0.9703  1.9980
 4263TIP3    H234205   2.815   5.443  16.257 -1.3780  1.0967 -1.5954
 4264TIP3   OH234206   0.084   4.838   4.806  0.0029 -0.2833  0.2944
 4264TIP3    H134207   0.159   4.781   4.787 -0.8323 -1.2430 -0.2318
 4264TIP3    H234208   0.007   4.783   4.788 -0.8401  1.0910 -0.4770
 4265TIP3   OH234209   0.439   1.122   4.496  0.1821  1.0188 -0.1458
 4265TIP3    H134210   0.490   1.114   4.577 -1.5728 -0.6133  0.8650
 4265TIP3    H234211   0.362   1.173   4.521 -0.7754 -0.1841 -0.5465
 4266TIP3   OH234212   2.513   2.827  17.208  0.0103  0.0875 -0.0047
 4266TIP3    H134213   2.571   2.839  17.133  3.7478 -0.8013  2.4701
 4266TIP3    H234214   2.476   2.914  17.224 -0.0619  0.5093 -2.1465
 4267TIP3   OH234215   0.477   2.938  16.340 -0.2414  0.0934 -0.5369
 4267TIP3    H134216   0.463   2.845  16.359  3.5803 -0.2053  1.9136
 4267TIP3    H234217   0.389   2.972  16.323 -2.2797 -3.2493  1.9136
 4268TIP3   OH234218   0.671   5.529   5.340  0.2465 -0.4281  0.5075
 4268TIP3    H134219   0.699   5.590   5.271  1.2612 -0.5052  0.8329
 4268TIP3    H234220   0.747   5.521   5.397 -0.8132  0.2455  2.0892
 4269TIP3   OH234221   1.624   1.949  15.413  0.1090 -0.3176  0.3012
 4269TIP3    H134222   1.572   1.986  15.485  0.6949  0.0036  0.5676
 4269TIP3    H234223   1.672   1.876  15.454 -0.5945 -1.0164 -0.0867
 4270TIP3   OH234224   4.264   5.428   0.855  0.7055 -0.3056 -0.1406
 4270TIP3    H134225   4.178   5.449   0.892  1.8709 -0.7560  3.1212
 4270TIP3    H234226   4.300   5.512   0.828  0.2256  0.2153  0.8140
 4271TIP3   OH234227   5.169   1.707   3.612 -0.2252 -0.1518  0.2425
 4271TIP3    H134228   5.217   1.662   3.682  2.2817  1.6038 -0.2136
 4271TIP3    H234229   5.082   1.723   3.650  0.5746 -0.5472  2.4239
 4272TIP3   OH234230   6.311   4.217   6.104 -0.3045  0.2700 -0.4733
 4272TIP3    H134231   6.277   4.162   6.175  1.4874  0.1083  0.2944
 4272TIP3    H234232   6.246   4.288   6.097 -0.0246  0.8727  2.0730
 4273TIP3   OH234233   0.601   4.906   1.755  0.3767 -0.5098  0.2568
 4273TIP3    H134234   0.587   4.811   1.748 -1.5465 -0.3952  1.5403
 4273TIP3    H234235   0.570   4.941   1.672 -0.7586 -0.8829  0.5031
 4274TIP3   OH234236   2.466   1.864   6.628  0.2989  0.1992 -0.1789
 4274TIP3    H134237   2.411   1.850   6.706 -1.1089  1.5002 -0.8879
 4274TIP3    H234238   2.475   1.959   6.622  2.6894  0.0320 -0.1151
 4275TIP3   OH234239   3.332   4.118  10.779 -0.3120 -0.0042 -0.3028
 4275TIP3    H134240   3.414   4.069  10.767  0.6654  1.3505  0.5109
 4275TIP3    H234241   3.272   4.055  10.819  0.3257 -1.0108 -0.8716
 4276TIP3   OH234242   1.436   0.911   4.163  0.2559 -0.2611  0.1934
 4276TIP3    H134243   1.346   0.887   4.185  0.7453 -1.0330  1.5076
 4276TIP3    H234244   1.478   0.828   4.142  0.9271 -0.0534  0.6760
 4277TIP3   OH234245   4.054   6.534  16.797  0.3388  0.1932 -0.4581
 4277TIP3    H134246   4.079   6.541  16.889  1.1010 -0.5288 -0.5944
 4277TIP3    H234247   4.115   6.469  16.761 -0.3587  0.0015 -1.3210
 4278TIP3   OH234248   6.456   1.110   1.130 -0.3440 -0.0453 -0.3306
 4278TIP3    H134249   6.503   1.177   1.180 -0.2159 -1.0661  0.9725
 4278TIP3    H234250   6.466   1.030   1.181  0.2882 -1.3091 -2.2896
 4279TIP3   OH234251   4.508   5.023   4.957 -0.5101 -0.0140  0.0569
 4279TIP3    H134252   4.603   5.016   4.955 -0.5805 -1.6150  0.7504
 4279TIP3    H234253   4.482   5.014   4.865 -0.0269 -0.2580 -0.0603
 4280TIP3   OH234254   6.631   5.607   4.964 -0.5874  0.5089 -0.1269
 4280TIP3    H134255   6.668   5.670   4.903 -1.1665  0.7113 -0.2778
 4280TIP3    H234256   6.601   5.535   4.909 -1.0381  0.6553 -0.0781
 4281TIP3   OH234257   5.005   5.147  16.278  0.8609 -0.9061 -0.2644
 4281TIP3    H134258   5.041   5.145  16.189  2.0631 -0.1072  0.1791
 4281TIP3    H234259   4.912   5.127  16.266  0.9542 -0.6333 -1.7255
 4282TIP3   OH234260   3.329   5.149   2.555 -0.3338 -0.6291 -0.0681
 4282TIP3    H134261   3.305   5.202   2.479  2.1256  0.3517 -0.2538
 4282TIP3    H234262   3.275   5.183   2.626 -0.8332  0.2153 -0.8287
 4283TIP3   OH234263   1.208   4.514   0.850  0.0689 -0.4588  0.5667
 4283TIP3    H134264   1.139   4.558   0.900 -0.3340 -1.1221  0.6206
 4283TIP3    H234265   1.240   4.580   0.789 -0.0842  0.0855  1.0711
 4284TIP3   OH234266   2.370   0.859  13.914  0.2929 -0.0404 -0.2396
 4284TIP3    H134267   2.325   0.872  13.997 -4.1960  0.3952 -2.4376
 4284TIP3    H234268   2.376   0.763  13.905 -1.5481 -0.1859 -0.3895
 4285TIP3   OH234269   3.356   5.803   2.787  0.1098 -0.2030  0.5705
 4285TIP3    H134270   3.380   5.712   2.803  0.8049 -0.3678 -1.1885
 4285TIP3    H234271   3.425   5.837   2.730 -0.7914  1.0553  0.1732
 4286TIP3   OH234272   3.911   3.428   0.280 -0.1771 -0.0403  0.1914
 4286TIP3    H134273   3.998   3.437   0.240 -0.2323  0.7959  0.2452
 4286TIP3    H234274   3.899   3.333   0.290 -0.5472 -0.3696 -2.5789
 4287TIP3   OH234275   5.564   5.071  15.821 -0.4508  0.5275 -0.1942
 4287TIP3    H134276   5.495   5.122  15.862 -2.1484 -0.8539 -1.1753
 4287TIP3    H234277   5.519   4.992  15.788  1.3363  0.1781 -2.0216
 4288TIP3   OH234278   4.208   2.884   5.220  0.4424  0.5507 -0.6177
 4288TIP3    H134279   4.160   2.811   5.259 -1.5513  1.5275 -1.1297
 4288TIP3    H234280   4.208   2.865   5.126 -1.3203  1.8164 -0.9283
 4289TIP3   OH234281   5.240   0.389  16.572 -0.5634  0.4085 -0.7639
 4289TIP3    H134282   5.285   0.315  16.533 -1.3514 -0.6520  0.2529
 4289TIP3    H234283   5.305   0.430  16.629 -0.4537 -0.2466 -0.4019
 4290TIP3   OH234284   5.255   3.180  16.760 -0.0008  0.1255 -0.5257
 4290TIP3    H134285   5.267   3.275  16.754 -1.2549  0.3557  0.4017
 4290TIP3    H234286   5.259   3.150  16.669  0.4724  1.0469 -0.8232
 4291TIP3   OH234287   2.479   3.263  13.043 -0.2160  0.0341  0.2264
 4291TIP3    H134288   2.509   3.348  13.075 -1.9198  1.8996 -2.7130
 4291TIP3    H234289   2.560   3.218  13.018  0.6401  1.8964 -0.5854
 4292TIP3   OH234290   1.457   6.199   1.489 -0.0577  0.0488  0.2199
 4292TIP3    H134291   1.463   6.213   1.584 -0.6701  0.9120  0.1488
 4292TIP3    H234292   1.459   6.288   1.452 -0.3414 -0.2509 -0.5386
 4293TIP3   OH234293   0.280   4.298   0.721 -0.1379 -0.2627 -0.2121
 4293TIP3    H134294   0.313   4.383   0.693 -0.6784  0.1389  0.3291
 4293TIP3    H234295   0.294   4.240   0.646 -1.6436  0.7859 -1.3852
 4294TIP3   OH234296   4.212   5.872   4.216  0.0585 -0.3454 -0.4291
 4294TIP3    H134297   4.281   5.873   4.150 -0.0049  1.6752 -0.5282
 4294TIP3    H234298   4.221   5.956   4.261 -2.2068 -0.1241 -0.2958
 4295TIP3   OH234299   2.810   0.083   2.711 -0.0321 -0.6035  0.2584
 4295TIP3    H134300   2.813   0.002   2.762 -0.8417  1.0699  3.1921
 4295TIP3    H234301   2.732   0.128   2.742  0.4659  1.3928 -1.1948
 4296TIP3   OH234302   5.820   4.123   1.972  0.0967 -0.0966 -0.4767
 4296TIP3    H134303   5.843   4.037   1.936 -0.4151 -0.3548 -0.1842
 4296TIP3    H234304   5.822   4.111   2.067 -1.2658 -0.1412 -0.4327
 4297TIP3   OH234305   4.852   5.860   2.896  0.0017  0.2816  0.2627
 4297TIP3    H134306   4.876   5.798   2.827 -1.7103 -0.3197  0.1678
 4297TIP3    H234307   4.773   5.903   2.864  0.8593  2.1869  0.5587
 4298TIP3   OH234308   0.715   3.279   4.849  0.1085 -0.1402  0.0585
 4298TIP3    H134309   0.806   3.284   4.821  0.9963 -2.6362  2.1555
 4298TIP3    H234310   0.674   3.217   4.789  0.9704 -2.3202  1.5990
 4299TIP3   OH234311   0.387   6.456  15.732 -0.0912  0.5801  0.0206
 4299TIP3    H134312   0.466   6.508  15.719 -0.2990  1.1532  0.9721
 4299TIP3    H234313   0.408   6.371  15.693  0.8757  0.8219 -0.0088
 4300TIP3   OH234314   3.620   6.060  14.005  0.2332 -0.6455 -0.4058
 4300TIP3    H134315   3.710   6.043  14.033  0.2998  0.7822  0.3504
 4300TIP3    H234316   3.626   6.140  13.952 -0.5371 -0.7412 -0.6496
 4301TIP3   OH234317   4.444   6.750   4.419  0.1018  0.6599 -0.0816
 4301TIP3    H134318   4.364   6.699   4.404 -0.8108  1.6237  1.2213
 4301TIP3    H234319   4.430   6.791   4.505  1.2019  2.3074 -0.6429
 4302TIP3   OH234320   5.107   6.370  17.395 -0.1424 -0.5909 -0.5130
 4302TIP3    H134321   5.150   6.305  17.339  2.3641  0.8354 -0.3896
 4302TIP3    H234322   5.052   6.421  17.336  1.8296  0.3719 -1.6206
 4303TIP3   OH234323   5.169   1.994  12.503 -0.2144  0.5034 -0.3834
 4303TIP3    H134324   5.096   2.008  12.564  0.4577  1.3840  0.2557
 4303TIP3    H234325   5.243   2.040  12.544  0.2502  1.1641 -1.8885
 4304TIP3   OH234326   3.592   5.766   2.144  0.3535 -0.2326 -0.4452
 4304TIP3    H134327   3.644   5.704   2.093  1.1417  1.3808 -1.7277
 4304TIP3    H234328   3.643   5.848   2.141 -0.3648  0.3400  1.6524
 4305TIP3   OH234329   3.574   5.068   3.541  0.2482 -0.3478 -0.1695
 4305TIP3    H134330   3.580   5.142   3.602  1.7762  0.4589 -1.2163
 4305TIP3    H234331   3.562   5.108   3.456  1.7092 -1.2330 -0.8412
 4306TIP3   OH234332   1.681   2.503   1.855 -0.7609  0.3488  0.2099
 4306TIP3    H134333   1.737   2.493   1.778 -0.6301 -0.0310  0.3510
 4306TIP3    H234334   1.622   2.575   1.833 -0.6553  0.3098 -0.2025
 4307TIP3   OH234335   3.277   2.808  15.445 -0.3931 -0.4119 -0.5489
 4307TIP3    H134336   3.323   2.731  15.478 -1.0588 -0.9773 -0.9246
 4307TIP3    H234337   3.186   2.796  15.471 -0.4767  0.3199 -0.4822
 4308TIP3   OH234338   3.700   0.257  15.170 -0.3393  0.3462  0.4013
 4308TIP3    H134339   3.688   0.168  15.138 -0.1781  0.3046  0.4536
 4308TIP3    H234340   3.629   0.270  15.233 -1.1786  0.7382 -0.6108
 4309TIP3   OH234341   3.363   1.644  11.714  0.2353  0.2449  0.3787
 4309TIP3    H134342   3.273   1.675  11.701 -0.7492 -2.2604  0.6438
 4309TIP3    H234343   3.414   1.689  11.647 -1.2141  1.6836  0.1820
 4310TIP3   OH234344   0.675   1.863  13.030 -0.2101 -0.5266  0.9959
 4310TIP3    H134345   0.633   1.834  12.949  0.9067 -0.6585  0.4566
 4310TIP3    H234346   0.769   1.863  13.011  0.0385 -0.0251  2.1163
 4311TIP3   OH234347   2.064   0.903  13.806 -0.5261  0.2258  0.1288
 4311TIP3    H134348   2.017   0.979  13.842 -1.3979 -0.5575  0.6771
 4311TIP3    H234349   2.090   0.852  13.882  0.7982  0.3857 -0.1982
 4312TIP3   OH234350   5.531   1.408   3.218  0.1778  0.1681  0.2024
 4312TIP3    H134351   5.566   1.437   3.133  2.6102 -1.5031  0.5135
 4312TIP3    H234352   5.508   1.488   3.264  0.2308  1.1795 -1.4594
 4313TIP3   OH234353   1.746   5.220  10.826 -0.2780 -0.0998 -0.1014
 4313TIP3    H134354   1.707   5.305  10.850  0.2502  0.1962 -0.2707
 4313TIP3    H234355   1.718   5.206  10.736  1.5290  1.0270 -0.8817
 4314TIP3   OH234356   5.033   5.080  15.294  0.1251  1.0374  0.2108
 4314TIP3    H134357   4.960   5.033  15.333  0.8485 -0.0240  0.3183
 4314TIP3    H234358   5.001   5.107  15.208 -0.9321  2.0103  0.8786
 4315TIP3   OH234359   1.751   5.366  14.880  0.2578  1.0183 -0.1746
 4315TIP3    H134360   1.762   5.296  14.944  0.4301 -0.7608 -2.0423
 4315TIP3    H234361   1.668   5.345  14.836  0.4759  1.7883 -0.9911
 4316TIP3   OH234362   1.221   5.456   4.991  0.7960 -0.7522  0.2989
 4316TIP3    H134363   1.209   5.460   5.086  1.1177  0.2468  0.2993
 4316TIP3    H234364   1.151   5.511   4.956  0.9931 -0.7100 -0.0269
 4317TIP3   OH234365   0.190   0.625   2.866 -0.4612 -0.1812 -0.3596
 4317TIP3    H134366   0.182   0.697   2.928  0.6360  0.2045 -0.6430
 4317TIP3    H234367   0.231   0.664   2.789  0.4882 -1.1738 -0.3815
 4318TIP3   OH234368   2.732   0.448  17.030  0.7510 -0.5018 -0.7232
 4318TIP3    H134369   2.743   0.540  17.055  0.3869 -0.8157  0.6536
 4318TIP3    H234370   2.698   0.452  16.940 -2.0529  0.8164  0.2776
 4319TIP3   OH234371   4.725   6.215   5.505 -0.0234  0.0629 -0.3160
 4319TIP3    H134372   4.679   6.297   5.522  0.7947 -0.0161  2.8785
 4319TIP3    H234373   4.665   6.147   5.535  0.2323 -0.3667 -0.7684
 4320TIP3   OH234374   1.585   3.937   3.348 -0.4130  0.5342  0.0244
 4320TIP3    H134375   1.611   3.890   3.268 -0.4942 -0.9526  0.8401
 4320TIP3    H234376   1.515   3.884   3.385 -2.0429  2.4677 -0.1148
 4321TIP3   OH234377   0.566   0.733  15.372 -0.3337  0.6752 -0.0475
 4321TIP3    H134378   0.649   0.699  15.405 -0.5480  0.1710 -0.0245
 4321TIP3    H234379   0.500   0.697  15.431 -0.5455  1.3207  0.1180
 4322TIP3   OH234380   4.041   1.738   5.300  0.5063 -0.5364 -0.1350
 4322TIP3    H134381   3.979   1.742   5.228 -0.3926 -0.2899  0.6356
 4322TIP3    H234382   4.073   1.828   5.309  0.5253 -0.5431 -0.1346
 4323TIP3   OH234383   0.416   2.531  11.577  0.3401  0.3065 -0.3439
 4323TIP3    H134384   0.423   2.517  11.672  3.1125 -0.3829 -0.5774
 4323TIP3    H234385   0.405   2.626  11.568 -0.8478  0.3009  0.6475
 4324TIP3   OH234386   3.096   0.533  14.757  0.1883 -0.1735  0.6684
 4324TIP3    H134387   3.138   0.610  14.719 -0.3041  0.2950  1.0543
 4324TIP3    H234388   3.129   0.529  14.847 -0.4348  0.0846  0.9138
 4325TIP3   OH234389   1.652   5.402   2.818 -0.2256  0.2983 -0.0657
 4325TIP3    H134390   1.704   5.480   2.802 -1.2184  1.2855  1.2749
 4325TIP3    H234391   1.669   5.381   2.910 -1.6553  0.2563  0.2138
 4326TIP3   OH234392   2.254   5.822   0.897  0.3986  0.5954  0.0796
 4326TIP3    H134393   2.321   5.840   0.831  1.6589 -0.3513  1.0683
 4326TIP3    H234394   2.285   5.745   0.943 -0.8428  0.7840  1.2969
 4327TIP3   OH234395   5.394   0.097   1.481  0.5116  0.4717 -0.1599
 4327TIP3    H134396   5.428   0.020   1.528 -2.2354 -0.4221  0.5246
 4327TIP3    H234397   5.361   0.154   1.550 -0.7257  0.5859 -0.8184
 4328TIP3   OH234398   3.454   0.140   1.371  0.2297  0.4894 -0.4032
 4328TIP3    H134399   3.495   0.184   1.297  1.6483  0.4136  0.3103
 4328TIP3    H234400   3.468   0.198   1.446 -0.4782  0.1971 -0.0277
 4329TIP3   OH234401   3.786   3.764  13.483 -0.0951  0.1109  0.3891
 4329TIP3    H134402   3.723   3.835  13.491 -1.1229 -0.8203  0.7232
 4329TIP3    H234403   3.845   3.793  13.413 -1.0886  0.8445 -0.1714
 4330TIP3   OH234404   3.281   5.975   4.820  0.2307 -0.8426  0.0746
 4330TIP3    H134405   3.306   5.982   4.912  0.4993  0.8686 -0.0902
 4330TIP3    H234406   3.199   6.025   4.814  1.4886  1.2674 -1.0207
 4331TIP3   OH234407   3.429   2.141   3.366  0.2715  0.6714  0.0181
 4331TIP3    H134408   3.401   2.173   3.280  0.7651  1.3167  0.0936
 4331TIP3    H234409   3.367   2.179   3.428  0.0071  0.3270 -0.0272
 4332TIP3   OH234410   6.153   0.988  12.028 -0.2828 -0.0619  0.6230
 4332TIP3    H134411   6.230   0.948  12.069  0.2182  0.5990  0.3342
 4332TIP3    H234412   6.158   1.081  12.050 -3.2359 -0.4930  4.1804
 4333TIP3   OH234413   1.133   4.687   2.522  0.1279  0.1747  0.1981
 4333TIP3    H134414   1.142   4.643   2.606 -0.5687 -1.5750 -0.5868
 4333TIP3    H234415   1.222   4.692   2.487  0.3255  0.2476  0.7007
 4334TIP3   OH234416   5.176   6.239  11.348  0.1823 -0.0134  0.0842
 4334TIP3    H134417   5.111   6.255  11.416  0.4750 -0.5833  0.5016
 4334TIP3    H234418   5.130   6.183  11.285  0.3983 -0.7744  0.5947
 4335TIP3   OH234419   4.167   1.645   3.498  0.0349  0.2727 -0.0752
 4335TIP3    H134420   4.202   1.667   3.411  0.5725  0.6492  0.2355
 4335TIP3    H234421   4.212   1.704   3.558 -0.4262  0.0969  0.4521
 4336TIP3   OH234422   5.223   0.206  13.434 -0.7828  0.3346 -0.2343
 4336TIP3    H134423   5.194   0.297  13.442  0.6246  1.0974 -2.6041
 4336TIP3    H234424   5.148   0.160  13.399 -1.2932  0.7304  0.3184
 4337TIP3   OH234425   5.245   4.215  11.458  0.0701 -0.6118  0.3347
 4337TIP3    H134426   5.220   4.226  11.367 -1.5508  0.5068  0.8663
 4337TIP3    H234427   5.191   4.143  11.490 -0.7676  0.2381  0.8765
 4338TIP3   OH234428   0.841   3.877   3.589 -0.3996  0.0797 -0.1038
 4338TIP3    H134429   0.768   3.858   3.648  0.2144  0.3783  0.7606
 4338TIP3    H234430   0.804   3.863   3.501 -1.5011  0.2602  0.3129
 4339TIP3   OH234431   4.533   2.548  17.145 -0.4254 -0.3710  0.5082
 4339TIP3    H134432   4.585   2.516  17.071 -1.1724 -0.4644  0.0127
 4339TIP3    H234433   4.544   2.482  17.213  1.2591  0.3197  0.9450
 4340TIP3   OH234434   2.110   0.328   0.154 -0.6458  0.1115 -0.6104
 4340TIP3    H134435   2.165   0.306   0.079 -0.7078 -3.5765  0.2657
 4340TIP3    H234436   2.168   0.377   0.212  0.8726 -1.1643 -0.9901
 4341TIP3   OH234437   4.859   1.122  14.267 -0.1970  0.1789 -0.0566
 4341TIP3    H134438   4.914   1.140  14.343 -0.3639  0.3675  0.0216
 4341TIP3    H234439   4.836   1.029  14.275 -0.9598  0.4155  0.6189
 4342TIP3   OH234440   4.655   2.941  15.136 -0.3466 -0.1125 -0.2360
 4342TIP3    H134441   4.618   2.996  15.204 -1.1624 -0.7515 -0.1561
 4342TIP3    H234442   4.724   2.891  15.180 -1.5836 -1.3140  0.3988
 4343TIP3   OH234443   6.085   5.342   0.950  0.1137 -0.2104  0.2486
 4343TIP3    H134444   6.096   5.362   1.043 -0.5229  1.3579  0.0228
 4343TIP3    H234445   6.001   5.296   0.945 -1.1215  1.9108  0.2236
 4344TIP3   OH234446   1.395   4.513  17.288 -0.2137 -0.1783  0.4367
 4344TIP3    H134447   1.471   4.559  17.323 -0.1107  0.8845 -1.0612
 4344TIP3    H234448   1.430   4.456  17.220 -0.8440  1.3886 -1.2739
 4345TIP3   OH234449   3.219   3.050  16.975 -0.6245  0.1487  0.2766
 4345TIP3    H134450   3.258   3.131  17.010  0.0455 -0.5039  1.0694
 4345TIP3    H234451   3.278   2.981  17.002 -1.7366 -0.7406  0.5224
 4346TIP3   OH234452   6.080   5.867  14.632  0.2262 -0.2531 -0.4480
 4346TIP3    H134453   5.992   5.896  14.658 -0.3547 -1.4442 -1.0179
 4346TIP3    H234454   6.065   5.803  14.563  1.5223 -1.0330 -0.0393
 4347TIP3   OH234455   1.391   6.081   6.144  0.0579  0.0299  0.7121
 4347TIP3    H134456   1.441   6.021   6.201 -0.1029 -0.6690  0.1363
 4347TIP3    H234457   1.317   6.028   6.114 -0.8411  0.9422  1.2554
 4348TIP3   OH234458   6.711   6.277   0.620  0.1116  0.5356  0.3808
 4348TIP3    H134459   6.771   6.278   0.545  0.7132 -0.4497  0.8274
 4348TIP3    H234460   6.702   6.185   0.642 -0.5668  0.7689  1.1298
 4349TIP3   OH234461   2.572   4.870   2.069 -0.0012  0.2532  0.4824
 4349TIP3    H134462   2.494   4.814   2.077 -0.7576  1.0922 -0.6395
 4349TIP3    H234463   2.594   4.893   2.159  0.0627 -1.4733  0.9376
 4350TIP3   OH234464   6.077   5.553  15.111  0.0715  0.1217 -0.2171
 4350TIP3    H134465   6.030   5.510  15.183 -1.1230  0.7917 -0.5792
 4350TIP3    H234466   6.064   5.646  15.126  1.5659  0.3489 -0.1675
 4351TIP3   OH234467   4.257   2.180  12.707 -0.1111  0.0332 -0.1766
 4351TIP3    H134468   4.345   2.167  12.671  1.0586 -0.2010  2.4847
 4351TIP3    H234469   4.250   2.275  12.717  0.4150 -0.0201  0.8253
 4352TIP3   OH234470   4.462   1.112   3.176 -0.0888 -0.1913 -0.5318
 4352TIP3    H134471   4.512   1.065   3.109  0.3991  1.1241 -1.1200
 4352TIP3    H234472   4.404   1.170   3.127 -0.6964 -0.1800  0.1794
 4353TIP3   OH234473   2.382   1.032  10.949  0.7461 -0.0589 -0.3495
 4353TIP3    H134474   2.388   1.051  10.856 -0.4939 -1.0386 -0.6609
 4353TIP3    H234475   2.386   1.117  10.992  0.7392  0.4490 -1.3356
 4354TIP3   OH234476   2.127   1.724  12.854 -0.3002 -0.3962  0.4016
 4354TIP3    H134477   2.189   1.796  12.858  0.4857 -0.9382 -1.1820
 4354TIP3    H234478   2.086   1.722  12.940  1.1676  0.6033  1.1498
 4355TIP3   OH234479   1.421   3.289   5.206 -0.3824 -0.2352 -0.3187
 4355TIP3    H134480   1.445   3.197   5.215  0.1720 -0.1329 -0.6811
 4355TIP3    H234481   1.403   3.300   5.113  0.3666  0.2053 -0.4189
 4356TIP3   OH234482   2.065   3.091   2.715 -0.0407 -0.7098 -0.0187
 4356TIP3    H134483   2.035   3.125   2.800  0.5975  2.7603 -1.0439
 4356TIP3    H234484   1.988   3.049   2.678 -1.2709  0.6103  0.9223
 4357TIP3   OH234485   6.610   2.675   1.395 -0.0221  0.2617 -0.1870
 4357TIP3    H134486   6.539   2.613   1.380  0.3337  0.1466 -1.5159
 4357TIP3    H234487   6.581   2.755   1.352  0.5371  0.2830 -0.5363
 4358TIP3   OH234488   6.745   1.309   5.638  0.8873  0.3888  0.3161
 4358TIP3    H134489   6.744   1.405   5.632  1.5398  0.5177  1.7651
 4358TIP3    H234490   6.829   1.289   5.679  0.0579 -0.6976  1.5345
 4359TIP3   OH234491   5.793   2.254  16.605 -0.7353  0.7200 -0.0916
 4359TIP3    H134492   5.868   2.197  16.591 -1.4034 -0.3832  0.7517
 4359TIP3    H234493   5.822   2.339  16.572  0.8789  0.3215  0.2254
 4360TIP3   OH234494   0.359   3.780  12.934 -0.9718  0.0893 -0.4407
 4360TIP3    H134495   0.317   3.817  13.012 -0.5530 -2.2284  0.9820
 4360TIP3    H234496   0.288   3.736  12.887 -0.5903 -2.4161  1.1108
 4361TIP3   OH234497   4.084   0.910  15.084  0.1153 -0.2696  0.8423
 4361TIP3    H134498   4.151   0.852  15.048  0.9911  0.2330  1.6235
 4361TIP3    H234499   4.111   0.924  15.175  0.0442  1.5354  0.6159
 4362TIP3   OH234500   3.581   2.218   2.986  0.3192  0.3558  0.0745
 4362TIP3    H134501   3.553   2.278   2.916  0.6074  0.2140 -0.1633
 4362TIP3    H234502   3.672   2.240   3.002  0.5387 -0.2624 -0.2718
 4363TIP3   OH234503   5.185   4.465  12.928 -0.2865 -0.1090  0.2126
 4363TIP3    H134504   5.201   4.478  12.835 -2.1078  2.3203  0.1446
 4363TIP3    H234505   5.122   4.393  12.932  1.0364 -1.3269 -0.2797
 4364TIP3   OH234506   5.427   2.076   3.740 -0.4749 -0.5626 -0.1374
 4364TIP3    H134507   5.514   2.044   3.718 -0.8662 -2.5807  0.9888
 4364TIP3    H234508   5.442   2.141   3.808  0.1942 -0.2911 -0.5389
 4365TIP3   OH234509   4.599   3.774  11.924 -0.9579  0.4133 -0.1248
 4365TIP3    H134510   4.683   3.812  11.898 -0.2653 -0.1924  1.1904
 4365TIP3    H234511   4.539   3.849  11.923 -0.3814  0.8895 -0.8965
 4366TIP3   OH234512   3.421   1.365   6.594 -0.0650 -0.5433  0.5293
 4366TIP3    H134513   3.472   1.297   6.548  0.6125  0.3849 -0.1355
 4366TIP3    H234514   3.428   1.442   6.537  1.8324  1.0474  2.7049
 4367TIP3   OH234515   3.910   5.319  13.214  0.2929  0.3224  0.2828
 4367TIP3    H134516   3.859   5.368  13.150 -1.2249 -1.3971  0.0947
 4367TIP3    H234517   3.870   5.342  13.298  1.7727  1.9642  0.5831
 4368TIP3   OH234518   5.860   3.135   0.949  0.3559 -0.0268 -0.2572
 4368TIP3    H134519   5.820   3.057   0.986 -1.4489  1.3592  0.9460
 4368TIP3    H234520   5.943   3.144   0.996  2.4027 -3.0254 -2.8876
 4369TIP3   OH234521   1.252   5.186   1.873  0.2202 -0.1897  0.3234
 4369TIP3    H134522   1.212   5.249   1.933  3.3100  1.1559  1.1602
 4369TIP3    H234523   1.245   5.228   1.787  1.5058  0.9808  0.7529
 4370TIP3   OH234524   5.291   3.011   5.546  0.3158  0.4792 -0.7110
 4370TIP3    H134525   5.333   3.081   5.496  1.7239 -0.2107 -0.5354
 4370TIP3    H234526   5.322   2.930   5.504 -0.2199 -0.0700 -0.0743
 4371TIP3   OH234527   3.870   0.446  15.428 -0.1211 -0.0250  0.4464
 4371TIP3    H134528   3.917   0.507  15.371  0.2698  0.9293  1.7568
 4371TIP3    H234529   3.913   0.362  15.413 -0.2633  0.1321 -0.9184
 4372TIP3   OH234530   3.947   0.744   2.317 -0.5064 -0.2817 -0.5738
 4372TIP3    H134531   3.934   0.804   2.390 -0.6606 -1.9018  0.7922
 4372TIP3    H234532   4.004   0.675   2.352  0.1410 -0.6430 -2.2461
 4373TIP3   OH234533   1.602   1.929   0.530 -0.0275 -0.7889 -0.0773
 4373TIP3    H134534   1.669   1.958   0.592  0.9035  1.0614 -1.8163
 4373TIP3    H234535   1.576   1.843   0.561  1.5633 -0.6248  1.9251
 4374TIP3   OH234536   5.518   5.677   5.012  0.2320 -0.5617  0.2828
 4374TIP3    H134537   5.514   5.754   4.955  0.9308  0.1463  1.1391
 4374TIP3    H234538   5.460   5.613   4.971 -0.4100  0.4415 -0.4307
 4375TIP3   OH234539   2.198   1.113   0.228  0.4585  0.0162 -0.1728
 4375TIP3    H134540   2.220   1.203   0.207  0.2304  0.6845  2.1479
 4375TIP3    H234541   2.104   1.107   0.215 -0.0164  0.9976  2.3168
 4376TIP3   OH234542   0.473   6.108   5.225  0.9953 -0.3696 -0.0972
 4376TIP3    H134543   0.456   6.196   5.191 -0.7056 -0.2177  1.0303
 4376TIP3    H234544   0.562   6.089   5.198  3.1478  3.4688  3.2124
 4377TIP3   OH234545   0.671   2.930   0.717  0.2421  0.0062  0.0623
 4377TIP3    H134546   0.756   2.904   0.683 -0.9349 -0.9914 -2.3983
 4377TIP3    H234547   0.611   2.863   0.684 -1.5987  1.0644  1.1028
 4378TIP3   OH234548   2.681   1.041  16.485  0.4627 -0.4781 -0.3296
 4378TIP3    H134549   2.746   1.072  16.422  1.1644 -1.0457  0.0987
 4378TIP3    H234550   2.616   1.111  16.489  0.8267 -0.0854 -1.0806
 4379TIP3   OH234551   4.590   5.371  15.550 -0.2220 -0.3407  0.5760
 4379TIP3    H134552   4.662   5.422  15.586  0.5433 -2.0492  1.5426
 4379TIP3    H234553   4.522   5.437  15.530  1.5056  1.2783 -0.2547
 4380TIP3   OH234554   0.890   1.515  14.352  0.3673 -0.4140  0.1449
 4380TIP3    H134555   0.868   1.456  14.280 -0.8064 -1.5648  1.3831
 4380TIP3    H234556   0.845   1.478  14.428 -0.5609  2.1564  0.9681
 4381TIP3   OH234557   1.495   0.715  16.032 -0.2153  1.0512 -0.5503
 4381TIP3    H134558   1.412   0.710  15.983 -0.6997  1.9724  0.1458
 4381TIP3    H234559   1.484   0.790  16.089  0.7423  0.5996  0.2523
 4382TIP3   OH234560   2.636   0.470   2.192 -0.1610 -0.5709 -0.2573
 4382TIP3    H134561   2.677   0.439   2.111 -0.6924 -0.9549 -0.3916
 4382TIP3    H234562   2.561   0.522   2.162 -0.4173 -0.7948 -0.0135
 4383TIP3   OH234563   2.517   4.076   0.112  0.5581  0.1768  0.1518
 4383TIP3    H134564   2.604   4.046   0.138  1.2489  1.7151 -0.2965
 4383TIP3    H234565   2.457   4.027   0.168  1.6185 -1.8336 -0.3675
 4384TIP3   OH234566   6.014   5.260   4.470  0.6047 -0.1837 -0.1445
 4384TIP3    H134567   6.030   5.192   4.536 -1.8394 -1.3655 -0.6312
 4384TIP3    H234568   5.939   5.309   4.504  1.1408  1.0618 -0.7087
 4385TIP3   OH234569   5.589   1.438   0.784  0.4693  0.2288  0.0748
 4385TIP3    H134570   5.678   1.442   0.819  0.8236 -1.7255 -0.4930
 4385TIP3    H234571   5.573   1.525   0.748  2.1349  0.6152  0.2059
 4386TIP3   OH234572   1.446   0.345   5.550 -0.1106  0.7188 -0.0534
 4386TIP3    H134573   1.407   0.405   5.615 -0.2402  0.4844  0.0861
 4386TIP3    H234574   1.516   0.396   5.510  1.3740  0.2039  1.7112
 4387TIP3   OH234575   0.134   5.842   6.218 -0.0422  0.2167 -0.2737
 4387TIP3    H134576   0.097   5.778   6.279  0.2803  0.0320 -0.2742
 4387TIP3    H234577   0.063   5.906   6.206 -0.5847 -0.4512 -0.7391
 4388TIP3   OH234578   4.228   5.683   1.932 -0.1587  0.4895  0.1398
 4388TIP3    H134579   4.204   5.691   2.025  1.3465 -1.2146  0.7420
 4388TIP3    H234580   4.153   5.719   1.885 -1.2430  0.8245  1.9908
 4389TIP3   OH234581   0.266   4.218  16.621  0.5476  0.3869  0.7533
 4389TIP3    H134582   0.249   4.312  16.615  0.4411  0.3376  0.1420
 4389TIP3    H234583   0.305   4.196  16.536 -3.3284 -0.8940 -0.9397
 4390TIP3   OH234584   1.890   1.577   3.219  0.1863  0.1150  0.0929
 4390TIP3    H134585   1.967   1.523   3.234  0.3605  0.6285  1.1757
 4390TIP3    H234586   1.818   1.528   3.260  0.3696  0.7369  1.2066
 4391TIP3   OH234587   4.217   5.561   0.306 -0.0698 -0.4581 -0.4405
 4391TIP3    H134588   4.272   5.515   0.243  0.7536  0.1666 -0.2078
 4391TIP3    H234589   4.228   5.511   0.387  0.7874  0.0903 -0.1996
 4392TIP3   OH234590   0.431   4.968   4.360 -0.3236 -0.1104  0.6496
 4392TIP3    H134591   0.398   5.003   4.443 -1.2757  0.6637 -0.0256
 4392TIP3    H234592   0.504   5.026   4.338 -2.5235  2.2843 -0.9765
 4393TIP3   OH234593   6.268   5.878  12.447  0.1568  0.8034  0.5236
 4393TIP3    H134594   6.267   5.823  12.369 -0.3747  0.2263  0.9315
 4393TIP3    H234595   6.359   5.904  12.458  0.6812 -1.1692  1.1457
 4394TIP3   OH234596   5.000   1.788   2.294 -0.2140 -0.4367 -0.0137
 4394TIP3    H134597   4.927   1.745   2.338 -1.5962  1.9114  0.1038
 4394TIP3    H234598   4.960   1.855   2.239  1.7737 -0.1795 -1.2527
 4395TIP3   OH234599   0.242   1.598   4.324 -0.3913 -0.3745 -0.2505
 4395TIP3    H134600   0.334   1.575   4.318 -0.5470 -1.3826  0.7293
 4395TIP3    H234601   0.196   1.514   4.318 -1.3001  0.1840 -1.5169
 4396TIP3   OH234602   5.841   0.926   2.132 -1.0211  0.4031  0.4000
 4396TIP3    H134603   5.855   0.868   2.057 -1.2029  0.3044  0.4419
 4396TIP3    H234604   5.922   0.977   2.138 -0.6371 -0.2211  0.6865
 4397TIP3   OH234605   3.500   5.432   2.212 -0.0431 -0.6829  0.3346
 4397TIP3    H134606   3.590   5.416   2.183  0.6432 -0.8401  2.3745
 4397TIP3    H234607   3.446   5.390   2.146  1.4096 -1.4376 -0.4326
 4398TIP3   OH234608   1.321   6.134  14.308  0.2092  0.3666 -0.6733
 4398TIP3    H134609   1.389   6.092  14.360 -0.5180 -0.0199  0.0052
 4398TIP3    H234610   1.314   6.223  14.345 -0.0382  0.2195 -0.3610
 4399TIP3   OH234611   0.633   6.174   2.163 -0.6602 -0.2894  0.4060
 4399TIP3    H134612   0.555   6.171   2.107 -0.4614  1.7019 -0.0605
 4399TIP3    H234613   0.600   6.198   2.249 -0.5258  1.2412  0.0512
 4400TIP3   OH234614   6.236   6.252   0.988 -0.0086  0.2005  0.2966
 4400TIP3    H134615   6.214   6.290   0.903 -1.3853  2.0357  1.3966
 4400TIP3    H234616   6.195   6.165   0.986 -1.2088  0.7549 -0.4246
 4401TIP3   OH234617   5.039   5.855   0.272  0.2334  0.2637 -0.3548
 4401TIP3    H134618   5.052   5.764   0.300  0.1494  0.3382 -0.0727
 4401TIP3    H234619   4.976   5.890   0.334 -1.6886 -0.2148 -1.9583
 4402TIP3   OH234620   1.643   1.369   2.970  0.1016 -0.3606 -0.4659
 4402TIP3    H134621   1.697   1.341   2.896  0.8921 -1.6019  0.5406
 4402TIP3    H234622   1.618   1.459   2.949  2.9576  0.4587 -0.7676
 4403TIP3   OH234623   3.058   0.406  16.677  0.2485 -0.2304  0.4780
 4403TIP3    H134624   3.048   0.451  16.594  2.1304  0.3652  0.5297
 4403TIP3    H234625   2.976   0.357  16.688  0.2388 -0.9089 -2.0589
 4404TIP3   OH234626   1.891   2.574  14.249 -0.0832 -0.7993 -0.4046
 4404TIP3    H134627   1.832   2.524  14.192 -0.8038 -0.2045 -0.2008
 4404TIP3    H234628   1.849   2.570  14.335  0.2311 -0.4524 -0.2350
 4405TIP3   OH234629   3.588   5.603  15.905 -0.0037 -0.4231 -0.3729
 4405TIP3    H134630   3.534   5.626  15.980 -0.5384  0.5049 -1.0215
 4405TIP3    H234631   3.555   5.516  15.878 -0.1770 -0.5134  0.1276
 4406TIP3   OH234632   0.355   1.573  14.915  0.2605 -0.2538 -0.4324
 4406TIP3    H134633   0.421   1.515  14.876  0.3528  0.4089 -1.2774
 4406TIP3    H234634   0.351   1.648  14.856  0.6097  0.9264  0.9963
 4407TIP3   OH234635   5.064   0.384   4.147  0.0112  0.3407 -0.3593
 4407TIP3    H134636   4.988   0.336   4.181  0.4800 -1.0835 -1.2077
 4407TIP3    H234637   5.126   0.315   4.123 -0.1273  1.2140 -3.6856
 4408TIP3   OH234638   2.645   0.710   6.227  0.2442 -0.5542  0.4899
 4408TIP3    H134639   2.637   0.777   6.296 -1.7430 -0.5157  0.2869
 4408TIP3    H234640   2.602   0.749   6.151  0.7132 -1.3573 -0.2021
 4409TIP3   OH234641   0.622   1.481  16.772 -0.0380 -0.2101  0.2924
 4409TIP3    H134642   0.668   1.423  16.834 -0.1699 -0.1209  0.4772
 4409TIP3    H234643   0.549   1.428  16.741 -0.3037 -0.0590  0.6521
 4410TIP3   OH234644   0.084   0.557   3.337 -0.1456  0.5143  0.3249
 4410TIP3    H134645   0.162   0.521   3.294 -0.1888  0.2539  0.4656
 4410TIP3    H234646   0.118   0.627   3.393  0.1521 -0.4451  1.3887
 4411TIP3   OH234647   4.120   4.661  16.916  0.3960  0.0715  0.1596
 4411TIP3    H134648   4.133   4.602  16.990 -0.1556  0.9608  0.9872
 4411TIP3    H234649   4.156   4.613  16.841 -2.2308 -2.3778  0.3034
 4412TIP3   OH234650   4.947   3.616   6.250  0.4506  0.3180  0.4679
 4412TIP3    H134651   4.900   3.638   6.170  0.7984  0.7078  0.3663
 4412TIP3    H234652   4.920   3.526   6.270 -0.1121  0.4397  0.2576
 4413TIP3   OH234653   4.620   6.395  13.376  0.5089  0.6693  0.0994
 4413TIP3    H134654   4.534   6.382  13.415  0.0529 -0.8338 -1.3110
 4413TIP3    H234655   4.678   6.336  13.425  0.5280  0.9411  0.4017
 4414TIP3   OH234656   4.490   4.011   3.093 -0.3384 -0.4646 -0.0861
 4414TIP3    H134657   4.518   4.024   3.003  1.2300 -0.5092  0.3601
 4414TIP3    H234658   4.505   4.095   3.136 -0.8040 -0.5219  0.2080
 4415TIP3   OH234659   4.032   6.512  14.411  0.4236 -0.0802  0.0086
 4415TIP3    H134660   4.126   6.527  14.420  0.6773 -0.9523 -1.0229
 4415TIP3    H234661   4.023   6.460  14.332 -1.1183  1.7465 -1.1044
 4416TIP3   OH234662   2.609   3.988  11.978 -0.2184  0.1493  0.2327
 4416TIP3    H134663   2.618   3.909  11.924 -0.4677  1.0973 -1.2246
 4416TIP3    H234664   2.517   3.990  12.003 -1.0974  1.7766 -2.6710
 4417TIP3   OH234665   1.473   0.019   5.588  0.2390  0.3268  0.1662
 4417TIP3    H134666   1.433   0.050   5.670 -1.3574 -2.1642  0.4424
 4417TIP3    H234667   1.495   0.099   5.541 -0.4831  1.8449  2.2327
 4418TIP3   OH234668   2.700   0.141   1.632  0.6253 -0.2192 -0.1503
 4418TIP3    H134669   2.637   0.184   1.575  0.2141  1.1545  1.2776
 4418TIP3    H234670   2.760   0.097   1.571  0.5488  1.6292 -1.6695
 4419TIP3   OH234671   1.127   6.385  11.407  0.1597  0.1373  0.3541
 4419TIP3    H134672   1.221   6.369  11.417  0.4262  0.8090 -0.8851
 4419TIP3    H234673   1.095   6.397  11.496  1.4749  1.1551  0.7146
 4420TIP3   OH234674   6.668   4.059   3.007  0.1753 -0.1753  0.0262
 4420TIP3    H134675   6.677   4.141   3.055 -1.3173 -0.5190  0.9641
 4420TIP3    H234676   6.574   4.039   3.011  0.3115 -1.2158 -1.3787
 4421TIP3   OH234677   2.024   2.579  12.962 -0.8857  0.7395 -0.2923
 4421TIP3    H134678   2.023   2.522  12.885 -0.7227  0.5901 -0.1849
 4421TIP3    H234679   2.116   2.604  12.972 -0.9292  0.8756 -0.2320
 4422TIP3   OH234680   2.093   6.162  15.810 -0.2173 -0.2262 -0.6797
 4422TIP3    H134681   2.063   6.146  15.720 -1.3393 -0.1574 -0.3325
 4422TIP3    H234682   2.123   6.252  15.810 -1.2169  0.1178 -0.7364
 4423TIP3   OH234683   5.692   1.138  14.077  0.3397  0.3547 -0.1521
 4423TIP3    H134684   5.742   1.109  14.154  1.3943  2.7777  0.1574
 4423TIP3    H234685   5.751   1.122  14.004  0.5359  0.8277 -0.0973
 4424TIP3   OH234686   4.603   2.411  14.289  0.0620 -0.3892  0.4864
 4424TIP3    H134687   4.655   2.392  14.368  0.4074  1.0656  0.6355
 4424TIP3    H234688   4.529   2.351  14.295  1.0662 -1.6589  0.9051
 4425TIP3   OH234689   0.182   3.075   4.714  0.2057  0.6632  0.1552
 4425TIP3    H134690   0.212   2.993   4.753  1.3092  0.8494 -0.2708
 4425TIP3    H234691   0.257   3.107   4.664 -0.1329  2.0394  0.4810
 4426TIP3   OH234692   3.179   5.596   6.201 -0.1292  0.6068  0.0521
 4426TIP3    H134693   3.151   5.512   6.236 -1.6266  1.0924  0.0765
 4426TIP3    H234694   3.137   5.602   6.115 -1.0418  1.8166  0.5395
 4427TIP3   OH234695   0.749   3.598   3.573 -0.4060 -0.5161 -0.4065
 4427TIP3    H134696   0.826   3.652   3.557 -0.9384  0.8855  1.4569
 4427TIP3    H234697   0.780   3.527   3.629 -0.1687 -0.8983 -1.0061
 4428TIP3   OH234698   2.680   4.975   2.368  0.0750 -0.4672 -0.4848
 4428TIP3    H134699   2.654   4.886   2.393 -4.1095  0.1610 -1.8906
 4428TIP3    H234700   2.693   5.020   2.452  1.8237 -2.1673  0.2538
 4429TIP3   OH234701   0.732   5.132   2.151 -0.0850  0.1749 -0.0918
 4429TIP3    H134702   0.761   5.081   2.226  0.0116  1.7570  0.9883
 4429TIP3    H234703   0.664   5.079   2.110 -1.1197 -0.1242  1.9274
 4430TIP3   OH234704   6.660   1.738  13.196  0.1732 -0.3325  0.0750
 4430TIP3    H134705   6.724   1.707  13.132  1.0506 -0.8812  1.1679
 4430TIP3    H234706   6.677   1.685  13.274 -1.0760  0.0878  0.6661
 4431TIP3   OH234707   1.225   3.582   5.015  0.6350 -0.0361  0.3546
 4431TIP3    H134708   1.218   3.527   5.094  1.0294 -1.0039 -0.2686
 4431TIP3    H234709   1.246   3.669   5.049  0.6572 -0.4079  1.3352
 4432TIP3   OH234710   6.325   1.700   5.156  0.0387  0.1494  0.0368
 4432TIP3    H134711   6.368   1.746   5.084 -0.7029  0.2354 -0.3607
 4432TIP3    H234712   6.385   1.709   5.230  0.7785  0.1164 -0.5470
 4433TIP3   OH234713   2.526   1.199  15.064 -0.6658 -0.2529  0.4029
 4433TIP3    H134714   2.491   1.116  15.031 -0.5094  0.5601 -2.0019
 4433TIP3    H234715   2.449   1.254  15.078 -0.7119 -0.4750  1.0108
 4434TIP3   OH234716   5.336   2.389   4.076 -0.2517  0.0749  1.1332
 4434TIP3    H134717   5.313   2.306   4.117 -0.6868 -0.2852  0.2051
 4434TIP3    H234718   5.266   2.404   4.012  0.2286  0.7612  0.7566
 4435TIP3   OH234719   1.121   3.790   4.517  0.3587  1.0299 -0.3941
 4435TIP3    H134720   1.126   3.734   4.441  0.2697  0.7115 -0.1668
 4435TIP3    H234721   1.145   3.734   4.591 -0.0956  1.1914 -0.1192
 4436TIP3   OH234722   4.809   4.122  13.845  0.2522  0.4423 -0.3785
 4436TIP3    H134723   4.850   4.204  13.815  1.0735  0.8143  1.5829
 4436TIP3    H234724   4.881   4.060  13.851  0.4687  0.8360  2.2092
 4437TIP3   OH234725   1.991   0.543   3.854  0.1516 -0.2666  0.1146
 4437TIP3    H134726   1.907   0.545   3.808  0.4036  1.4619 -0.3375
 4437TIP3    H234727   2.039   0.470   3.813 -1.3336 -1.6962  0.8248
 4438TIP3   OH234728   3.106   1.073  14.422  0.1076  0.5138  0.3044
 4438TIP3    H134729   3.117   1.161  14.458 -1.1848  0.4865  0.7915
 4438TIP3    H234730   3.044   1.083  14.350 -0.9254 -0.1626  1.0756
 4439TIP3   OH234731   1.476   6.069  12.674 -0.1589 -0.2591  0.1135
 4439TIP3    H134732   1.494   6.109  12.759 -0.8498 -1.3982  0.8160
 4439TIP3    H234733   1.383   6.046  12.677 -0.3997  0.4701 -1.2913
 4440TIP3   OH234734   5.654   0.484  13.687 -0.1570 -0.8137 -0.0094
 4440TIP3    H134735   5.625   0.500  13.776  0.2362  0.7773 -0.1490
 4440TIP3    H234736   5.728   0.424  13.696 -0.3329 -0.9284  0.6980
 4441TIP3   OH234737   4.689   6.610   2.683  0.5985 -0.1094 -0.3531
 4441TIP3    H134738   4.722   6.529   2.643 -1.3294 -1.9008  1.4505
 4441TIP3    H234739   4.750   6.626   2.756 -0.7054 -1.8122  1.2221
 4442TIP3   OH234740   6.007   5.814  15.576  0.3302  0.1584 -0.0764
 4442TIP3    H134741   5.943   5.772  15.633 -0.8603 -0.0058 -1.4742
 4442TIP3    H234742   5.987   5.908  15.582  0.5966  0.1987  0.2201
 4443TIP3   OH234743   5.111   2.865   4.429  0.7885 -0.0790  0.0488
 4443TIP3    H134744   5.041   2.848   4.365  0.1228  0.4155  0.6265
 4443TIP3    H234745   5.190   2.871   4.376 -0.2036  4.1673 -1.3521
 4444TIP3   OH234746   3.832   3.231  15.490  0.3952 -0.1071  0.4829
 4444TIP3    H134747   3.835   3.138  15.512  0.8873  0.1461  1.5290
 4444TIP3    H234748   3.810   3.275  15.572  0.7551  0.7433  0.1361
 4445TIP3   OH234749   2.217   5.553   0.999 -0.4530  0.4663 -0.1650
 4445TIP3    H134750   2.309   5.530   1.013 -0.6320  0.2482  0.7512
 4445TIP3    H234751   2.184   5.574   1.087 -0.6622  2.9573 -0.7647
 4446TIP3   OH234752   0.080   2.948   3.523 -0.2243  0.1179  0.1028
 4446TIP3    H134753   0.149   2.973   3.584 -0.5499 -2.1690  1.5348
 4446TIP3    H234754   0.008   3.007   3.543 -0.4506 -0.7962  2.2480
 4447TIP3   OH234755   4.306   3.863   0.577 -0.5603 -0.1994  0.1585
 4447TIP3    H134756   4.254   3.861   0.497 -0.3644  0.0815  0.0223
 4447TIP3    H234757   4.384   3.914   0.554 -0.7317  0.3066  0.6686
 4448TIP3   OH234758   0.808   5.960  13.909  0.0668 -0.9677 -0.1729
 4448TIP3    H134759   0.754   6.022  13.861 -0.2920 -0.7991  0.4302
 4448TIP3    H234760   0.835   6.009  13.987  1.5846 -0.8375 -0.7481
 4449TIP3   OH234761   4.987   6.176  13.969 -0.2667 -0.6073 -0.2852
 4449TIP3    H134762   4.976   6.236  13.895 -0.0996  0.1266  0.2695
 4449TIP3    H234763   5.081   6.167  13.980 -0.2846 -0.3324  0.1322
 4450TIP3   OH234764   0.547   1.616  12.223 -0.1154 -0.1348 -0.2055
 4450TIP3    H134765   0.488   1.606  12.148 -0.9723  0.3494  0.3891
 4450TIP3    H234766   0.634   1.606  12.186 -0.4707  1.0844 -1.4486
 4451TIP3   OH234767   0.276   4.864   2.081 -0.2274 -0.0939 -0.2649
 4451TIP3    H134768   0.242   4.954   2.083 -1.6376 -0.5906 -0.1608
 4451TIP3    H234769   0.211   4.816   2.030  0.7019 -0.9927 -0.6219
 4452TIP3   OH234770   2.566   4.832   4.543  0.5538  0.4061 -0.0048
 4452TIP3    H134771   2.603   4.916   4.515 -0.5126  1.2799  1.1060
 4452TIP3    H234772   2.532   4.849   4.631  1.1184 -1.4358  0.6158
 4453TIP3   OH234773   2.738   0.661   4.561  0.4175 -0.3633 -0.4850
 4453TIP3    H134774   2.733   0.737   4.502 -1.0209 -0.1226 -0.0785
 4453TIP3    H234775   2.815   0.612   4.530  0.0191  0.0428 -2.2244
 4454TIP3   OH234776   6.442   5.225   2.730 -0.5994 -0.3039 -0.5238
 4454TIP3    H134777   6.454   5.285   2.656  0.7626 -1.1182 -1.0131
 4454TIP3    H234778   6.389   5.154   2.694  0.2565 -0.8146 -0.8193
 4455TIP3   OH234779   5.348   4.656  11.964 -0.4042  0.3256  0.8295
 4455TIP3    H134780   5.299   4.652  11.882 -0.0105  0.2518  0.5958
 4455TIP3    H234781   5.297   4.602  12.025 -0.6804  0.3540  0.6280
 4456TIP3   OH234782   1.967   6.233  17.208  0.5645 -0.2593 -0.0591
 4456TIP3    H134783   2.032   6.253  17.274  1.9162  0.0320 -1.4345
 4456TIP3    H234784   2.017   6.207  17.131 -0.9717 -2.6894 -0.3592
 4457TIP3   OH234785   2.229   0.200  12.357  0.5502  0.0627  0.8603
 4457TIP3    H134786   2.136   0.201  12.377  0.1113 -0.3490 -1.0218
 4457TIP3    H234787   2.253   0.292  12.347 -0.0758  0.1113 -0.3606
 4458TIP3   OH234788   4.608   6.320   1.425  0.0962  0.3616 -0.2627
 4458TIP3    H134789   4.684   6.362   1.465  0.6493 -0.7966 -0.0351
 4458TIP3    H234790   4.565   6.275   1.499  1.1370 -1.8228 -0.9127
 4459TIP3   OH234791   0.536   0.379   6.142  0.0260  0.0191 -0.7349
 4459TIP3    H134792   0.603   0.312   6.157 -0.2223  0.0762  0.8076
 4459TIP3    H234793   0.453   0.334   6.157 -0.2563  0.2033 -1.6455
 4460TIP3   OH234794   4.225   4.449  13.320  0.0774  0.8170 -0.0136
 4460TIP3    H134795   4.194   4.506  13.389 -1.4629  2.3776 -1.8950
 4460TIP3    H234796   4.163   4.376  13.319  0.9009  0.0608  1.0841
 4461TIP3   OH234797   6.305   4.899  16.114  0.0364 -0.2171 -0.2437
 4461TIP3    H134798   6.237   4.918  16.050 -0.0477  2.1894  0.4506
 4461TIP3    H234799   6.387   4.899  16.064 -0.1190  0.7372 -0.5234
 4462TIP3   OH234800   2.891   4.233   1.242 -1.0353  0.0361 -0.6027
 4462TIP3    H134801   2.964   4.204   1.296  0.2733  1.6098 -1.4459
 4462TIP3    H234802   2.813   4.204   1.289  0.0670  0.5803  1.7002
 4463TIP3   OH234803   1.174   1.923  12.019  0.8338  0.3260 -0.0116
 4463TIP3    H134804   1.160   1.872  12.098  1.6744 -2.7504 -1.6791
 4463TIP3    H234805   1.248   1.979  12.039  1.0328 -0.4026  1.3766
 4464TIP3   OH234806   1.700   6.054  13.966  0.1100  0.1051 -0.9576
 4464TIP3    H134807   1.788   6.081  13.990 -0.2557  0.0608  0.5351
 4464TIP3    H234808   1.704   6.041  13.871  1.6583  0.2421 -0.9383
 4465TIP3   OH234809   6.607   1.795  14.721 -0.1413  0.6774  0.1424
 4465TIP3    H134810   6.541   1.737  14.682 -0.4186  1.1262 -0.0681
 4465TIP3    H234811   6.644   1.841  14.646  0.5211  0.3204  0.2447
 4466TIP3   OH234812   1.916   3.464  13.161 -0.2591  0.1511  0.1417
 4466TIP3    H134813   1.854   3.517  13.110 -2.1845 -1.0509  1.1449
 4466TIP3    H234814   2.001   3.484  13.121 -1.3891  0.9474 -2.0908
 4467TIP3   OH234815   2.807   3.407  16.164  0.2517 -0.4043  0.5953
 4467TIP3    H134816   2.828   3.493  16.201 -1.7377 -0.7859  2.9080
 4467TIP3    H234817   2.794   3.351  16.240 -2.3105 -1.7612 -0.7041
 4468TIP3   OH234818   4.665   2.854   6.128  0.3784  0.0176  0.0256
 4468TIP3    H134819   4.642   2.822   6.215 -0.9182 -1.0315 -0.6651
 4468TIP3    H234820   4.688   2.775   6.079 -1.4488  0.2718 -1.3110
 4469TIP3   OH234821   1.314   0.043   0.310 -0.3062 -0.0853 -0.1663
 4469TIP3    H134822   1.319  -0.031   0.371 -0.0487  0.2224  0.1917
 4469TIP3    H234823   1.250   0.015   0.245 -0.6850 -0.3742  0.3153
 4470TIP3   OH234824   3.130   1.458   2.353  0.3221 -0.2386 -0.1360
 4470TIP3    H134825   3.115   1.386   2.413 -0.9027 -0.0225 -0.1668
 4470TIP3    H234826   3.106   1.424   2.267 -1.5101  0.5656  0.0180
 4471TIP3   OH234827   6.680   3.932  15.748  0.5015  0.3939 -0.4447
 4471TIP3    H134828   6.610   3.889  15.797  1.1356 -0.2273 -0.0622
 4471TIP3    H234829   6.745   3.954  15.815  0.8011  0.7049 -0.8360
 4472TIP3   OH234830   6.158   1.446  17.201  0.4689  0.0152  0.4189
 4472TIP3    H134831   6.222   1.500  17.153 -0.3681 -0.5097 -1.3790
 4472TIP3    H234832   6.211   1.379  17.243  1.1616 -0.2300 -0.7948
 4473TIP3   OH234833   6.150   0.626   4.947 -0.0284  0.1405 -0.0061
 4473TIP3    H134834   6.109   0.666   5.023 -0.4428  0.1915 -0.2517
 4473TIP3    H234835   6.149   0.695   4.880 -1.3554 -0.4666 -0.6531
 4474TIP3   OH234836   0.490   0.402  11.277 -0.0450 -0.0892  0.1118
 4474TIP3    H134837   0.544   0.379  11.202  0.4538  0.2308  0.3711
 4474TIP3    H234838   0.459   0.319  11.311 -0.1359 -0.2442 -0.3494
 4475TIP3   OH234839   0.363   5.783   4.089 -0.9898  0.0184 -0.5146
 4475TIP3    H134840   0.318   5.848   4.034 -0.9066 -1.4167 -2.3763
 4475TIP3    H234841   0.315   5.702   4.074 -0.1212 -0.7163  0.5171
 4476TIP3   OH234842   4.419   6.113   3.686 -0.1898  0.4245  0.3595
 4476TIP3    H134843   4.344   6.171   3.690 -1.8566 -1.6173  0.5492
 4476TIP3    H234844   4.450   6.105   3.776 -0.0075  0.9250  0.3423
 4477TIP3   OH234845   4.349   2.376   4.428  0.1292  0.1879 -0.4415
 4477TIP3    H134846   4.393   2.374   4.343  1.5382  1.1336  0.2271
 4477TIP3    H234847   4.261   2.342   4.411  0.4174  0.2803 -2.2471
 4478TIP3   OH234848   3.952   3.735  14.290  0.0097  0.1407  0.0529
 4478TIP3    H134849   4.047   3.739  14.300 -0.0458 -0.6126  0.9672
 4478TIP3    H234850   3.925   3.661  14.344 -1.1920  0.8583  0.4708
 4479TIP3   OH234851   4.066   1.762  15.760  0.3441  1.1800 -0.4325
 4479TIP3    H134852   4.080   1.691  15.823 -2.0246  0.0121 -1.1097
 4479TIP3    H234853   4.154   1.794  15.740  1.3209 -0.0382  1.6023
 4480TIP3   OH234854   0.733   1.297  15.281  0.1701  0.2050  0.5630
 4480TIP3    H134855   0.761   1.221  15.229 -0.3996  0.2497  0.1737
 4480TIP3    H234856   0.693   1.356  15.216  1.4150  1.2540  0.7038
 4481TIP3   OH234857   5.897   6.227  11.467 -0.2113  0.0290 -0.4420
 4481TIP3    H134858   5.901   6.154  11.529  1.3299  0.4320 -0.0263
 4481TIP3    H234859   5.854   6.298  11.515 -0.8020 -0.2691 -0.5143
 4482TIP3   OH234860   1.053   5.661  12.063 -0.1529 -0.1551 -0.1134
 4482TIP3    H134861   1.041   5.606  11.986 -0.0338 -0.6754  0.2354
 4482TIP3    H234862   1.114   5.612  12.119 -0.7450 -0.0940  0.6056
 4483TIP3   OH234863   3.947   0.469  16.322  0.2307  0.0687 -0.1100
 4483TIP3    H134864   3.856   0.467  16.353  0.3760  2.4220  0.6441
 4483TIP3    H234865   3.943   0.516  16.239  0.8198  0.7923  0.2593
 4484TIP3   OH234866   6.311   0.925   2.193  0.0565 -0.3888  0.1349
 4484TIP3    H134867   6.378   0.940   2.259  1.0976 -0.1034 -0.9594
 4484TIP3    H234868   6.236   0.978   2.222  0.3073 -0.6892  1.3434
 4485TIP3   OH234869   6.227   6.409  11.287 -0.5966  0.1415  0.1023
 4485TIP3    H134870   6.270   6.493  11.269 -0.4248 -0.0055 -0.1707
 4485TIP3    H234871   6.228   6.403  11.383  0.7428 -0.2387  0.0853
 4486TIP3   OH234872   3.295   5.296   3.952  0.5433  0.1380 -0.3477
 4486TIP3    H134873   3.270   5.266   4.040 -0.2582 -1.2310 -1.0010
 4486TIP3    H234874   3.369   5.355   3.967  0.1362  0.3109  1.2746
 4487TIP3   OH234875   4.047   1.935   4.051 -0.2722  0.1241 -0.1482
 4487TIP3    H134876   4.120   1.878   4.028  0.0236  0.5700 -0.3193
 4487TIP3    H234877   4.041   1.929   4.146 -0.0320  0.0584 -0.1371
 4488TIP3   OH234878   2.722   0.414  16.764 -0.2886  0.7639 -0.1214
 4488TIP3    H134879   2.741   0.500  16.727  0.4667  0.1344 -1.2230
 4488TIP3    H234880   2.654   0.378  16.707  0.9630 -0.2562 -1.0386
 4489TIP3   OH234881   4.774   2.193  12.217  0.4452  0.3691 -0.3250
 4489TIP3    H134882   4.689   2.235  12.229  0.1873  0.0134 -0.8726
 4489TIP3    H234883   4.806   2.227  12.133  0.3842 -0.2798 -0.6096
 4490TIP3   OH234884   5.977   1.305   4.055  0.0928 -0.3932 -0.6414
 4490TIP3    H134885   5.887   1.281   4.073  0.2078 -0.4906 -0.1882
 4490TIP3    H234886   5.992   1.385   4.106  0.3517 -0.5474 -0.4703
 4491TIP3   OH234887   6.058   0.767  12.659 -0.2955 -0.1974 -0.2944
 4491TIP3    H134888   6.022   0.816  12.733  1.7457  0.2909  0.4226
 4491TIP3    H234889   6.045   0.675  12.682  2.9858 -0.2006  2.2238
 4492TIP3   OH234890   1.616   0.829   1.058 -0.2419  0.5895  0.1343
 4492TIP3    H134891   1.522   0.819   1.075  0.1145  0.8246  2.5005
 4492TIP3    H234892   1.630   0.923   1.056 -0.1769  0.5671 -1.1333
 4493TIP3   OH234893   1.624   5.791  12.667  0.4011  0.3793  0.1712
 4493TIP3    H134894   1.561   5.774  12.596 -0.2177  3.2107 -0.0752
 4493TIP3    H234895   1.571   5.790  12.746  0.2808  1.3640  0.1140
 4494TIP3   OH234896   2.460   1.800  14.075  0.6999 -0.0724 -0.1512
 4494TIP3    H134897   2.435   1.866  14.139  0.6584 -0.0234 -0.2172
 4494TIP3    H234898   2.406   1.724  14.096  0.8581 -0.1372  0.0189
 4495TIP3   OH234899   2.593   1.968   5.966  0.1015 -0.0885  0.0327
 4495TIP3    H134900   2.668   1.942   6.018 -0.6548 -0.4083  0.9986
 4495TIP3    H234901   2.521   1.914   5.999 -0.2288 -0.9141 -1.9283
 4496TIP3   OH234902   4.533   4.538  12.703  0.5733  0.5291 -0.4830
 4496TIP3    H134903   4.544   4.620  12.655  1.2861  0.3760 -0.5900
 4496TIP3    H234904   4.439   4.534  12.721  0.4130  0.9923 -1.1501
 4497TIP3   OH234905   1.989   1.983   3.544  0.1733  0.2920 -0.2580
 4497TIP3    H134906   1.945   1.982   3.629 -0.9082 -1.7576 -0.7796
 4497TIP3    H234907   2.009   1.891   3.526  4.6857  0.9998 -0.1335
 4498TIP3   OH234908   2.724   4.531   0.131 -0.2423  0.1264  0.1167
 4498TIP3    H134909   2.697   4.623   0.133  0.0102  0.2316  2.5762
 4498TIP3    H234910   2.654   4.486   0.084 -0.4253  1.5506 -1.0252
 4499TIP3   OH234911   0.549   3.435  12.021 -0.0379 -0.1826 -0.1689
 4499TIP3    H134912   0.553   3.441  12.117  1.3545  0.8817 -0.2692
 4499TIP3    H234913   0.539   3.341  12.004  2.7747 -0.7817  0.9774
 4500TIP3   OH234914   4.424   0.393   6.055 -0.9153  0.0525 -0.8498
 4500TIP3    H134915   4.402   0.362   6.143  1.9731 -0.4615 -0.1914
 4500TIP3    H234916   4.399   0.485   6.055  0.9039  0.6442  1.3275
 4501TIP3   OH234917   4.103   4.469   1.758 -0.9680 -0.3631  0.1389
 4501TIP3    H134918   4.102   4.510   1.672 -1.3569 -0.7245 -0.0338
 4501TIP3    H234919   4.110   4.541   1.820  0.5711 -0.1509 -0.2261
 4502TIP3   OH234920   1.052   6.414  15.612 -0.0856 -0.7892 -0.3551
 4502TIP3    H134921   1.132   6.441  15.656  0.6738 -1.2372 -1.4121
 4502TIP3    H234922   1.040   6.477  15.541 -0.1264 -1.2779 -0.7942
 4503TIP3   OH234923   5.731   5.844  13.636  0.2028  0.0834 -0.0585
 4503TIP3    H134924   5.731   5.938  13.656  2.2950  0.1949 -0.3725
 4503TIP3    H234925   5.823   5.823  13.621 -0.3486 -1.8183 -1.0319
 4504TIP3   OH234926   4.358   6.507   5.440 -0.1370 -0.5620  0.0276
 4504TIP3    H134927   4.424   6.453   5.484 -0.5272  0.0274  1.3954
 4504TIP3    H234928   4.371   6.595   5.476 -0.5474 -0.0748 -0.9808
 4505TIP3   OH234929   4.015   2.207   1.529 -0.2236  0.1169  0.3843
 4505TIP3    H134930   3.925   2.238   1.542  0.2796  2.6652 -1.4647
 4505TIP3    H234931   4.022   2.193   1.435  1.3393  0.0110  0.4917
 4506TIP3   OH234932   5.850   2.060  10.829 -0.0230 -0.9415 -0.3129
 4506TIP3    H134933   5.868   2.148  10.863 -1.0282 -0.0313 -2.0160
 4506TIP3    H234934   5.787   2.074  10.759  0.0982 -3.0038 -0.8895
 4507TIP3   OH234935   3.396   2.273   4.896  0.1304  0.1672 -0.3852
 4507TIP3    H134936   3.417   2.298   4.806 -0.2081  0.9882 -0.2460
 4507TIP3    H234937   3.461   2.319   4.950  0.8969 -1.0320 -0.2566
 4508TIP3   OH234938   4.108   4.198  15.060  0.2531  0.1955  0.4402
 4508TIP3    H134939   4.142   4.110  15.074 -0.2211 -0.0281  0.2123
 4508TIP3    H234940   4.111   4.211  14.966  0.0140  0.2969  0.4456
 4509TIP3   OH234941   3.255   5.301   0.329 -0.2853  0.0060 -0.1958
 4509TIP3    H134942   3.231   5.259   0.411  1.2572 -1.7930 -0.5796
 4509TIP3    H234943   3.173   5.309   0.281 -0.8850 -1.0321  0.6160
 4510TIP3   OH234944   5.831   1.236  17.265  0.2537  0.3293 -0.0652
 4510TIP3    H134945   5.917   1.228  17.306  0.5331  1.2104 -0.4364
 4510TIP3    H234946   5.818   1.331  17.256 -0.7033  0.2007 -0.1271
 4511TIP3   OH234947   4.500   6.474  16.506  0.0941  0.2031 -0.9423
 4511TIP3    H134948   4.425   6.496  16.452  0.2524  0.2654 -1.1380
 4511TIP3    H234949   4.472   6.491  16.595  0.2725  1.3609 -1.0951
 4512TIP3   OH234950   4.106   4.495   5.898 -0.8115 -0.5668  0.0527
 4512TIP3    H134951   4.192   4.516   5.935 -1.3593  0.4843  0.8004
 4512TIP3    H234952   4.067   4.435   5.961 -0.5032 -1.3012 -0.4518
 4513TIP3   OH234953   3.296   4.909   4.636 -0.0454 -0.2500  0.1461
 4513TIP3    H134954   3.292   4.900   4.731  1.5911  1.5019  0.4481
 4513TIP3    H234955   3.205   4.921   4.609 -0.4365  0.5041  1.6680
 4514TIP3   OH234956   1.150   5.200   3.128 -0.6447 -0.2307 -0.6519
 4514TIP3    H134957   1.133   5.159   3.212  2.9036 -0.5702  0.0657
 4514TIP3    H234958   1.150   5.128   3.065  0.6843 -0.6257 -0.2228
 4515TIP3   OH234959   2.686   1.131   1.936 -0.2785 -0.0085 -0.1049
 4515TIP3    H134960   2.760   1.080   1.967  2.4505  2.4008 -2.0735
 4515TIP3    H234961   2.664   1.093   1.851 -0.6249 -0.0767  0.0136
 4516TIP3   OH234962   5.007   0.791  14.148  0.7607  0.5859  0.1226
 4516TIP3    H134963   4.949   0.861  14.180 -1.5059 -0.8755 -0.5172
 4516TIP3    H234964   5.071   0.780  14.218 -0.6821  1.2530  1.6405
 4517TIP3   OH234965   5.495   0.021  15.753 -0.0816 -1.0661 -0.0359
 4517TIP3    H134966   5.490  -0.020  15.667 -0.6842 -1.3559  0.1307
 4517TIP3    H234967   5.584   0.056  15.759  0.1261 -1.5114 -0.5620
 4518TIP3   OH234968   4.878   2.623   2.177  0.1728 -0.5732  0.1862
 4518TIP3    H134969   4.946   2.559   2.155  1.0534  0.3806  0.0708
 4518TIP3    H234970   4.798   2.586   2.140  0.9973 -0.7237 -1.5532
 4519TIP3   OH234971   2.515   0.198   2.486 -0.5871 -0.2125 -0.1760
 4519TIP3    H134972   2.464   0.193   2.405 -1.1034  0.9011  0.0614
 4519TIP3    H234973   2.606   0.204   2.457 -0.6927 -0.7609 -0.6407
 4520TIP3   OH234974   4.892   0.576  17.072  0.3930  0.0940  0.0134
 4520TIP3    H134975   4.979   0.542  17.093  0.2127 -0.6185 -0.3814
 4520TIP3    H234976   4.854   0.512  17.012  0.5157  1.5791 -1.7373
 4521TIP3   OH234977   1.967   0.915   3.045  0.0069 -0.1657  0.5668
 4521TIP3    H134978   1.910   0.990   3.029  2.4362  1.4679 -1.3846
 4521TIP3    H234979   1.912   0.839   3.028 -2.1862  1.1841  1.2000
 4522TIP3   OH234980   1.127   2.402   4.169 -0.6891  0.8991  0.1020
 4522TIP3    H134981   1.171   2.337   4.224 -1.1610 -0.7558 -1.3956
 4522TIP3    H234982   1.155   2.486   4.205  2.5161 -0.0580  0.1345
 4523TIP3   OH234983   5.055   4.657   2.018  0.4160  0.0374 -0.0194
 4523TIP3    H134984   5.046   4.696   1.931 -2.5270  0.4064  0.3306
 4523TIP3    H234985   5.047   4.731   2.078  0.5776 -0.4337  0.5876
 4524TIP3   OH234986   4.604   2.395  12.121  0.2147 -0.0323  0.3357
 4524TIP3    H134987   4.553   2.399  12.040  0.2273 -1.3961  0.2484
 4524TIP3    H234988   4.676   2.456  12.107 -0.0451  0.0964 -0.4846
 4525TIP3   OH234989   4.851   0.999  16.208  0.6480  0.4305 -0.1864
 4525TIP3    H134990   4.856   0.993  16.112  0.5594  0.6265 -0.2057
 4525TIP3    H234991   4.926   0.949  16.239  1.3773  1.3649 -0.3931
 4526TIP3   OH234992   2.671   6.435  13.734 -0.0962 -0.4669  0.4731
 4526TIP3    H134993   2.709   6.350  13.756 -0.2890 -0.1071  2.4219
 4526TIP3    H234994   2.736   6.499  13.765 -0.1828  0.1068 -0.4967
 4527TIP3   OH234995   5.307   2.545   5.726 -0.2023 -0.0110 -0.2403
 4527TIP3    H134996   5.307   2.449   5.734 -0.8515  0.0276  0.2964
 4527TIP3    H234997   5.280   2.561   5.636 -2.2444 -0.3098  0.2789
 4528TIP3   OH234998   4.209   3.634   0.683 -0.0278 -0.4411  0.5279
 4528TIP3    H134999   4.177   3.652   0.772 -2.4401 -0.3940 -0.2955
 4528TIP3    H235000   4.245   3.717   0.654  0.4071 -0.3476  1.2941
 4529TIP3   OH235001   3.279   2.804  14.066  0.3601  0.1524  0.2491
 4529TIP3    H135002   3.347   2.763  14.014  1.2151  0.0561  1.4119
 4529TIP3    H235003   3.261   2.887  14.021 -1.1379 -1.2474 -1.9202
 4530TIP3   OH235004   0.899   3.195   4.302  0.3273  0.2063  0.0818
 4530TIP3    H135005   0.816   3.150   4.315  0.2828 -0.2325 -1.4916
 4530TIP3    H235006   0.911   3.197   4.207  0.5736  3.0556  0.0785
 4531TIP3   OH235007   2.087   4.098  16.974 -0.3415 -0.2648  0.8516
 4531TIP3    H135008   2.102   4.094  17.069  1.1293  1.1331  0.7208
 4531TIP3    H235009   2.125   4.016  16.941  1.9166  0.5627  1.2015
 4532TIP3   OH235010   3.220   2.610  17.251  0.3999 -0.1663  0.3500
 4532TIP3    H135011   3.234   2.516  17.243  0.5021 -0.0822 -0.5129
 4532TIP3    H235012   3.186   2.622  17.340 -1.1236 -1.2009 -0.0531
 4533TIP3   OH235013   4.161   2.248   5.236  0.1483  0.0277 -0.1249
 4533TIP3    H135014   4.216   2.169   5.233  0.5848  0.3594 -1.2191
 4533TIP3    H235015   4.118   2.243   5.322 -0.3339 -1.7425 -0.4134
 4534TIP3   OH235016   2.451   6.364   1.834  0.6461 -0.2196 -0.4521
 4534TIP3    H135017   2.521   6.341   1.773  0.6082 -0.1899 -0.5066
 4534TIP3    H235018   2.389   6.291   1.828  0.5361 -0.1149 -0.6102
 4535TIP3   OH235019   6.212   3.980  12.340  0.5961  0.4136 -0.0388
 4535TIP3    H135020   6.305   4.001  12.347  0.7208 -0.0698 -0.2226
 4535TIP3    H235021   6.210   3.896  12.295  0.0802  0.2971  0.2004
 4536TIP3   OH235022   2.075   6.486   0.373 -0.0383 -0.0719  0.7164
 4536TIP3    H135023   2.153   6.518   0.418  0.4109 -1.8839  1.3270
 4536TIP3    H235024   2.051   6.556   0.312  0.6841  1.4831  2.1577
 4537TIP3   OH235025   5.053   5.765  11.402  0.4132 -0.0482  0.3989
 4537TIP3    H135026   5.084   5.691  11.454  0.0659  1.3834  2.7871
 4537TIP3    H235027   5.112   5.837  11.425 -1.1837  1.2303  0.6223
 4538TIP3   OH235028   3.940   4.955  11.488 -0.6927  0.1803 -0.6650
 4538TIP3    H135029   3.872   4.943  11.554 -1.6031 -1.4528 -1.8479
 4538TIP3    H235030   3.941   4.874  11.438  1.3967  0.5738 -1.3906
 4539TIP3   OH235031   1.323   4.559   5.347 -0.1042 -0.3726 -0.2077
 4539TIP3    H135032   1.235   4.524   5.333 -0.4739  0.4198  0.0359
 4539TIP3    H235033   1.345   4.603   5.264  0.8744 -2.1879 -0.9731
 4540TIP3   OH235034   6.276   5.586  12.593 -0.0428 -0.0453  0.0005
 4540TIP3    H135035   6.276   5.657  12.529  1.1053 -1.7321 -1.9807
 4540TIP3    H235036   6.187   5.586  12.629  0.0720  2.6770  0.4608
 4541TIP3   OH235037   1.459   0.216  10.878  0.3402  0.3956  0.9750
 4541TIP3    H135038   1.463   0.308  10.852  1.8141  0.7147  2.2501
 4541TIP3    H235039   1.544   0.180  10.852 -0.8381 -1.0939 -1.1092
 4542TIP3   OH235040   5.880   1.546   4.223 -0.4528 -0.5220  0.2386
 4542TIP3    H135041   5.852   1.627   4.266  2.8541  1.0541 -0.2811
 4542TIP3    H235042   5.819   1.535   4.150 -1.4657  1.0060  0.8100
 4543TIP3   OH235043   1.386   1.620   3.569 -0.4369  0.5067  0.4746
 4543TIP3    H135044   1.302   1.665   3.569 -1.3341 -1.0984  1.0134
 4543TIP3    H235045   1.380   1.557   3.496 -0.0719 -0.2442  1.0749
 4544TIP3   OH235046   4.428   1.451   2.562  0.1599  0.0865  0.2666
 4544TIP3    H135047   4.521   1.463   2.544  0.2455 -0.7347  0.0851
 4544TIP3    H235048   4.413   1.358   2.546 -0.2347 -0.2726  2.4196
 4545TIP3   OH235049   5.414   0.678   0.675 -0.0124 -0.2421  0.0695
 4545TIP3    H135050   5.369   0.760   0.696  2.6304  1.4911 -0.5986
 4545TIP3    H235051   5.347   0.625   0.633 -1.8654  1.5113  0.6313
 4546TIP3   OH235052   5.651   4.853   4.608  0.0691  0.1396 -0.4364
 4546TIP3    H135053   5.681   4.901   4.685 -0.9714  1.5335 -0.8564
 4546TIP3    H235054   5.567   4.815   4.635  0.0129  0.0944 -0.6701
 4547TIP3   OH235055   3.071   2.987   6.479  0.0744 -0.3140  0.8074
 4547TIP3    H135056   3.137   2.919   6.463 -1.3414 -1.0831 -2.7631
 4547TIP3    H235057   2.989   2.949   6.447 -1.0784  2.4701  0.1435
 4548TIP3   OH235058   4.458   4.159  15.546 -0.0356  0.4503  0.2670
 4548TIP3    H135059   4.378   4.120  15.511  0.0808 -0.1461  0.6557
 4548TIP3    H235060   4.465   4.243  15.500 -0.4004  0.1138 -0.4322
 4549TIP3   OH235061   6.578   3.329  13.099 -0.5696  0.2406  0.1800
 4549TIP3    H135062   6.554   3.301  13.011  1.1031 -0.8166  0.0237
 4549TIP3    H235063   6.671   3.309  13.107 -0.6874  0.2325  2.2136
 4550TIP3   OH235064   5.294   6.598  13.651 -0.1628  0.0625 -0.2544
 4550TIP3    H135065   5.228   6.614  13.583  0.3403  0.6504 -0.6141
 4550TIP3    H235066   5.378   6.609  13.607  0.1694  0.4417  0.4543
 4551TIP3   OH235067   3.060   5.614   4.812 -0.1267  0.8161 -0.1913
 4551TIP3    H135068   3.147   5.576   4.800 -0.1662  1.1135 -1.6183
 4551TIP3    H235069   3.068   5.668   4.891 -0.0354 -1.9656  1.8912
 4552TIP3   OH235070   0.879   2.151  14.381 -0.3033  0.5610  0.2497
 4552TIP3    H135071   0.834   2.095  14.444 -0.3553  1.3049  0.8899
 4552TIP3    H235072   0.968   2.116  14.376 -0.1339  0.8291  1.1799
 4553TIP3   OH235073   1.630   4.206  12.010 -0.0481  0.8575 -0.5144
 4553TIP3    H135074   1.590   4.280  11.965  0.0168  1.1940 -0.0213
 4553TIP3    H235075   1.656   4.146  11.940 -0.9603  0.8616 -0.8734
 4554TIP3   OH235076   0.857   0.584  16.260  0.1331  0.1551  0.2386
 4554TIP3    H135077   0.846   0.662  16.315 -2.5978  0.6986 -0.9002
 4554TIP3    H235078   0.868   0.513  16.323 -0.0505  1.1156  1.4118
 4555TIP3   OH235079   2.189   3.269  15.208  0.3240 -0.6016 -0.7982
 4555TIP3    H135080   2.211   3.319  15.287 -0.6922 -0.5662 -0.5256
 4555TIP3    H235081   2.117   3.318  15.168 -0.9232 -2.0032 -0.3491
 4556TIP3   OH235082   1.581   2.330   6.944  0.0325  0.3338 -0.8268
 4556TIP3    H135083   1.512   2.340   6.878  0.8827 -1.3168 -2.0499
 4556TIP3    H235084   1.627   2.250   6.919  1.5370  0.6318  0.7540
 4557TIP3   OH235085   3.491   2.405  13.147 -0.0078 -0.1838  0.0143
 4557TIP3    H135086   3.479   2.381  13.239 -0.8893  0.7539  0.1609
 4557TIP3    H235087   3.568   2.462  13.148 -0.4064  0.3637  0.2845
 4558TIP3   OH235088   2.935   2.325   0.445  0.2470  0.3333 -0.0190
 4558TIP3    H135089   3.014   2.337   0.497 -0.3657  3.4067  0.4076
 4558TIP3    H235090   2.965   2.332   0.354  0.5014  1.3449  0.1351
 4559TIP3   OH235091   2.458   3.713   5.718  0.0798 -0.3566 -0.0414
 4559TIP3    H135092   2.375   3.721   5.671  0.8448 -3.5518 -2.3248
 4559TIP3    H235093   2.444   3.641   5.779  0.7086  0.1732  0.7477
 4560TIP3   OH235094   0.663   3.250   2.037 -0.0178 -0.0771 -0.4958
 4560TIP3    H135095   0.759   3.256   2.042 -0.0199  0.7379 -1.1621
 4560TIP3    H235096   0.634   3.248   2.128  0.5461  1.5017 -0.2500
 4561TIP3   OH235097   4.095   2.797  11.150 -0.0522 -0.3847 -0.2679
 4561TIP3    H135098   4.023   2.756  11.199 -0.1408  0.3681  0.2445
 4561TIP3    H235099   4.080   2.891  11.159  2.9908  0.0073  3.1046
 4562TIP3   OH235100   0.709   0.066  14.183 -0.0218  0.1664  0.3003
 4562TIP3    H135101   0.704   0.161  14.168  1.2153 -0.0877 -2.1541
 4562TIP3    H235102   0.794   0.041  14.148 -0.0044 -1.7721  1.6150
 4563TIP3   OH235103   2.262   4.357   4.388 -0.3228 -0.1657  0.0980
 4563TIP3    H135104   2.245   4.298   4.314  0.9329 -4.2515  2.7140
 4563TIP3    H235105   2.352   4.388   4.374 -0.6785  0.4916 -0.8540
 4564TIP3   OH235106   0.025   5.817   1.625  0.2554 -0.7428 -0.2108
 4564TIP3    H135107   0.093   5.861   1.575 -1.5874  2.1023 -0.5014
 4564TIP3    H235108   0.060   5.812   1.714  0.7246  1.1000 -0.2440
 4565TIP3   OH235109   2.306   0.246  15.468  0.4680 -0.3749 -0.2835
 4565TIP3    H135110   2.347   0.187  15.405  2.9035 -0.2829  1.0992
 4565TIP3    H235111   2.365   0.322  15.473  0.1814 -0.2214  1.8117
 4566TIP3   OH235112   2.003   5.680  12.538 -0.4407 -0.3425  0.6021
 4566TIP3    H135113   1.998   5.773  12.558 -0.0601  0.2785 -1.8968
 4566TIP3    H235114   1.918   5.645  12.565 -0.0359  0.3394  3.0293
 4567TIP3   OH235115   6.445   1.325  13.364 -0.1941  0.1166  0.0813
 4567TIP3    H135116   6.380   1.281  13.419 -0.3905 -1.0245 -1.0165
 4567TIP3    H235117   6.517   1.346  13.424 -0.7292 -0.3819  0.9237
 4568TIP3   OH235118   3.360   5.546  15.517 -0.3434  0.0871  0.3124
 4568TIP3    H135119   3.315   5.549  15.432  0.0375  1.0314  0.1349
 4568TIP3    H235120   3.325   5.621  15.565  1.2049  0.9930  0.0711
 4569TIP3   OH235121   6.580   5.630   0.551  0.8601 -0.3832 -0.3760
 4569TIP3    H135122   6.514   5.561   0.554 -0.4434  0.8510  2.2930
 4569TIP3    H235123   6.662   5.586   0.572 -0.0811 -1.0522  2.2029
 4570TIP3   OH235124   5.433   4.954   5.598 -0.3647  0.2243 -0.5578
 4570TIP3    H135125   5.388   4.962   5.683 -2.4472 -0.0616 -1.5751
 4570TIP3    H235126   5.390   4.879   5.556  2.1419 -1.0397 -1.0234
 4571TIP3   OH235127   6.298   3.822   3.740  0.2640 -0.4218 -0.0820
 4571TIP3    H135128   6.343   3.906   3.728 -0.0209 -0.2022  0.3346
 4571TIP3    H235129   6.225   3.843   3.799  0.2307 -0.9748  0.0746
 4572TIP3   OH235130   0.708   4.412  12.639 -0.4854 -0.3378 -0.2930
 4572TIP3    H135131   0.789   4.362  12.649 -0.2272  0.1606  0.1827
 4572TIP3    H235132   0.639   4.355  12.674 -0.1078 -0.1306  0.8386
 4573TIP3   OH235133   0.731   5.929   3.146  0.5315 -1.1093 -0.6192
 4573TIP3    H135134   0.638   5.908   3.156 -0.4550  1.9364 -2.1279
 4573TIP3    H235135   0.749   5.916   3.053  0.8966  0.5614 -0.8228
 4574TIP3   OH235136   0.088   6.599  17.258  0.1370  0.1444 -0.0275
 4574TIP3    H135137   0.146   6.530  17.289 -1.5204 -0.9817  0.7429
 4574TIP3    H235138   0.069   6.652  17.336  0.5509  0.8461 -0.3915
 4575TIP3   OH235139   2.448   0.874   4.563 -0.3686  0.4085 -0.1254
 4575TIP3    H135140   2.480   0.858   4.652 -0.2753  2.1071  0.1710
 4575TIP3    H235141   2.369   0.821   4.556 -0.0560 -0.1939  0.7590
 4576TIP3   OH235142   1.605   3.464  13.239  0.5047 -0.2405  0.3985
 4576TIP3    H135143   1.669   3.420  13.183 -1.1414 -0.3269 -1.5232
 4576TIP3    H235144   1.600   3.554  13.205 -1.1916 -0.5476 -0.2536
 4577TIP3   OH235145   3.949   2.944  16.387 -0.6916  0.5547  0.4481
 4577TIP3    H135146   4.025   2.897  16.353 -0.3498  2.0316 -0.9578
 4577TIP3    H235147   3.971   2.962  16.479 -0.0917 -0.4710  0.5220
 4578TIP3   OH235148   4.667   0.430  10.785  0.3862  0.7023 -0.1372
 4578TIP3    H135149   4.723   0.353  10.775  0.5343  0.6238  1.1156
 4578TIP3    H235150   4.723   0.504  10.759  0.4415  0.4593 -0.7337
 4579TIP3   OH235151   5.761   5.879   0.753  0.3567  0.1889  0.0784
 4579TIP3    H135152   5.666   5.895   0.753 -0.1106 -1.8050 -2.6908
 4579TIP3    H235153   5.783   5.870   0.660  3.5075  1.5747  0.5785
 4580TIP3   OH235154   1.496   0.185  12.280  0.4329  0.0863  0.1909
 4580TIP3    H135155   1.480   0.098  12.243  0.0438 -1.1788  3.0925
 4580TIP3    H235156   1.565   0.172  12.345 -1.3968  1.3246  2.5596
 4581TIP3   OH235157   4.208   6.663  15.212 -0.2486  0.2652  0.0498
 4581TIP3    H135158   4.135   6.640  15.154  0.3509  1.7094 -1.3627
 4581TIP3    H235159   4.250   6.579  15.232 -1.1676 -0.3888 -0.6775
 4582TIP3   OH235160   6.430   1.772   0.991 -0.5456  0.3977  0.4212
 4582TIP3    H135161   6.397   1.728   0.913 -1.0169  0.2839  0.6804
 4582TIP3    H235162   6.394   1.861   0.985  0.9029  0.9603 -0.4175
 4583TIP3   OH235163   1.276   0.847  11.922  0.3786  0.0710  0.8571
 4583TIP3    H135164   1.225   0.783  11.971  0.4887  0.2482  1.2044
 4583TIP3    H235165   1.253   0.931  11.960 -0.0675  0.2830  0.1402
 4584TIP3   OH235166   0.940   2.007   2.942 -0.3963 -0.1889 -0.1739
 4584TIP3    H135167   1.002   1.992   3.014 -0.9694 -1.7689  0.0343
 4584TIP3    H235168   0.983   1.968   2.866  0.8301  2.6686 -1.0862
 4585TIP3   OH235169   0.829   4.727  11.952  0.3047 -0.6033  0.0149
 4585TIP3    H135170   0.915   4.700  11.984  0.7858  1.3023  0.4637
 4585TIP3    H235171   0.773   4.726  12.030  0.7553  1.2407  0.4060
 4586TIP3   OH235172   2.760   6.160   1.208  0.1651  0.2811 -0.4316
 4586TIP3    H135173   2.855   6.158   1.206  0.2624  2.3889 -2.4346
 4586TIP3    H235174   2.739   6.253   1.215 -1.7359 -0.0132 -1.6137
 4587TIP3   OH235175   6.331   0.752   3.321 -0.5494  0.3287  0.2278
 4587TIP3    H135176   6.278   0.810   3.375 -0.5516  0.3993  0.1507
 4587TIP3    H235177   6.269   0.712   3.259 -0.2054  2.1803 -1.4309
 4588TIP3   OH235178   2.216   1.917   2.348  0.2752  0.0450  0.3320
 4588TIP3    H135179   2.155   1.920   2.421 -0.9081 -0.5443 -0.5905
 4588TIP3    H235180   2.236   1.824   2.337 -1.4581 -0.2015 -1.5337
 4589TIP3   OH235181   1.205   3.506   2.299 -0.1095 -0.3494 -0.0834
 4589TIP3    H135182   1.187   3.493   2.206 -0.7022  2.4948 -0.4551
 4589TIP3    H235183   1.127   3.475   2.343  0.4797 -2.4564 -0.3962
 4590TIP3   OH235184   5.938   2.164   6.070  0.1305 -0.2941 -0.7908
 4590TIP3    H135185   5.931   2.254   6.037 -0.8299 -0.2704 -0.5433
 4590TIP3    H235186   5.932   2.174   6.166 -1.5821 -0.7459 -0.8203
 4591TIP3   OH235187   4.672   3.649   2.435 -0.2604  0.4978  0.7366
 4591TIP3    H135188   4.613   3.668   2.363  0.4365  1.1022  0.3037
 4591TIP3    H235189   4.616   3.618   2.506 -0.9905  0.2517  0.0606
 4592TIP3   OH235190   0.489   0.701  12.133  0.4204 -0.4180 -0.2709
 4592TIP3    H135191   0.493   0.758  12.056 -0.0003  0.1466  0.1157
 4592TIP3    H235192   0.575   0.658  12.137  1.0528  0.8299 -0.0875
 4593TIP3   OH235193   4.515   0.898  14.404  0.1582  0.4329  0.4795
 4593TIP3    H135194   4.455   0.825  14.421  2.0775 -1.6290 -0.8657
 4593TIP3    H235195   4.459   0.969  14.372 -1.6370 -1.1630 -0.1287
 4594TIP3   OH235196   2.898   6.210   0.579  1.0747 -0.2073 -0.9419
 4594TIP3    H135197   2.944   6.168   0.652  0.3263  0.7294  0.1077
 4594TIP3    H235198   2.914   6.303   0.591 -1.3211  0.1853 -0.3465
 4595TIP3   OH235199   0.000   2.513   0.781  0.0344 -0.1636 -0.0113
 4595TIP3    H135200  -0.044   2.502   0.865 -0.5499  0.7942 -0.1778
 4595TIP3    H235201   0.004   2.425   0.744  0.1250 -0.5654  0.9226
 4596TIP3   OH235202   4.555   6.378  12.928  0.0490 -0.0736  0.0838
 4596TIP3    H135203   4.606   6.347  13.003 -0.2569 -0.5450  0.0984
 4596TIP3    H235204   4.599   6.459  12.902  1.5018 -1.0371 -0.6213
 4597TIP3   OH235205   2.825   4.285  17.237 -0.3151 -0.0804 -0.4784
 4597TIP3    H135206   2.730   4.296  17.243 -0.2390  0.5969 -0.4172
 4597TIP3    H235207   2.861   4.360  17.285  0.2516 -0.3391 -0.4865
 4598TIP3   OH235208   5.759   5.678   3.135  0.5856 -0.3425 -0.2411
 4598TIP3    H135209   5.801   5.679   3.049 -0.9604 -0.9410 -1.0494
 4598TIP3    H235210   5.787   5.595   3.174  1.8751  0.2639  0.1628
 4599TIP3   OH235211   5.633   5.595   4.424  0.1009  0.1023  0.1347
 4599TIP3    H135212   5.576   5.638   4.361  0.6053  0.6578  0.0405
 4599TIP3    H235213   5.653   5.663   4.488  0.4098 -0.1703  0.3313
 4600TIP3   OH235214   2.869   1.264  14.288  0.1022 -0.1030  0.2190
 4600TIP3    H135215   2.844   1.356  14.280  0.0534  0.1036  2.2178
 4600TIP3    H235216   2.965   1.265  14.284  0.0617 -0.1339 -1.0179
 4601TIP3   OH235217   1.506   1.921  17.039  0.5790  0.4286  0.4112
 4601TIP3    H135218   1.505   1.986  16.969  0.7671 -0.7950 -0.7738
 4601TIP3    H235219   1.414   1.908  17.061  0.3868 -0.3004 -0.7246
 4602TIP3   OH235220   1.244   3.896  13.679 -0.0253  0.4383 -0.3662
 4602TIP3    H135221   1.251   3.989  13.701  2.1719 -0.0242  1.3091
 4602TIP3    H235222   1.293   3.886  13.598 -0.9088  0.8447 -0.9564
 4603TIP3   OH235223   5.367   2.131   6.106  0.4201  0.1232  0.2210
 4603TIP3    H135224   5.370   2.035   6.097  1.0502  0.0609  0.9767
 4603TIP3    H235225   5.321   2.146   6.188  1.1694  0.4254  0.6011
 4604TIP3   OH235226   3.539   5.178  17.181  0.1643  0.1178  0.3877
 4604TIP3    H135227   3.450   5.213  17.179  0.0252 -0.2451  0.0986
 4604TIP3    H235228   3.592   5.245  17.138  0.2350  0.8723  1.6022
 4605TIP3   OH235229   3.967   5.148  14.577 -0.3673 -0.3650  0.0009
 4605TIP3    H135230   4.026   5.078  14.604  0.1388 -0.3050 -0.8861
 4605TIP3    H235231   3.883   5.125  14.615 -0.1925 -1.4344 -0.2315
 4606TIP3   OH235232   4.139   6.488  16.468  0.0145  0.7471  0.0541
 4606TIP3    H135233   4.212   6.470  16.409  0.2446 -0.0546  0.5705
 4606TIP3    H235234   4.100   6.568  16.433  0.4244  0.5417 -0.9090
 4607TIP3   OH235235   4.431   1.473   0.344  0.3480 -0.1625 -0.2292
 4607TIP3    H135236   4.442   1.379   0.357  1.8039  0.0097 -0.0550
 4607TIP3    H235237   4.338   1.483   0.322  0.5440 -1.8496 -2.1416
 4608TIP3   OH235238   4.958   4.735  17.286 -0.4456  0.2775 -0.4336
 4608TIP3    H135239   4.942   4.661  17.344 -0.0186  0.2419 -0.3581
 4608TIP3    H235240   4.871   4.770  17.267 -0.5816  0.4426  0.4267
 4609TIP3   OH235241   6.114   2.271   2.294 -0.0125 -0.3051 -0.8249
 4609TIP3    H135242   6.105   2.205   2.224 -2.3323 -0.5723 -0.3327
 4609TIP3    H235243   6.127   2.353   2.247 -0.5282 -0.6258 -1.5549
 4610TIP3   OH235244   1.455   0.666  14.061  0.6340 -0.4794  0.7414
 4610TIP3    H135245   1.528   0.644  14.004 -0.4849  0.0738 -0.9650
 4610TIP3    H235246   1.410   0.583  14.077  0.3071 -0.4756 -0.1272
 4611TIP3   OH235247   4.784   1.729   4.324  0.2035 -0.3990 -0.0947
 4611TIP3    H135248   4.725   1.803   4.339  0.6280 -0.3054  1.3487
 4611TIP3    H235249   4.863   1.769   4.288 -0.5420 -0.5127 -1.9389
 4612TIP3   OH235250   2.837   4.202  14.675  0.1432 -0.3261  0.4320
 4612TIP3    H135251   2.896   4.267  14.713 -0.2090 -0.3836  1.0878
 4612TIP3    H235252   2.802   4.244  14.597  0.5355 -0.0375  0.4097
 4613TIP3   OH235253   3.266   0.243   4.262 -0.1086 -0.0517 -0.0571
 4613TIP3    H135254   3.235   0.244   4.353  0.2725  0.8620  0.0734
 4613TIP3    H235255   3.270   0.150   4.239 -1.3383 -0.2567  0.4676
 4614TIP3   OH235256   4.342   1.179   5.706 -0.1993 -0.1465  0.4239
 4614TIP3    H135257   4.317   1.206   5.618  0.6089  2.0572  0.7950
 4614TIP3    H235258   4.309   1.090   5.715 -0.8612 -0.1833 -1.8608
 4615TIP3   OH235259   2.830   2.743  16.096 -0.0632 -0.0832 -0.3046
 4615TIP3    H135260   2.808   2.718  16.006  1.2085  0.4261 -0.7760
 4615TIP3    H235261   2.900   2.807  16.087 -1.2548  1.4823  0.9909
 4616TIP3   OH235262   3.035   4.439  17.049  0.3793  0.2040  0.1611
 4616TIP3    H135263   3.003   4.497  16.979  0.2232  0.3883  0.3831
 4616TIP3    H235264   3.071   4.363  17.003  0.7564  0.5613 -0.1428
 4617TIP3   OH235265   0.687   5.812  14.888 -0.2481  0.3287  0.3591
 4617TIP3    H135266   0.746   5.841  14.819  0.0488  1.5902  1.1121
 4617TIP3    H235267   0.651   5.893  14.925 -0.1370 -0.2749  1.8922
 4618TIP3   OH235268   2.478   4.923   1.794 -0.0487  0.0749  0.3894
 4618TIP3    H135269   2.475   5.019   1.791  1.9615  0.2861  2.2370
 4618TIP3    H235270   2.501   4.903   1.885  2.8902 -1.9765 -0.6517
 4619TIP3   OH235271   4.490   3.091   2.427 -0.0885 -0.2857 -0.0011
 4619TIP3    H135272   4.421   3.097   2.360  0.0943 -2.1161 -0.4194
 4619TIP3    H235273   4.501   3.181   2.458 -2.3432  0.1410 -0.2332
 4620TIP3   OH235274   4.536   3.727   1.365 -0.1596  0.3484  0.0557
 4620TIP3    H135275   4.510   3.682   1.445  0.9632 -0.0120  0.2359
 4620TIP3    H235276   4.622   3.763   1.385  0.5764 -0.5922 -1.2985
 4621TIP3   OH235277   2.044   4.172   5.088  0.2393 -0.4258 -0.7853
 4621TIP3    H135278   2.107   4.104   5.112  1.2021  0.9842  0.9204
 4621TIP3    H235279   2.068   4.195   4.998  0.0774 -2.0853 -1.2858
 4622TIP3   OH235280   3.531   4.955   2.489 -0.1646  0.1909 -0.2434
 4622TIP3    H135281   3.463   5.006   2.445 -0.3914  0.5636  0.5219
 4622TIP3    H235282   3.483   4.887   2.535  0.0976 -0.3922 -0.8189
 4623TIP3   OH235283   3.540   1.359  13.005 -0.1675 -0.4859 -0.0220
 4623TIP3    H135284   3.493   1.299  13.063  0.2553  0.3194  1.2084
 4623TIP3    H235285   3.543   1.315  12.921 -0.3352 -1.9456  0.7133
 4624TIP3   OH235286   6.222   1.842   6.313  0.5370  0.2991 -0.2800
 4624TIP3    H135287   6.137   1.852   6.356  0.5951 -1.2983  0.2961
 4624TIP3    H235288   6.223   1.908   6.245 -1.5246 -0.1712 -0.8249
 4625TIP3   OH235289   1.510   0.608   4.305 -0.0355  0.1631  0.6315
 4625TIP3    H135290   1.562   0.665   4.248 -0.3524  1.1621  1.3238
 4625TIP3    H235291   1.555   0.610   4.389 -1.2878  1.2490  1.3188
 4626TIP3   OH235292   6.460   5.389   6.092  0.0624 -0.0528 -0.6876
 4626TIP3    H135293   6.452   5.296   6.071  0.5829 -0.0220 -1.0279
 4626TIP3    H235294   6.547   5.414   6.062 -0.8295  1.0660 -2.5909
 4627TIP3   OH235295   0.570   5.990   6.017  0.2011  0.6633 -0.9361
 4627TIP3    H135296   0.523   5.971   5.936 -1.7740  0.3772  0.1990
 4627TIP3    H235297   0.540   5.923   6.078  1.9404  0.6378 -0.0645
 4628TIP3   OH235298   6.200   2.940   1.069 -0.5335  0.3251 -0.2932
 4628TIP3    H135299   6.289   2.975   1.062 -0.6151  0.6106  0.0352
 4628TIP3    H235300   6.144   3.018   1.070 -0.8436  0.1244 -1.2442
 4629TIP3   OH235301   2.432   4.469   1.812  0.2936 -0.5634 -0.3835
 4629TIP3    H135302   2.366   4.505   1.871 -0.0480 -1.7182 -0.0253
 4629TIP3    H235303   2.383   4.419   1.747  0.7725 -0.8322 -0.5450
 4630TIP3   OH235304   0.843   6.504  14.821 -0.1181  0.1345  0.2728
 4630TIP3    H135305   0.793   6.437  14.775  0.4895  1.5859 -2.8132
 4630TIP3    H235306   0.929   6.465  14.835 -0.5015 -0.5423  0.7734
 4631TIP3   OH235307   5.056   1.885  17.147  0.5492 -0.4776  0.3178
 4631TIP3    H135308   5.100   1.855  17.227 -1.0375 -0.7607  1.1326
 4631TIP3    H235309   5.079   1.978  17.141  2.5242 -0.9520 -0.1905
 4632TIP3   OH235310   2.076   1.582  14.275 -0.0074  0.1138  0.0704
 4632TIP3    H135311   2.051   1.675  14.275 -0.3964  0.0354 -1.3006
 4632TIP3    H235312   2.156   1.579  14.222 -0.6990 -0.4819 -0.9729
 4633TIP3   OH235313   1.662   0.845   1.415  0.5483 -0.1907  0.3382
 4633TIP3    H135314   1.582   0.870   1.368 -0.1664 -0.3603  1.4436
 4633TIP3    H235315   1.683   0.758   1.381  2.0771  1.0518 -2.2569
 4634TIP3   OH235316   2.063   4.974   2.010  0.0817  0.4972 -0.0507
 4634TIP3    H135317   2.128   4.914   1.973 -1.0128 -0.0004 -1.2405
 4634TIP3    H235318   2.047   5.038   1.941 -0.5647  0.7030  0.2839
 4635TIP3   OH235319   3.069   2.118   2.173  0.3505 -0.4654 -0.0444
 4635TIP3    H135320   3.065   2.056   2.101  2.6069 -0.1227 -0.5555
 4635TIP3    H235321   2.984   2.162   2.173 -0.5892 -2.2029 -0.8691
 4636TIP3   OH235322   4.808   5.340   4.866 -0.6476  0.3689 -0.4480
 4636TIP3    H135323   4.894   5.362   4.831 -1.4048 -0.1261 -2.8395
 4636TIP3    H235324   4.769   5.424   4.889 -0.2588  0.7871 -1.2616
 4637TIP3   OH235325   4.846   5.039   1.534 -0.0844 -0.4444  0.5101
 4637TIP3    H135326   4.751   5.044   1.549 -0.0965 -0.0323  0.2919
 4637TIP3    H235327   4.884   5.078   1.613 -0.0816 -0.9596  0.7729
 4638TIP3   OH235328   5.658   1.828   5.837 -0.1235 -0.8242  0.3818
 4638TIP3    H135329   5.619   1.798   5.755  1.5736 -0.8132 -0.4816
 4638TIP3    H235330   5.717   1.757   5.863  0.3006 -0.2857  0.9289
 4639TIP3   OH235331   4.656   5.609  15.330 -0.3584 -0.0148 -0.5590
 4639TIP3    H135332   4.617   5.588  15.415 -0.7364  0.6620 -0.5585
 4639TIP3    H235333   4.716   5.536  15.313 -0.6513 -0.4112  0.0506
 4640TIP3   OH235334   1.407   2.887  15.981  0.3953 -0.5671 -0.8798
 4640TIP3    H135335   1.388   2.865  15.890 -0.7489 -2.9267 -0.1592
 4640TIP3    H235336   1.337   2.843  16.031 -0.6935  2.9609  1.0113
 4641TIP3   OH235337   2.223   5.080   2.407  0.9086 -0.2736 -0.2530
 4641TIP3    H135338   2.208   5.101   2.315  0.0802  0.1822 -0.0150
 4641TIP3    H235339   2.262   4.992   2.405 -1.0081 -1.1687 -0.9527
 4642TIP3   OH235340   5.318   3.329  11.040  0.7511  0.4484 -0.0933
 4642TIP3    H135341   5.253   3.258  11.041  0.3302  0.8250  0.0425
 4642TIP3    H235342   5.287   3.389  10.971  0.4275  1.0940  0.5871
 4643TIP3   OH235343   3.104   3.188  14.927 -0.3539 -0.1989  0.0405
 4643TIP3    H135344   3.043   3.236  14.982 -1.4834 -0.2391 -1.1302
 4643TIP3    H235345   3.144   3.254  14.870  0.1352 -0.2739  0.2941
 4644TIP3   OH235346   2.642   0.232   3.563 -0.1912  0.1509  0.2943
 4644TIP3    H135347   2.565   0.178   3.580 -0.7735  0.8889  0.0794
 4644TIP3    H235348   2.624   0.313   3.611 -1.2525  1.7869 -2.6039
 4645TIP3   OH235349   6.438   5.415   5.451  0.0501  0.3086 -0.5783
 4645TIP3    H135350   6.383   5.383   5.522 -0.5229  2.7316  0.1498
 4645TIP3    H235351   6.527   5.389   5.476 -0.4986 -2.1382 -0.9195
 4646TIP3   OH235352   0.887   2.373  15.359 -0.1997  0.2695  0.8758
 4646TIP3    H135353   0.901   2.464  15.334  0.5200 -0.0586  0.0191
 4646TIP3    H235354   0.792   2.361  15.354 -0.1425  0.3470 -1.3426
 4647TIP3   OH235355   2.944   5.861   4.417  0.0756 -0.4851 -0.2661
 4647TIP3    H135356   2.959   5.872   4.511  0.5213  0.7515 -0.4713
 4647TIP3    H235357   2.907   5.773   4.410  0.5373 -0.8136  1.0097
 4648TIP3   OH235358   6.625   4.216  12.445  0.0513 -0.2403 -0.0734
 4648TIP3    H135359   6.589   4.303  12.461 -2.1637 -1.2661  0.9091
 4648TIP3    H235360   6.720   4.229  12.447 -0.1981  1.9249  1.3289
 4649TIP3   OH235361   1.206   4.177  13.367 -0.0729  0.1094  0.0963
 4649TIP3    H135362   1.281   4.211  13.317 -0.1425  0.5852  0.3151
 4649TIP3    H235363   1.187   4.093  13.326  0.4377  0.0881 -0.1116
 4650TIP3   OH235364   0.522   1.179  15.999 -0.0764  0.2968 -0.1397
 4650TIP3    H135365   0.569   1.261  15.982 -0.2381  0.4491  0.1508
 4650TIP3    H235366   0.488   1.188  16.088 -2.0039  0.8432 -0.8924
 4651TIP3   OH235367   3.966   1.900   4.639  0.1791 -0.3224  0.9407
 4651TIP3    H135368   4.012   1.944   4.710 -0.2038 -1.5243  1.9814
 4651TIP3    H235369   3.876   1.932   4.646  0.5716  1.1894 -0.3971
 4652TIP3   OH235370   1.719   3.580   4.159  0.2871 -0.0363  0.7372
 4652TIP3    H135371   1.697   3.671   4.137 -0.8815 -0.4307  0.1755
 4652TIP3    H235372   1.736   3.582   4.253  1.8306  1.0331  0.4688
 4653TIP3   OH235373   6.137   3.968   1.875 -0.1695  0.3756 -0.1461
 4653TIP3    H135374   6.047   3.950   1.848 -1.3460 -1.1780  4.0009
 4653TIP3    H235375   6.132   4.051   1.923  0.7291  0.5270 -0.2877
 4654TIP3   OH235376   2.645   4.458   6.358 -0.0173 -0.0153  0.2445
 4654TIP3    H135377   2.578   4.525   6.344 -1.4029 -1.2268  0.8156
 4654TIP3    H235378   2.603   4.393   6.415  1.8978 -0.4632  1.2522
 4655TIP3   OH235379   6.439   4.247  12.705 -0.7180  0.8000 -0.6578
 4655TIP3    H135380   6.441   4.271  12.613  0.6206  0.5193 -0.7217
 4655TIP3    H235381   6.403   4.159  12.707 -2.1230  1.3375 -0.7535
 4656TIP3   OH235382   6.050   2.733  16.765 -0.0450  0.0845 -0.1620
 4656TIP3    H135383   6.120   2.671  16.788 -1.4814 -1.4865  0.2021
 4656TIP3    H235384   6.095   2.803  16.718  1.8003 -0.7494  0.2482
 4657TIP3   OH235385   0.745   4.728   1.519  0.3226  0.3481  0.5853
 4657TIP3    H135386   0.702   4.806   1.553  0.4262  1.1199 -0.9485
 4657TIP3    H235387   0.680   4.687   1.463  0.6262 -0.0559  0.5266
 4658TIP3   OH235388   4.406   0.884  13.456  1.0010  0.5675  0.2975
 4658TIP3    H135389   4.375   0.917  13.371  1.0781 -0.3562 -0.0960
 4658TIP3    H235390   4.341   0.818  13.481  1.1418  0.6251  0.8176
 4659TIP3   OH235391   1.929   0.579  16.433 -0.4333 -0.0479  0.3405
 4659TIP3    H135392   1.911   0.583  16.527  1.4721 -0.8911  0.8093
 4659TIP3    H235393   1.987   0.503  16.424 -1.1009 -0.3738 -1.6208
 4660TIP3   OH235394   5.700   3.479   3.135 -0.2694 -0.2713 -0.0945
 4660TIP3    H135395   5.783   3.454   3.177 -0.8210 -2.3269 -0.1257
 4660TIP3    H235396   5.666   3.549   3.190  0.5261 -0.7898  1.1071
 4661TIP3   OH235397   2.612   5.342   4.553 -0.6228  0.4005  0.4006
 4661TIP3    H135398   2.577   5.256   4.531  1.0513 -0.3970  0.6774
 4661TIP3    H235399   2.574   5.362   4.638 -1.2511  0.0647  0.2049
 4662TIP3   OH235400   0.793   5.955   3.790  0.3313  0.0921  0.4051
 4662TIP3    H135401   0.730   5.885   3.774  0.2170  0.3146 -0.1441
 4662TIP3    H235402   0.739   6.033   3.804  0.4362 -0.0450  1.6683
 4663TIP3   OH235403   1.099   1.261  16.580 -0.5567 -0.1545  0.0771
 4663TIP3    H135404   1.112   1.328  16.646 -2.1159 -1.0061  1.3279
 4663TIP3    H235405   1.005   1.266  16.559 -0.2777 -0.5337 -1.3908
 4664TIP3   OH235406   6.327   4.536   2.932  0.0107  0.1033 -0.0250
 4664TIP3    H135407   6.367   4.457   2.896 -1.1289  0.3005 -1.8816
 4664TIP3    H235408   6.241   4.507   2.963 -0.2342  0.5183 -0.3043
 4665TIP3   OH235409   6.267   0.823  16.334  0.2996  0.5783 -0.5033
 4665TIP3    H135410   6.219   0.889  16.285 -1.2163 -0.6852 -0.7781
 4665TIP3    H235411   6.259   0.851  16.426 -0.6208  0.6049 -0.5849
 4666TIP3   OH235412   2.383   3.861   1.864 -0.6549 -0.0346  0.0264
 4666TIP3    H135413   2.331   3.855   1.784 -0.3795 -1.6494 -0.0704
 4666TIP3    H235414   2.419   3.949   1.862 -2.2537  0.6434 -0.6070
 4667TIP3   OH235415   2.670   2.706   4.285 -0.1008  0.1820 -0.5424
 4667TIP3    H135416   2.616   2.785   4.278 -0.0793  0.1956 -0.5544
 4667TIP3    H235417   2.625   2.641   4.231 -0.6077 -0.0840  0.1860
 4668TIP3   OH235418   0.257   1.129  13.886 -0.2268 -0.8427  0.3131
 4668TIP3    H135419   0.248   1.199  13.822 -0.0143  0.4839  1.6623
 4668TIP3    H235420   0.333   1.078  13.857 -0.8431 -0.9940 -1.0976
 4669TIP3   OH235421   6.467   5.059  15.741  0.3656  0.4624 -0.1611
 4669TIP3    H135422   6.512   5.101  15.814  0.3363  0.2360 -0.0108
 4669TIP3    H235423   6.392   5.015  15.780  1.3757 -1.2319 -0.0282
 4670TIP3   OH235424   1.159   4.668   4.570 -0.7415 -0.2062  0.0867
 4670TIP3    H135425   1.103   4.685   4.494 -2.0021  1.1450  1.2638
 4670TIP3    H235426   1.127   4.729   4.637  2.0997  0.5714  0.8458
 4671TIP3   OH235427   4.214   2.598  16.789 -0.0801  0.1801 -0.6495
 4671TIP3    H135428   4.280   2.636  16.847 -0.1866  1.0360 -1.0698
 4671TIP3    H235429   4.163   2.540  16.846  0.7936 -0.2110 -0.2457
 4672TIP3   OH235430   3.454   1.190   4.488  0.6737  0.1682  0.6354
 4672TIP3    H135431   3.490   1.106   4.516  0.1362 -0.2459  0.0973
 4672TIP3    H235432   3.521   1.254   4.513  0.8225 -0.3442  1.5842
 4673TIP3   OH235433   1.300   0.393   2.247  0.1329 -0.0572 -0.2984
 4673TIP3    H135434   1.293   0.484   2.275  1.0308 -0.7084  2.2925
 4673TIP3    H235435   1.228   0.348   2.292  2.3378 -1.3607  2.1504
 4674TIP3   OH235436   2.590   2.640  14.292 -0.2849 -0.2415 -0.0165
 4674TIP3    H135437   2.594   2.566  14.352 -0.8329 -1.3939 -1.3668
 4674TIP3    H235438   2.681   2.665  14.278 -0.1659  0.8633  2.2154
 4675TIP3   OH235439   2.613   3.320   4.610 -0.0740  0.6619  0.6242
 4675TIP3    H135440   2.577   3.240   4.648  0.3915  0.0009 -0.3092
 4675TIP3    H235441   2.557   3.338   4.535  1.4818 -0.3746 -0.8370
 4676TIP3   OH235442   1.149   5.723   5.772 -0.4341  0.4700 -0.4552
 4676TIP3    H135443   1.097   5.802   5.761 -0.9558  0.2276  0.1741
 4676TIP3    H235444   1.085   5.652   5.763  0.4249 -0.0432 -3.6809
 4677TIP3   OH235445   1.156   2.676   4.910 -0.5242  0.0931  0.5109
 4677TIP3    H135446   1.249   2.695   4.897 -0.2702 -1.3225  0.1289
 4677TIP3    H235447   1.112   2.726   4.842  0.2504 -1.7889 -1.4825
 4678TIP3   OH235448   2.229   1.657   6.551 -0.1564 -0.2596  0.2032
 4678TIP3    H135449   2.303   1.598   6.564  1.9127  1.7756 -1.4127
 4678TIP3    H235450   2.268   1.744   6.545 -2.5413  0.8168 -1.7434
 4679TIP3   OH235451   5.881   3.665   4.563 -0.0385 -0.2651 -0.1900
 4679TIP3    H135452   5.902   3.669   4.469  1.0239 -2.6126 -0.1386
 4679TIP3    H235453   5.932   3.591   4.595 -1.2168 -0.1867  2.0399
 4680TIP3   OH235454   5.972   3.903   2.842 -0.4488 -0.2787  0.1603
 4680TIP3    H135455   5.987   3.921   2.749 -0.8535 -0.6452  0.0222
 4680TIP3    H235456   5.927   3.982   2.874  1.3769  0.6897  0.5072
 4681TIP3   OH235457   4.209   3.169  17.125  0.7028  0.0377  0.3799
 4681TIP3    H135458   4.216   3.115  17.204 -0.0553  0.8121  1.0071
 4681TIP3    H235459   4.174   3.110  17.058  2.5348 -0.9553  0.2491
 4682TIP3   OH235460   2.904   2.059   4.976 -0.1762 -0.2275  0.3420
 4682TIP3    H135461   2.967   1.994   4.944  0.9487  1.3777 -0.8135
 4682TIP3    H235462   2.840   2.066   4.905  0.5629  1.0204 -0.2244
 4683TIP3   OH235463   1.155   4.483   3.903 -0.4471 -0.5866  0.0930
 4683TIP3    H135464   1.066   4.449   3.890 -0.1520 -1.3205 -0.0631
 4683TIP3    H235465   1.205   4.445   3.831  0.1372 -0.6925  0.5543
 4684TIP3   OH235466   4.115   2.218   5.785  0.6457  0.8515 -0.6358
 4684TIP3    H135467   4.070   2.138   5.812 -0.4027  2.0428  1.3917
 4684TIP3    H235468   4.208   2.195   5.789  0.3775 -0.1673  0.3302
 4685TIP3   OH235469   0.183   2.742   3.163  0.2783  0.5057 -0.1338
 4685TIP3    H135470   0.122   2.811   3.136 -0.8213 -0.2435  0.3820
 4685TIP3    H235471   0.203   2.696   3.081 -1.2616 -0.3393 -0.0758
 4686TIP3   OH235472   1.783   3.439  17.087 -0.4427  0.2855  0.1012
 4686TIP3    H135473   1.691   3.430  17.061 -0.5604 -0.7189  0.8262
 4686TIP3    H235474   1.808   3.353  17.120  1.0794  0.2282 -1.0482
 4687TIP3   OH235475   5.325   1.780   5.801  0.1716  0.1735 -0.6428
 4687TIP3    H135476   5.313   1.752   5.892  0.4845 -0.0756 -0.6745
 4687TIP3    H235477   5.393   1.847   5.807 -2.1402  2.6378 -0.2786
 4688TIP3   OH235478   4.225   0.989  15.808  0.1448  0.1112  0.0989
 4688TIP3    H135479   4.177   0.922  15.760  1.0080 -0.3138 -0.2066
 4688TIP3    H235480   4.316   0.959  15.805  0.6687  1.6760 -0.7129
 4689TIP3   OH235481   1.388   1.653  12.273 -0.2111 -0.4769  0.4384
 4689TIP3    H135482   1.435   1.653  12.356 -1.0682 -0.5136  0.9369
 4689TIP3    H235483   1.420   1.731  12.227  1.3528 -1.2531  0.1570
 4690TIP3   OH235484   6.312   4.605   1.752  0.5551  0.2498 -0.2525
 4690TIP3    H135485   6.296   4.613   1.846 -1.1658  2.0010 -0.6170
 4690TIP3    H235486   6.357   4.521   1.742  0.0278 -0.3752  2.0306
 4691TIP3   OH235487   6.617   1.460   2.715 -0.0872  0.3109  0.1251
 4691TIP3    H135488   6.551   1.474   2.783  0.2557  0.1891  0.4850
 4691TIP3    H235489   6.575   1.492   2.635  0.1867  2.2503  0.6937
 4692TIP3   OH235490   2.785   3.543   0.757 -0.3370 -0.0340  0.0862
 4692TIP3    H135491   2.692   3.539   0.780 -0.9251 -0.5044 -2.1266
 4692TIP3    H235492   2.821   3.459   0.786 -0.1064  0.8265  2.5807
 4693TIP3   OH235493   2.748   5.269  11.719 -0.0215 -0.0709 -0.0449
 4693TIP3    H135494   2.705   5.208  11.659 -0.1010 -1.6180  1.4914
 4693TIP3    H235495   2.688   5.342  11.727 -0.7738 -0.6194 -0.5653
 4694TIP3   OH235496   3.754   3.452  13.828  0.2822 -0.5426  0.0056
 4694TIP3    H135497   3.820   3.386  13.848  0.2767 -0.6052 -0.1785
 4694TIP3    H235498   3.677   3.425  13.879  1.0458  0.7328  1.9629
 4695TIP3   OH235499   6.458   3.822  17.064  0.0258 -0.6040  0.0190
 4695TIP3    H135500   6.510   3.842  17.142  0.0363  1.0614 -0.3831
 4695TIP3    H235501   6.494   3.878  16.996 -1.5578 -0.2143 -0.5526
 4696TIP3   OH235502   0.461   3.450  12.648 -0.4784 -0.3062 -0.5132
 4696TIP3    H135503   0.374   3.421  12.620  0.3052 -1.6481 -1.7084
 4696TIP3    H235504   0.467   3.540  12.616 -1.3066 -0.3046 -0.7007
 4697TIP3   OH235505   4.563   4.747  13.201 -0.0292  0.3859  0.4921
 4697TIP3    H135506   4.616   4.734  13.279  1.6658  1.2346 -0.4625
 4697TIP3    H235507   4.582   4.672  13.145 -0.9815 -0.0490  0.7236
 4698TIP3   OH235508   3.504   1.464   3.590 -0.3150  0.1478 -0.0122
 4698TIP3    H135509   3.507   1.530   3.660 -1.4018  1.6144 -1.2761
 4698TIP3    H235510   3.590   1.468   3.549 -0.8320  1.9201 -1.0230
 4699TIP3   OH235511   0.458   3.153   3.762 -0.2594  0.1059  0.5559
 4699TIP3    H135512   0.493   3.203   3.689 -1.0530 -0.0832  0.0326
 4699TIP3    H235513   0.503   3.069   3.758  0.0511  0.2717  0.5793
 4700TIP3   OH235514   2.221   4.896  13.256  0.4228  0.5481  0.0622
 4700TIP3    H135515   2.302   4.846  13.250  1.9066  2.8159  0.0460
 4700TIP3    H235516   2.240   4.978  13.211 -2.0423  0.9956 -0.3219
 4701TIP3   OH235517   5.157   2.058   6.254 -0.8775  0.0676 -0.7527
 4701TIP3    H135518   5.190   1.968   6.253 -0.5355  0.1628  0.1058
 4701TIP3    H235519   5.066   2.052   6.228 -0.7846 -0.5026 -0.9388
 4702TIP3   OH235520   5.381   3.542  15.540 -0.1764  0.2435 -0.1961
 4702TIP3    H135521   5.329   3.597  15.481  0.3277  0.7034 -0.2181
 4702TIP3    H235522   5.468   3.542  15.503 -0.0135 -0.0225  0.1778
 4703TIP3   OH235523   0.339   6.486  12.439 -0.0843 -0.4440 -0.1033
 4703TIP3    H135524   0.367   6.420  12.503  0.1999  0.3132  0.5770
 4703TIP3    H235525   0.414   6.544  12.430 -0.3897 -0.1140 -0.5544
 4704TIP3   OH235526   3.216   2.249   3.500 -0.0946 -0.3876 -0.3298
 4704TIP3    H135527   3.228   2.335   3.542 -0.7055  0.4526 -1.8207
 4704TIP3    H235528   3.136   2.214   3.540  1.3119 -1.3008  1.8873
 4705TIP3   OH235529   6.440   5.237   1.233 -0.0481 -0.3009  0.4521
 4705TIP3    H135530   6.392   5.191   1.165  2.6359  1.2483 -2.7561
 4705TIP3    H235531   6.529   5.202   1.228 -0.0125 -1.2974  4.4550
 4706TIP3   OH235532   4.129   2.200  14.537 -0.2552  0.1651 -0.0655
 4706TIP3    H135533   4.162   2.116  14.569  0.5079  0.9946  1.4676
 4706TIP3    H235534   4.119   2.189  14.443  0.2040 -1.5089  0.0600
 4707TIP3   OH235535   1.713   4.503   4.725 -0.4139  0.4128  0.1129
 4707TIP3    H135536   1.727   4.595   4.702 -0.7157  0.4536  0.0852
 4707TIP3    H235537   1.751   4.454   4.652  0.2004  0.5018  0.3679
 4708TIP3   OH235538   1.584   1.618   2.887 -0.0339  0.0734  0.3655
 4708TIP3    H135539   1.630   1.610   2.803 -0.0040  1.0935  0.2680
 4708TIP3    H235540   1.639   1.678   2.938  0.2079 -0.9118  1.3098
 4709TIP3   OH235541   2.789   3.110  16.062 -0.2444 -0.2789 -0.1248
 4709TIP3    H135542   2.728   3.038  16.047 -0.7291 -0.3042  1.7195
 4709TIP3    H235543   2.793   3.157  15.978 -0.4191 -2.0473 -1.1559
 4710TIP3   OH235544   1.870   1.026   0.931  0.0815 -0.3243  0.4948
 4710TIP3    H135545   1.952   0.976   0.937  1.6407  1.5909 -2.3374
 4710TIP3    H235546   1.893   1.113   0.962 -0.9302  0.1908 -0.1640
 4711TIP3   OH235547   2.333   5.606   4.348  0.1001 -0.1817  0.4580
 4711TIP3    H135548   2.349   5.512   4.350  0.9232 -0.0540  0.1468
 4711TIP3    H235549   2.271   5.618   4.276  0.8083 -0.3795 -0.1986
 4712TIP3   OH235550   5.174   5.408   1.759 -0.1646 -0.4990  0.1055
 4712TIP3    H135551   5.188   5.348   1.685 -1.7083 -1.5057  0.5804
 4712TIP3    H235552   5.263   5.434   1.785  0.4482 -0.8790 -1.4759
 4713TIP3   OH235553   0.943   1.038   2.221 -0.1787 -0.4670  0.2230
 4713TIP3    H135554   0.891   1.063   2.296  0.9926  0.1725  0.8413
 4713TIP3    H235555   0.977   1.120   2.186  2.3029 -0.9754  1.2484
 4714TIP3   OH235556   6.108   6.048   3.876  0.0467 -0.3094  0.0262
 4714TIP3    H135557   6.013   6.059   3.886  0.1581  2.0022 -0.7809
 4714TIP3    H235558   6.134   5.998   3.953 -1.6691  0.1125  0.9507
 4715TIP3   OH235559   2.734   2.212   1.757  0.1332  0.3913 -0.1559
 4715TIP3    H135560   2.752   2.286   1.816  0.6025 -1.7021  2.5393
 4715TIP3    H235561   2.816   2.161   1.758 -0.8445 -1.2399 -0.2480
 4716TIP3   OH235562   2.791   0.252   3.304 -0.4022  0.6139  0.3473
 4716TIP3    H135563   2.730   0.244   3.377  1.2165 -4.1476  1.5216
 4716TIP3    H235564   2.786   0.169   3.258  2.7727  1.2604 -1.5364
 4717TIP3   OH235565   3.856   1.634  15.629 -0.6727  0.7404 -0.2946
 4717TIP3    H135566   3.823   1.722  15.611 -1.1234  0.7833  0.6490
 4717TIP3    H235567   3.936   1.649  15.679 -0.5559  0.6204 -0.4469
 4718TIP3   OH235568   0.201   3.117   3.733 -0.1423 -0.6697  0.3516
 4718TIP3    H135569   0.288   3.101   3.771 -0.3179 -1.4398  0.4477
 4718TIP3    H235570   0.219   3.166   3.653  0.3762 -0.6998  0.4427
 4719TIP3   OH235571   0.429   0.865  12.785  0.5769  0.2576  0.0647
 4719TIP3    H135572   0.407   0.919  12.861 -1.5127 -0.8416  0.2989
 4719TIP3    H235573   0.510   0.820  12.810  0.3412  0.4918  1.3240
 4720TIP3   OH235574   3.366   2.707   4.388 -0.6606 -0.6328  0.0593
 4720TIP3    H135575   3.355   2.742   4.477 -0.0088 -1.1435  0.3547
 4720TIP3    H235576   3.412   2.776   4.340 -2.3653  0.2748 -0.3328
 4721TIP3   OH235577   1.426   0.369   3.082  0.2880 -0.4298 -0.0392
 4721TIP3    H135578   1.455   0.454   3.049 -0.5114  0.6832  1.9247
 4721TIP3    H235579   1.333   0.366   3.062  0.3840 -1.0310 -0.4235
 4722TIP3   OH235580   0.106   2.632   1.783 -0.2046 -0.1852 -0.1965
 4722TIP3    H135581   0.167   2.619   1.856  0.0360 -0.8944 -0.5107
 4722TIP3    H235582   0.130   2.718   1.748  2.0592 -1.2936 -1.6028
 4723TIP3   OH235583   4.312   2.562  13.271 -0.7869  0.0597  0.0525
 4723TIP3    H135584   4.260   2.640  13.249 -0.0581  1.2144  2.1431
 4723TIP3    H235585   4.316   2.562  13.366  0.0682 -2.0243  0.0691
 4724TIP3   OH235586   2.141   3.474  17.062 -0.1574 -0.1675 -0.4538
 4724TIP3    H135587   2.118   3.447  17.151 -1.3108 -0.0389 -0.6897
 4724TIP3    H235588   2.109   3.564  17.056  0.6500  0.1104 -0.7480
 4725TIP3   OH235589   3.193   1.866  13.276 -0.2587 -0.1502  0.4391
 4725TIP3    H135590   3.114   1.813  13.293  0.5976 -2.1423 -1.2792
 4725TIP3    H235591   3.159   1.948  13.241 -1.7125 -1.8502 -2.6492
 4726TIP3   OH235592   0.518   1.476  13.945  0.2021 -0.0604  0.3785
 4726TIP3    H135593   0.503   1.511  14.033 -0.8319 -1.3528  0.7428
 4726TIP3    H235594   0.484   1.387  13.948  2.1908 -0.9345 -0.6972
 4727TIP3   OH235595   0.852   2.807  17.027  0.4781 -0.0805  0.2450
 4727TIP3    H135596   0.843   2.715  17.054 -0.5091 -0.9592 -2.7574
 4727TIP3    H235597   0.942   2.814  16.997  0.2986 -0.3198 -0.3550
 4728TIP3   OH235598   0.552   3.976  15.124  0.0037 -0.1451  0.1955
 4728TIP3    H135599   0.479   3.946  15.179  0.9547 -1.7791  0.6625
 4728TIP3    H235600   0.535   3.937  15.038 -0.1127  0.1939  0.0633
 4729TIP3   OH235601   3.231   2.035   4.167 -1.2098 -0.1300 -0.5950
 4729TIP3    H135602   3.250   2.037   4.261 -0.8294 -1.6032 -0.6133
 4729TIP3    H235603   3.317   2.022   4.126 -1.4375 -0.0122 -1.1083
 4730TIP3   OH235604   1.303   1.460   0.869  0.2894  0.3742  0.3762
 4730TIP3    H135605   1.288   1.539   0.818  1.5729  0.1443 -0.4091
 4730TIP3    H235606   1.334   1.396   0.805 -0.7936 -0.8072  0.9774
 4731TIP3   OH235607   3.606   4.852   0.475 -0.1426  0.3229 -0.0878
 4731TIP3    H135608   3.585   4.898   0.394  0.5262  0.9397  0.0771
 4731TIP3    H235609   3.529   4.798   0.493 -1.2964  1.9705  0.1365
 4732TIP3   OH235610   5.048   5.094  14.694 -0.0643 -0.3783  0.7948
 4732TIP3    H135611   5.129   5.138  14.719 -0.5674  0.3630  1.1733
 4732TIP3    H235612   5.075   5.007  14.665  0.7170 -0.6645  2.2827
 4733TIP3   OH235613   4.378   2.031  15.092 -0.0446  0.0960  0.4036
 4733TIP3    H135614   4.381   2.123  15.115  4.0132 -0.2172  1.7749
 4733TIP3    H235615   4.414   2.027  15.003 -0.7784 -0.1555  0.1062
 4734TIP3   OH235616   0.531   3.671   1.722 -0.0658  0.3553  0.1794
 4734TIP3    H135617   0.567   3.585   1.742 -0.5426  0.1036 -0.0459
 4734TIP3    H235618   0.567   3.692   1.636  1.2023  1.0171  0.8283
 4735TIP3   OH235619   4.022   5.799   1.756 -0.0605 -0.1715  0.1752
 4735TIP3    H135620   3.994   5.745   1.682  1.0339 -0.6040  0.0553
 4735TIP3    H235621   4.095   5.851   1.721  1.0277 -0.9957  1.1654
 4736TIP3   OH235622   1.634   0.724   4.102 -0.1379  0.2784 -0.1961
 4736TIP3    H135623   1.647   0.721   4.008 -1.9600 -0.2308 -0.4831
 4736TIP3    H235624   1.702   0.782   4.135 -0.0110  1.1548 -1.9325
 4737TIP3   OH235625   1.276   0.100  14.227 -0.4246  0.2677  0.7446
 4737TIP3    H135626   1.220   0.103  14.150 -0.7880  2.1591  1.0327
 4737TIP3    H235627   1.251   0.019  14.272 -1.2650 -0.0925 -0.3429
 4738TIP3   OH235628   6.291   6.317   1.675  0.1565  0.5360 -0.3118
 4738TIP3    H135629   6.323   6.359   1.755 -0.7988  0.1773  0.2770
 4738TIP3    H235630   6.219   6.374   1.646 -0.4850 -0.1354 -0.0692
 4739TIP3   OH235631   1.097   0.915  16.570 -0.3540 -1.0148  0.7550
 4739TIP3    H135632   1.050   0.968  16.633 -0.3956  1.4092 -1.1581
 4739TIP3    H235633   1.160   0.975  16.530 -0.9064 -2.1576 -2.0639
 4740TIP3   OH235634   6.065   4.433   0.139 -0.1139 -0.3225 -0.0608
 4740TIP3    H135635   6.093   4.426   0.230  0.1451  2.2741  0.1563
 4740TIP3    H235636   6.142   4.409   0.087 -0.0107 -1.0194  0.4144
 4741TIP3   OH235637   1.452   6.626   2.460 -0.0573 -0.4501 -0.2211
 4741TIP3    H135638   1.471   6.532   2.454 -1.4933 -0.7230 -0.9149
 4741TIP3    H235639   1.363   6.635   2.425  0.9688  1.5199 -2.6726
 4742TIP3   OH235640   3.640   0.827   3.332  0.3552  0.0297  0.5493
 4742TIP3    H135641   3.599   0.835   3.418 -0.7983 -0.3495  0.0656
 4742TIP3    H235642   3.609   0.905   3.284 -1.9160 -1.4884 -0.6286
 4743TIP3   OH235643   6.061   2.986   4.364 -0.2637  0.4643 -0.0275
 4743TIP3    H135644   6.101   3.053   4.309 -0.5980  0.8656  0.2094
 4743TIP3    H235645   5.970   3.014   4.374  0.2101  1.4733  2.2999
 4744TIP3   OH235646   2.713   1.993  17.278  0.1486  0.8355  0.0124
 4744TIP3    H135647   2.640   1.960  17.226  2.0957 -1.7491 -1.3135
 4744TIP3    H235648   2.694   2.086  17.291 -2.6119  0.5695 -1.4938
 4745TIP3   OH235649   4.431   5.824  17.299  0.0876  0.0521  0.2080
 4745TIP3    H135650   4.444   5.735  17.268 -0.0096 -0.1774  0.7960
 4745TIP3    H235651   4.353   5.855  17.252  1.1350  0.4677 -1.3066
 4746TIP3   OH235652   5.508   3.684  12.761 -0.4641 -0.0327  0.5690
 4746TIP3    H135653   5.576   3.617  12.753 -0.0882  0.4982 -0.9425
 4746TIP3    H235654   5.516   3.716  12.851 -0.9730 -2.3126  1.4867
 4747TIP3   OH235655   3.093   6.419   3.727  1.3236 -0.5503  0.5465
 4747TIP3    H135656   3.131   6.377   3.804  1.4440 -0.5050  0.5109
 4747TIP3    H235657   3.168   6.445   3.674  1.2392 -0.6357  0.3842
 4748TIP3   OH235658   0.471   2.898  13.199  0.0461  0.3711 -0.0282
 4748TIP3    H135659   0.478   2.838  13.124  1.9753 -0.3455  0.6708
 4748TIP3    H235660   0.558   2.935  13.209 -0.2079  0.5801  1.7490
 4749TIP3   OH235661   1.719   5.952   2.071  0.1853  0.0831 -0.0190
 4749TIP3    H135662   1.771   6.029   2.050  2.0969 -0.9102  0.7991
 4749TIP3    H235663   1.781   5.892   2.112 -1.2122 -1.9609 -0.7605
 4750TIP3   OH235664   2.504   3.821  13.676 -0.0909  0.1684 -0.2662
 4750TIP3    H135665   2.427   3.771  13.703 -0.6194  0.7288 -0.7220
 4750TIP3    H235666   2.553   3.759  13.621 -0.3855 -0.0841 -0.2520
 4751TIP3   OH235667   1.288   3.526  11.968  0.2561  0.3369  0.1484
 4751TIP3    H135668   1.315   3.541  11.877 -0.2654  0.1778 -0.0343
 4751TIP3    H235669   1.348   3.459  12.000 -1.1801 -1.5318 -0.8910
 4752TIP3   OH235670   1.595   6.433   4.951  0.9979  0.6559  0.7095
 4752TIP3    H135671   1.679   6.421   4.994  0.5561 -1.8710  1.0460
 4752TIP3    H235672   1.590   6.361   4.888 -0.8846  0.7512  0.6881
 4753TIP3   OH235673   3.895   3.737   1.631 -0.5335  0.3451  0.0320
 4753TIP3    H135674   3.949   3.663   1.604 -1.7090 -0.2489 -0.7901
 4753TIP3    H235675   3.861   3.712   1.717 -0.0174  0.4463  0.2694
 4754TIP3   OH235676   3.634   5.162  13.768 -0.1689 -0.0778 -0.5109
 4754TIP3    H135677   3.675   5.083  13.802  2.8199  1.8665  0.8765
 4754TIP3    H235678   3.654   5.161  13.674  0.1371 -0.8203 -0.4385
 4755TIP3   OH235679   5.468   4.031   2.633  0.2178  0.3358  0.0400
 4755TIP3    H135680   5.533   4.021   2.702  0.5372  0.8004 -0.1930
 4755TIP3    H235681   5.519   4.042   2.553 -0.1410 -1.1851 -0.4301
 4756TIP3   OH235682   0.792   2.210   4.653  0.2567 -0.0525  0.0558
 4756TIP3    H135683   0.784   2.216   4.557  1.6144  0.1332 -0.0580
 4756TIP3    H235684   0.782   2.301   4.683  1.3696  0.1086 -0.0444
 4757TIP3   OH235685   6.112   5.547   2.948  0.4455 -0.1998  0.0503
 4757TIP3    H135686   6.126   5.559   2.854  2.2488 -0.9649  0.1753
 4757TIP3    H235687   6.194   5.575   2.988 -0.2891  0.0959  1.4156
 4758TIP3   OH235688   5.933   6.598   2.070  0.3564  0.4925  0.1611
 4758TIP3    H135689   5.935   6.638   2.157  0.5047 -0.4036  0.5875
 4758TIP3    H235690   5.969   6.665   2.012 -1.6028  1.8681  0.4509
 4759TIP3   OH235691   2.297   2.244   5.361 -0.5080  0.0117  0.2316
 4759TIP3    H135692   2.301   2.332   5.397  1.8414  0.0660  0.0329
 4759TIP3    H235693   2.220   2.244   5.305 -2.1777  1.0179  2.3909
 4760TIP3   OH235694   6.346   4.490  15.372 -0.1772  0.5421 -0.0041
 4760TIP3    H135695   6.345   4.573  15.325  2.7967 -0.6669 -2.5112
 4760TIP3    H235696   6.432   4.486  15.412 -0.3649 -1.2381  0.2883
 4761TIP3   OH235697   4.533   0.013  17.283 -0.1790 -0.2157 -0.2827
 4761TIP3    H135698   4.557   0.098  17.246 -0.9729  0.3983  0.5704
 4761TIP3    H235699   4.585   0.007  17.364 -0.0769 -0.5700 -0.3741
 4762TIP3   OH235700   1.746   5.760   1.517 -0.0448 -0.1101 -0.0256
 4762TIP3    H135701   1.795   5.822   1.571  1.0799 -1.4826  0.5965
 4762TIP3    H235702   1.790   5.761   1.432  0.7636 -0.9395  0.3664
 4763TIP3   OH235703   4.249   0.582  10.656  0.3981  0.5385 -0.2401
 4763TIP3    H135704   4.223   0.621  10.572 -2.2325 -1.0512 -0.2834
 4763TIP3    H235705   4.188   0.620  10.719 -0.5352 -1.4380  0.1335
 4764TIP3   OH235706   1.681   2.786  14.547  0.0091 -0.0390 -0.3309
 4764TIP3    H135707   1.690   2.691  14.559  0.5466  0.1948  1.2709
 4764TIP3    H235708   1.617   2.795  14.477 -0.7698 -1.5833  0.1470
 4765TIP3   OH235709   0.868   2.775   5.451  0.0424  0.0451 -0.0120
 4765TIP3    H135710   0.796   2.726   5.492 -1.1235  1.4579 -0.2578
 4765TIP3    H235711   0.871   2.742   5.361  0.2973 -0.6465  0.2478
 4766TIP3   OH235712   3.149   2.388  14.340 -0.6671 -0.1028  0.0868
 4766TIP3    H135713   3.091   2.329  14.389 -0.7514  0.4106  0.6087
 4766TIP3    H235714   3.212   2.330  14.298 -1.9134 -0.7375 -0.9924
 4767TIP3   OH235715   0.308   6.300  13.734 -0.1208  0.3764  0.0933
 4767TIP3    H135716   0.225   6.314  13.688  0.3069  2.9315 -0.0306
 4767TIP3    H235717   0.294   6.337  13.821  0.7992  0.5936  0.1609
 4768TIP3   OH235718   2.208   4.495  13.755 -0.0503 -0.3479  0.2244
 4768TIP3    H135719   2.224   4.588  13.741 -0.3313 -0.5464 -1.6718
 4768TIP3    H235720   2.294   4.454  13.749  0.2577 -0.1167  2.3405
 4769TIP3   OH235721   2.401   5.722  11.901  0.5872  0.2137  0.2794
 4769TIP3    H135722   2.365   5.681  11.979 -1.4573 -0.4081 -0.9180
 4769TIP3    H235723   2.399   5.815  11.919 -2.9658  0.3536 -0.1264
 4770TIP3   OH235724   2.796   4.293   1.519 -0.3569  0.0385 -0.3547
 4770TIP3    H135725   2.704   4.268   1.520 -0.7506  1.2880 -1.3554
 4770TIP3    H235726   2.842   4.217   1.553 -1.8421 -0.1686  1.3568
 4771TIP3   OH235727   1.686   0.820  13.749 -0.0360 -0.7541 -0.2103
 4771TIP3    H135728   1.749   0.777  13.807  0.6294  0.3602 -0.0830
 4771TIP3    H235729   1.740   0.861  13.681 -0.4533  1.5880  0.7911
 4772TIP3   OH235730   2.761   4.581  13.350  0.2954  0.6865  1.0438
 4772TIP3    H135731   2.741   4.660  13.400  0.1982  1.3756 -0.0660
 4772TIP3    H235732   2.763   4.609  13.259  2.0798 -0.2348  0.7602
 4773TIP3   OH235733   4.629   1.583   5.635  0.3316  0.3555 -0.0544
 4773TIP3    H135734   4.600   1.511   5.691  0.1181  0.8546  0.4851
 4773TIP3    H235735   4.559   1.648   5.641  0.9906  1.0524  0.3106
 4774TIP3   OH235736   3.470   6.523  16.107  0.1957  0.4142 -0.5679
 4774TIP3    H135737   3.384   6.564  16.097  0.6625  1.7869  0.6876
 4774TIP3    H235738   3.475   6.459  16.036 -1.4846  0.9685 -1.2201
 4775TIP3   OH235739   3.348   5.752  17.272  0.2365  0.0936 -0.0542
 4775TIP3    H135740   3.299   5.757  17.354 -0.4195 -1.1651 -0.3461
 4775TIP3    H235741   3.399   5.671  17.279  3.3090  1.9429  0.7651
 4776TIP3   OH235742   4.183   2.253  14.855  0.3860  0.3847 -0.2064
 4776TIP3    H135743   4.239   2.300  14.794 -0.2070 -0.2503 -1.2865
 4776TIP3    H235744   4.175   2.165  14.817 -1.8660  0.6497 -0.4615
 4777TIP3   OH235745   4.214   1.601   1.589  0.2089 -0.4168 -0.3390
 4777TIP3    H135746   4.213   1.569   1.499  1.3513 -1.3706 -0.0460
 4777TIP3    H235747   4.263   1.535   1.637  1.3945  1.0753  0.5960
 4778TIP3   OH235748   2.956   5.876   2.278  0.4296  0.3578 -0.0575
 4778TIP3    H135749   3.002   5.953   2.245  2.3596 -1.2946 -1.5123
 4778TIP3    H235750   2.972   5.877   2.372  1.5072  1.0735 -0.2345
 4779TIP3   OH235751   6.587   2.976  16.683  0.1671 -0.2140  0.3886
 4779TIP3    H135752   6.499   2.944  16.706  0.0584 -0.2754 -0.0981
 4779TIP3    H235753   6.572   3.037  16.611  0.6010 -0.9299 -0.3301
 4780TIP3   OH235754   6.069   3.187  16.106 -0.1878  0.1343 -0.2260
 4780TIP3    H135755   5.977   3.190  16.078  0.0804 -0.4164 -1.2015
 4780TIP3    H235756   6.082   3.269  16.154 -1.1266  0.3147 -0.2500
 4781TIP3   OH235757   5.956   3.489  13.691  0.0121  0.4880 -0.2064
 4781TIP3    H135758   5.880   3.471  13.636 -0.5057 -0.1737  0.7007
 4781TIP3    H235759   5.988   3.402  13.717  1.5390  0.7221 -1.1633
 4782TIP3   OH235760   6.185   0.459  10.599 -0.0572  0.3007  0.3846
 4782TIP3    H135761   6.255   0.397  10.623 -0.7588 -0.2457  1.0878
 4782TIP3    H235762   6.231   0.538  10.571  0.8756 -0.6202 -0.7790
 4783TIP3   OH235763   0.557   5.283  17.248  0.2166 -0.4106  0.3780
 4783TIP3    H135764   0.579   5.359  17.303  0.1328 -1.2190  1.5486
 4783TIP3    H235765   0.587   5.309  17.160 -0.8798  1.4521  0.4901
 4784TIP3   OH235766   1.939   5.372  11.469  0.2575  0.0246 -0.4849
 4784TIP3    H135767   1.953   5.435  11.539 -1.1340 -0.4665  0.2723
 4784TIP3    H235768   1.844   5.361  11.465  0.1373  1.1099 -3.4188
 4785TIP3   OH235769   4.346   3.911  16.728  0.1768  0.4283  0.2829
 4785TIP3    H135770   4.404   3.932  16.802  3.6320 -1.7784 -1.5406
 4785TIP3    H235771   4.362   3.981  16.665  2.7834 -1.2753 -1.1106
 4786TIP3   OH235772   6.659   6.626  17.049 -0.1615  0.3847 -0.2218
 4786TIP3    H135773   6.732   6.636  17.110 -0.4603  0.7352  0.0875
 4786TIP3    H235774   6.665   6.703  16.992 -0.5195  0.6324  0.0634
 4787TIP3   OH235775   4.544   3.095  16.438 -0.0371 -0.1130  0.0848
 4787TIP3    H135776   4.597   3.173  16.422 -1.9831  1.4185  0.7145
 4787TIP3    H235777   4.573   3.064  16.524 -0.6135  1.1449  0.7588
 4788TIP3   OH235778   1.457   2.351   2.553  0.3447  1.0358  0.1555
 4788TIP3    H135779   1.548   2.342   2.528  0.0313 -2.3827 -0.3026
 4788TIP3    H235780   1.414   2.390   2.477  0.9567 -0.3524 -0.9480
 4789TIP3   OH235781   3.912   4.173  17.336 -0.1698 -0.1432 -0.2324
 4789TIP3    H135782   3.857   4.162  17.258 -1.1538 -2.1121  0.6489
 4789TIP3    H235783   3.876   4.249  17.380 -0.3944  0.2526 -1.0783
 4790TIP3   OH235784   3.258   4.668   4.413 -0.0866 -0.2588  0.1345
 4790TIP3    H135785   3.185   4.719   4.448 -0.4216 -1.0211  0.5603
 4790TIP3    H235786   3.296   4.624   4.489  1.1628  0.5380  0.0033
 4791TIP3   OH235787   4.713   3.518   4.196  0.0114 -0.3275  0.0127
 4791TIP3    H135788   4.639   3.460   4.210 -0.2195 -0.0976 -0.2536
 4791TIP3    H235789   4.744   3.496   4.108  0.3931 -0.5719  0.2038
 4792TIP3   OH235790   4.298   5.491  14.629 -0.5011 -0.4081  0.4988
 4792TIP3    H135791   4.353   5.421  14.595  0.1000 -1.1785  2.8593
 4792TIP3    H235792   4.312   5.564  14.569 -1.4754 -2.3543 -2.2964
 4793TIP3   OH235793   4.106   5.512   4.852  0.1156 -0.7739  0.7351
 4793TIP3    H135794   4.035   5.515   4.788  1.1041  1.2840 -0.3664
 4793TIP3    H235795   4.175   5.461   4.810  0.3895 -0.2672  0.5624
 4794TIP3   OH235796   0.218   2.699   2.898  0.2426  0.4338  0.5885
 4794TIP3    H135797   0.243   2.751   2.822 -0.7267 -0.4893 -0.4061
 4794TIP3    H235798   0.166   2.628   2.861  0.3323 -0.4218  2.0581
 4795TIP3   OH235799   1.693   0.364  12.661 -0.6594  0.0283 -0.1725
 4795TIP3    H135800   1.672   0.457  12.671 -2.9905 -0.5335  0.8228
 4795TIP3    H235801   1.784   0.363  12.632 -1.1169  2.6884 -2.1088
 4796TIP3   OH235802   2.177   2.958   0.487  0.4472  0.1121 -0.1615
 4796TIP3    H135803   2.222   3.020   0.544 -0.1565  1.3818 -1.0154
 4796TIP3    H235804   2.173   2.877   0.538  0.0168  1.1590  1.5750
 4797TIP3   OH235805   5.877   2.037  17.281 -0.0166  0.2028  0.2422
 4797TIP3    H135806   5.884   2.052  17.187  0.0122 -0.6874  0.0944
 4797TIP3    H235807   5.784   2.020  17.296  0.4755 -3.8509 -0.3300
 4798TIP3   OH235808   0.081   0.904  12.397  0.3306  0.1112 -0.3072
 4798TIP3    H135809   0.154   0.847  12.375 -0.5377 -1.2488  0.1746
 4798TIP3    H235810   0.003   0.852  12.374 -0.5417  0.1320  2.3254
 4799TIP3   OH235811   2.561   0.473   0.770 -0.4462 -0.0417 -0.2563
 4799TIP3    H135812   2.618   0.536   0.726  1.0917 -1.0920  0.1417
 4799TIP3    H235813   2.535   0.412   0.702 -1.4867  0.6746 -0.5267
 4800TIP3   OH235814   0.092   3.500   2.495  0.0686 -0.5661 -0.4543
 4800TIP3    H135815   0.039   3.526   2.570  1.8864 -1.3570  1.1639
 4800TIP3    H235816   0.028   3.474   2.428 -1.6108  1.1400  0.3971
 4801TIP3   OH235817   3.510   3.460  17.355 -0.4605  0.7792 -0.2958
 4801TIP3    H135818   3.547   3.372  17.357 -0.5730  0.7372  0.4678
 4801TIP3    H235819   3.561   3.509  17.419 -1.4180  0.8335  0.4558
 4802TIP3   OH235820   5.125   1.079   4.381  0.1041 -0.2822 -0.1697
 4802TIP3    H135821   5.103   1.106   4.470 -0.5294 -0.3562 -0.2986
 4802TIP3    H235822   5.077   1.140   4.325 -2.3381 -2.3419 -0.4877
 4803TIP3   OH235823   5.950   5.918  15.005 -0.2463  0.4517  0.8202
 4803TIP3    H135824   5.900   5.999  15.000  1.3179  1.3739 -1.5119
 4803TIP3    H235825   5.887   5.849  14.983 -0.9976  1.3230  0.1851
 4804TIP3   OH235826   2.460   5.765  13.174 -0.4050  0.4237  0.3156
 4804TIP3    H135827   2.518   5.720  13.235 -0.2708 -0.3317 -0.3512
 4804TIP3    H235828   2.414   5.695  13.128 -1.2200  0.9984  0.2325
 4805TIP3   OH235829   2.240   0.034  14.015  0.3274  0.3554  0.1401
 4805TIP3    H135830   2.182   0.019  14.089  0.3195  0.5363  0.1712
 4805TIP3    H235831   2.317   0.076  14.053  1.0028 -0.9702  0.2828
 4806TIP3   OH235832   3.508   5.310  14.654  0.0767  0.1054 -0.2935
 4806TIP3    H135833   3.536   5.320  14.563 -0.6455  0.3462 -0.4894
 4806TIP3    H235834   3.509   5.399  14.689  1.2372 -0.0810  0.2081
 4807TIP3   OH235835   2.905   6.180  16.378 -0.4310  0.2340 -0.1306
 4807TIP3    H135836   2.932   6.164  16.469  1.7101 -0.7005 -0.8624
 4807TIP3    H235837   2.964   6.249  16.347 -1.0375  0.4359 -0.8566
 4808TIP3   OH235838   6.670   3.380  17.360 -0.4069 -0.4916 -0.5384
 4808TIP3    H135839   6.597   3.389  17.422 -1.5619 -1.0077 -1.7851
 4808TIP3    H235840   6.693   3.287  17.363  0.2293 -0.3321 -0.1522
 4809TIP3   OH235841   1.126   1.956   6.521  0.3572  0.4038  0.2184
 4809TIP3    H135842   1.163   1.896   6.584  0.8854  2.1990  1.7097
 4809TIP3    H235843   1.174   1.939   6.440  1.2044 -0.4452  0.8778
 4810TIP3   OH235844   1.289   6.655  16.359 -0.9025  0.1732  0.0947
 4810TIP3    H135845   1.376   6.659  16.398  0.0472  3.5064 -1.9488
 4810TIP3    H235846   1.231   6.696  16.424 -0.3479  0.7834  0.2110
 4811TIP3   OH235847   4.876   2.153  13.326  1.1423  0.4130 -0.5480
 4811TIP3    H135848   4.880   2.154  13.230  0.9204 -0.3345 -0.5690
 4811TIP3    H235849   4.911   2.068  13.351  1.0071  0.5225  0.0289
 4812TIP3   OH235850   0.661   1.568   5.711  0.1790  0.0152 -0.0247
 4812TIP3    H135851   0.656   1.662   5.730 -0.3654  0.3133 -1.5257
 4812TIP3    H235852   0.754   1.548   5.712  0.2775  0.4462  0.7980
 4813TIP3   OH235853   5.415   5.836   0.247  0.1463 -0.2128 -0.2348
 4813TIP3    H135854   5.351   5.765   0.254 -0.5647  0.4862  0.8290
 4813TIP3    H235855   5.443   5.851   0.338  1.0034  0.2269 -0.5612
 4814TIP3   OH235856   3.390   0.866   3.641 -0.2527 -0.0112  0.3308
 4814TIP3    H135857   3.390   0.784   3.592 -2.0483  0.9514 -1.3891
 4814TIP3    H235858   3.457   0.920   3.599  2.0553 -1.0362  2.4371
 4815TIP3   OH235859   0.733   3.260  10.672  0.1334  0.3662  0.5050
 4815TIP3    H135860   0.708   3.353  10.668 -0.0168  0.2756 -1.9465
 4815TIP3    H235861   0.829   3.262  10.675  0.1612  0.6014 -0.3560
 4816TIP3   OH235862   2.547   1.888  11.869 -0.1735  0.0727 -0.3631
 4816TIP3    H135863   2.566   1.961  11.810 -0.4079 -1.1167 -1.9965
 4816TIP3    H235864   2.633   1.859  11.900 -0.0633  0.8537  0.0814
 4817TIP3   OH235865   0.889   3.983  12.652  0.0166  0.3898  0.1314
 4817TIP3    H135866   0.842   3.997  12.734  3.0954  1.1346  1.9460
 4817TIP3    H235867   0.874   3.890  12.632 -0.7015  0.1470  1.6151
 4818TIP3   OH235868   5.953   3.457   3.285 -0.0888  0.3312 -0.1624
 4818TIP3    H135869   6.002   3.419   3.357 -0.2952 -0.6162 -0.5133
 4818TIP3    H235870   5.984   3.548   3.281  1.5242 -0.1872 -0.2661
 4819TIP3   OH235871   2.749   6.219  12.167  0.4036 -0.3185  0.2892
 4819TIP3    H135872   2.788   6.155  12.108  0.5778  0.9673 -1.0502
 4819TIP3    H235873   2.692   6.167  12.224 -0.2567 -1.5762 -1.4119
 4820TIP3   OH235874   3.024   3.921  15.947 -0.0398  0.2710  0.4519
 4820TIP3    H135875   3.037   3.826  15.949 -0.3207  0.2302  2.2054
 4820TIP3    H235876   3.086   3.952  15.882 -1.8710 -1.3527 -2.2616
 4821TIP3   OH235877   5.030   4.627  16.509 -0.2285 -0.0413 -0.3447
 4821TIP3    H135878   5.050   4.633  16.416  1.6098 -0.4890 -0.0247
 4821TIP3    H235879   5.038   4.717  16.541  3.4247 -0.3608  0.0868
 4822TIP3   OH235880   5.535   4.602   4.060 -0.0810 -0.3757  0.2770
 4822TIP3    H135881   5.516   4.581   4.151  0.2974  0.4978  0.5644
 4822TIP3    H235882   5.500   4.690   4.047  2.3616  0.7102  0.4176
 4823TIP3   OH235883   3.831   0.025  15.816  0.6541  0.2039 -0.4125
 4823TIP3    H135884   3.777  -0.053  15.824  2.0047 -0.5391  3.2046
 4823TIP3    H235885   3.782   0.093  15.862  0.4352  1.0048 -1.7635
 4824TIP3   OH235886   0.356   2.687   5.825  0.2464 -0.0272 -0.4235
 4824TIP3    H135887   0.349   2.648   5.738 -0.1292  1.3857 -1.0510
 4824TIP3    H235888   0.333   2.779   5.813 -0.7704  0.0117  1.3378
 4825TIP3   OH235889   1.199   2.705  14.970  0.2762 -0.8141 -0.1520
 4825TIP3    H135890   1.281   2.681  15.013  0.2656  0.5149  0.6591
 4825TIP3    H235891   1.200   2.801  14.968 -2.4576 -0.6167  2.3256
 4826TIP3   OH235892   1.091   5.303   4.396 -0.1149 -0.1430 -0.5754
 4826TIP3    H135893   1.095   5.223   4.343 -0.7731 -0.9290  0.5366
 4826TIP3    H235894   1.153   5.288   4.468  1.3933  1.2538 -1.4979
 4827TIP3   OH235895   2.353   4.310  15.577  0.1080  0.0398 -0.2310
 4827TIP3    H135896   2.434   4.285  15.620  1.3747 -1.6837 -3.2554
 4827TIP3    H235897   2.321   4.228  15.538 -2.2840  0.9602 -0.3787
 4828TIP3   OH235898   3.776   4.150  16.498  0.7583 -0.4466  0.2200
 4828TIP3    H135899   3.854   4.102  16.470  1.8467 -0.2904  2.7251
 4828TIP3    H235900   3.725   4.086  16.548  1.0759  0.3510  1.6134
 4829TIP3   OH235901   2.568   5.732  13.825 -0.4216 -0.3875  0.1282
 4829TIP3    H135902   2.553   5.824  13.844 -1.0775 -0.8391  2.1116
 4829TIP3    H235903   2.608   5.731  13.739 -0.0981  1.7621  0.1996
 4830TIP3   OH235904   2.289   5.614   3.473 -0.3138 -0.4237 -1.0713
 4830TIP3    H135905   2.379   5.640   3.494 -0.2368 -1.4415 -0.0362
 4830TIP3    H235906   2.255   5.686   3.420  0.7332  0.5236 -0.5042
 4831TIP3   OH235907   6.453   6.113   5.765  0.0559  0.1415  0.3226
 4831TIP3    H135908   6.439   6.195   5.812  1.7701 -0.2466  1.6086
 4831TIP3    H235909   6.369   6.068   5.769 -0.7816  1.6105 -0.0176
 4832TIP3   OH235910   2.720   6.431   0.060  0.0114  0.1631  0.5864
 4832TIP3    H135911   2.799   6.402   0.107 -0.1507 -2.0041 -0.3652
 4832TIP3    H235912   2.746   6.513   0.018  1.3312  0.1963  1.4099
 4833TIP3   OH235913   3.616   2.316   4.167  0.0571  0.1415  0.2743
 4833TIP3    H135914   3.572   2.371   4.232  0.3179  0.7092 -0.0203
 4833TIP3    H235915   3.693   2.367   4.141  0.1614 -0.2513 -0.1980
 4834TIP3   OH235916   4.168   0.072  11.303 -0.1269  0.0596  0.6836
 4834TIP3    H135917   4.220   0.146  11.333 -0.7704  0.1479  1.6026
 4834TIP3    H235918   4.229  -0.002  11.307  0.8894  0.6978 -1.4017
 4835TIP3   OH235919   5.980   3.550   1.043 -0.3518  0.3636  0.0134
 4835TIP3    H135920   6.065   3.590   1.062  0.3767 -1.2802  0.3955
 4835TIP3    H235921   6.000   3.479   0.982 -1.0868 -1.4227  1.7473
 4836TIP3   OH235922   1.500   4.763  15.432  0.7146  0.1830 -0.0569
 4836TIP3    H135923   1.458   4.845  15.407  0.7750  0.7863  1.6928
 4836TIP3    H235924   1.568   4.749  15.365  1.0163  1.8046 -0.1187
 4837TIP3   OH235925   6.216   2.937  11.737  0.0199  0.8029  0.0528
 4837TIP3    H135926   6.304   2.969  11.716  0.4540 -0.0514  0.5410
 4837TIP3    H235927   6.219   2.916  11.830 -0.2815 -0.5435 -0.2248
 4838TIP3   OH235928   2.961   1.241   1.429 -0.0812  0.0883 -0.2301
 4838TIP3    H135929   2.911   1.179   1.481  0.5358 -0.4588 -0.2711
 4838TIP3    H235930   2.945   1.326   1.469 -1.4502  0.0093 -0.5565
 4839TIP3   OH235931   1.747   0.920  14.385 -0.1575 -0.4752  0.1880
 4839TIP3    H135932   1.713   0.983  14.321  3.4163  0.2925 -1.1605
 4839TIP3    H235933   1.705   0.837  14.361 -2.8191  0.7633  0.2447
 4840TIP3   OH235934   2.443   1.004  16.894  0.0140 -0.1127 -0.0107
 4840TIP3    H135935   2.452   0.912  16.920 -0.4546  1.2191  6.8382
 4840TIP3    H235936   2.350   1.022  16.902  0.0709  0.9826 -1.4721
 4841TIP3   OH235937   0.465   2.563   3.016 -0.2740 -0.3077 -0.2709
 4841TIP3    H135938   0.474   2.657   3.029  1.9145 -0.4354 -0.5443
 4841TIP3    H235939   0.475   2.550   2.922  0.1118 -0.8594 -0.1617
 4842TIP3   OH235940   1.962   0.583  12.283 -0.3295 -0.0115  0.0095
 4842TIP3    H135941   1.994   0.583  12.373  0.0677 -1.8626 -0.0883
 4842TIP3    H235942   1.914   0.665  12.274 -2.0575 -0.6383  2.5229
 4843TIP3   OH235943   4.416   3.363   5.636 -0.2349  0.2833  0.3253
 4843TIP3    H135944   4.428   3.457   5.652 -1.7092  0.0477  3.7380
 4843TIP3    H235945   4.324   3.354   5.613 -0.1506 -0.3515  0.2200
 4844TIP3   OH235946   0.709   6.052  15.749 -0.6457 -0.5371  0.2011
 4844TIP3    H135947   0.726   5.979  15.809 -1.0519 -0.4945  0.3746
 4844TIP3    H235948   0.772   6.041  15.679  0.0935 -0.3842  0.8252
 4845TIP3   OH235949   5.472   0.078  13.402  0.0926 -0.5050  0.8597
 4845TIP3    H135950   5.388   0.125  13.408  0.1951 -0.4271  1.8542
 4845TIP3    H235951   5.536   0.147  13.384 -0.2176 -0.7389 -1.4646
 4846TIP3   OH235952   1.935   5.824   0.327 -0.4102 -0.4804  0.0490
 4846TIP3    H135953   1.905   5.884   0.259 -0.9148  0.9402  1.4747
 4846TIP3    H235954   1.997   5.875   0.379  0.6411 -1.8133  0.1598
 4847TIP3   OH235955   2.271   3.514  13.860  0.6929 -0.3475 -0.0142
 4847TIP3    H135956   2.204   3.445  13.857  0.8294 -0.4771 -0.0825
 4847TIP3    H235957   2.354   3.467  13.855  0.7763 -0.1123 -1.0870
 4848TIP3   OH235958   1.309   2.727  16.554 -0.7277  0.0703 -0.4659
 4848TIP3    H135959   1.343   2.649  16.597  1.7513  1.0001 -0.6189
 4848TIP3    H235960   1.254   2.769  16.621  0.6747 -0.0606  0.8243
 4849TIP3   OH235961   0.600   2.206  13.988 -0.5032 -0.9485 -0.1499
 4849TIP3    H135962   0.574   2.237  14.075  1.6615 -1.4984  0.7725
 4849TIP3    H235963   0.672   2.145  14.005  0.3138 -0.7047 -2.3775
 4850TIP3   OH235964   5.004   2.222   1.320 -0.2747  0.6659 -0.2051
 4850TIP3    H135965   4.911   2.240   1.332  0.1820  2.1557  1.5292
 4850TIP3    H235966   5.048   2.301   1.351  1.5646  0.4672 -2.0771
 4851TIP3   OH235967   2.885   2.270  16.099  0.1326  0.1740  0.0006
 4851TIP3    H135968   2.888   2.344  16.161 -2.2893  0.0464  0.3418
 4851TIP3    H235969   2.834   2.303  16.025 -2.5366 -1.6378  0.9292
 4852TIP3   OH235970   2.304   2.057  14.590  0.0816 -0.6516  0.1464
 4852TIP3    H135971   2.209   2.048  14.580  0.2449 -1.1350 -1.2958
 4852TIP3    H235972   2.334   1.968  14.609  0.2347 -0.4784  0.7136
 4853TIP3   OH235973   3.947   1.709  15.043  0.1959 -0.5001  0.0738
 4853TIP3    H135974   3.956   1.758  15.125  0.1152 -0.8450  0.2884
 4853TIP3    H235975   3.874   1.649  15.058 -3.0510  2.5826 -1.8225
 4854TIP3   OH235976   2.000   5.107  17.351 -0.0368  0.4738  0.5738
 4854TIP3    H135977   1.975   5.076  17.439 -2.0919 -0.9150 -0.4273
 4854TIP3    H235978   1.935   5.174  17.330  0.4830  0.8427  0.1148
 4855TIP3   OH235979   1.501   4.265  17.188 -0.1239  0.0966  0.4988
 4855TIP3    H135980   1.493   4.221  17.104 -2.6079 -0.7701  1.1312
 4855TIP3    H235981   1.451   4.211  17.249  1.5471  0.7357  2.5598
 4856TIP3   OH235982   4.268   0.076   4.692 -0.3438  0.1043 -0.4380
 4856TIP3    H135983   4.175   0.095   4.696 -0.3300  0.0778  0.0782
 4856TIP3    H235984   4.305   0.117   4.771 -0.2615 -1.6997  0.5275
 4857TIP3   OH235985   3.813   0.491   1.164  0.2858 -0.3582  0.7623
 4857TIP3    H135986   3.773   0.435   1.231 -1.6047 -0.3047 -0.2561
 4857TIP3    H235987   3.819   0.435   1.087  2.4500 -0.4220  0.8976
 4858TIP3   OH235988   2.019   3.720  17.044 -0.4013 -0.5042  0.3047
 4858TIP3    H135989   1.974   3.736  17.127 -0.9701  0.5042 -0.1814
 4858TIP3    H235990   1.959   3.752  16.977  0.6852  0.1336 -0.4115
 4859TIP3   OH235991   2.280   0.828   5.504 -0.4624 -0.1474  0.2961
 4859TIP3    H135992   2.320   0.797   5.422 -0.5102 -2.7247  1.1699
 4859TIP3    H235993   2.211   0.764   5.523  0.2717 -0.2608  2.9031
 4860TIP3   OH235994   5.565   6.587   4.616 -0.6247  0.0259 -0.1829
 4860TIP3    H135995   5.610   6.549   4.541  0.9742 -0.7182  1.0876
 4860TIP3    H235996   5.592   6.679   4.616  0.7816 -0.3542  0.4155
 4861TIP3   OH235997   4.177   6.215   3.995  0.3882 -0.3319 -0.0541
 4861TIP3    H135998   4.214   6.289   4.043  0.7476 -0.3013 -0.3739
 4861TIP3    H235999   4.096   6.194   4.042 -0.3749  1.0556 -0.6890
 4862TIP3   OH236000   1.531   0.601   2.129 -0.0346 -0.1199 -0.1409
 4862TIP3    H136001   1.545   0.513   2.165  1.3000 -0.1777 -0.7384
 4862TIP3    H236002   1.586   0.658   2.182  0.5830  0.0569 -0.9536
 4863TIP3   OH236003   2.214   3.580   5.958 -0.4316  0.2436 -0.3248
 4863TIP3    H136004   2.297   3.538   5.941 -0.9546 -0.8001 -0.3716
 4863TIP3    H236005   2.164   3.516   6.009 -1.1075  0.9491 -0.0686
 4864TIP3   OH236006   5.628   1.868   5.516  0.1513 -0.1592 -0.7033
 4864TIP3    H136007   5.627   1.962   5.502  0.5458  0.0230  0.3852
 4864TIP3    H236008   5.549   1.836   5.471 -1.8585  1.1245  1.6473
 4865TIP3   OH236009   3.769   6.230   3.041 -0.1551 -0.4383 -0.1881
 4865TIP3    H136010   3.772   6.168   2.968  0.2836 -0.5553 -0.0730
 4865TIP3    H236011   3.830   6.193   3.105 -0.7281 -0.4776  0.3444
 4866TIP3   OH236012   1.027   4.979  13.135  0.3856  0.2261  0.1062
 4866TIP3    H136013   0.993   4.901  13.178 -1.8532  1.5930  0.9662
 4866TIP3    H236014   1.096   4.947  13.078  0.8956 -2.1218  1.9061
 4867TIP3   OH236015   0.545   6.062  14.583 -0.2020  0.0722  0.0631
 4867TIP3    H136016   0.457   6.098  14.570  0.2270  1.1055 -0.0709
 4867TIP3    H236017   0.578   6.048  14.494 -0.9428 -2.1923  0.0804
 4868TIP3   OH236018   3.051   6.184   1.209 -0.2895 -0.4299 -0.6443
 4868TIP3    H136019   3.074   6.273   1.236 -0.6870 -0.1459 -1.2064
 4868TIP3    H236020   3.118   6.129   1.247  1.0304  0.3067 -1.8183
 4869TIP3   OH236021   1.125   4.987  15.688 -0.2591 -0.1769  0.1610
 4869TIP3    H136022   1.057   5.035  15.736 -0.3575 -1.4895  1.4173
 4869TIP3    H236023   1.098   4.896  15.694  0.9834 -0.5987 -0.3750
 4870TIP3   OH236024   6.574   2.486   4.870  0.3180  0.2904 -0.0296
 4870TIP3    H136025   6.552   2.517   4.782  1.4111  0.9672 -0.0754
 4870TIP3    H236026   6.625   2.406   4.855 -1.4228 -0.9010  0.0645
 4871TIP3   OH236027   2.970   3.054   2.894  0.4754  0.1446  0.2722
 4871TIP3    H136028   3.056   3.084   2.921 -0.2748  1.3634  1.4583
 4871TIP3    H236029   2.961   3.083   2.803  0.8133  1.2104  0.5602
 4872TIP3   OH236030   0.303   1.865   3.897 -0.3138 -0.3519  0.5866
 4872TIP3    H136031   0.291   1.772   3.916  1.1348 -0.4950  0.8912
 4872TIP3    H236032   0.354   1.898   3.971  0.8023  0.2611 -0.4325
 4873TIP3   OH236033   6.133   4.336  15.568 -0.0447  0.2145  0.1317
 4873TIP3    H136034   6.197   4.402  15.541 -0.7706 -0.0855 -2.6242
 4873TIP3    H236035   6.168   4.253  15.535 -0.6797 -0.3268  0.7752
 4874TIP3   OH236036   1.171   3.613  14.390  0.1615 -0.5349 -0.8054
 4874TIP3    H136037   1.241   3.601  14.453  0.1670  1.2042 -0.4287
 4874TIP3    H236038   1.145   3.704  14.400 -1.1475 -0.7399 -1.9811
 4875TIP3   OH236039   4.289   5.057  13.472 -0.0602 -0.2290  0.2644
 4875TIP3    H136040   4.240   5.131  13.508 -1.4509 -1.0261  0.0933
 4875TIP3    H236041   4.235   4.980  13.492  1.3753 -1.2291  0.4988
 4876TIP3   OH236042   4.965   4.880  11.688 -0.0864  0.2078  0.1495
 4876TIP3    H136043   4.932   4.961  11.650 -0.2889  0.0535 -0.0061
 4876TIP3    H236044   5.001   4.832  11.613 -0.0770  0.1010  0.2231
 4877TIP3   OH236045   6.166   5.017  15.847  0.3001 -0.3974 -0.1217
 4877TIP3    H136046   6.199   5.078  15.914 -0.1436  0.8119 -0.9691
 4877TIP3    H236047   6.147   5.073  15.772 -3.4001 -1.0001  0.1938
 4878TIP3   OH236048   1.168   1.983   4.368  0.4965  0.7096 -0.0113
 4878TIP3    H136049   1.086   1.935   4.354  0.5112  0.1498  1.6271
 4878TIP3    H236050   1.155   2.028   4.451  1.0874  2.3069 -0.7530
 4879TIP3   OH236051   5.970   0.600   4.709 -0.0031 -0.0266 -0.4712
 4879TIP3    H136052   6.041   0.662   4.695  0.1197 -0.1950 -0.6067
 4879TIP3    H236053   6.003   0.540   4.776 -0.5433  0.7037  0.4739
 4880TIP3   OH236054   3.953   3.430   1.022 -0.2089  0.0077 -0.5993
 4880TIP3    H136055   3.872   3.412   0.972 -0.3769  0.5885 -0.5450
 4880TIP3    H236056   3.976   3.519   0.997  0.4039 -0.1446 -0.5830
 4881TIP3   OH236057   2.591   4.890  11.375 -0.0464 -0.3219  0.4408
 4881TIP3    H136058   2.500   4.902  11.403  0.5178  2.1901  1.4468
 4881TIP3    H236059   2.598   4.796  11.358 -3.3619 -0.3733 -1.6971
 4882TIP3   OH236060   0.400   2.797  16.041 -0.4884  0.0806 -0.6855
 4882TIP3    H136061   0.419   2.776  15.950  1.6622 -0.0253 -0.2671
 4882TIP3    H236062   0.445   2.730  16.092 -1.7829  0.0399  0.4716
 4883TIP3   OH236063   0.928   1.429   4.821  0.3724  0.2186 -0.7034
 4883TIP3    H136064   0.895   1.359   4.765  2.1458 -1.4087  0.1918
 4883TIP3    H236065   0.889   1.509   4.785 -3.2884 -1.3124 -0.6328
 4884TIP3   OH236066   5.157   0.114   0.241 -0.4220  0.2373  0.3474
 4884TIP3    H136067   5.236   0.070   0.211 -1.8904 -1.1574 -1.7004
 4884TIP3    H236068   5.155   0.196   0.191 -0.0208  0.5538  0.8307
 4885TIP3   OH236069   4.310   2.568  16.270 -0.0941 -0.0394 -0.3795
 4885TIP3    H136070   4.216   2.560  16.287 -0.0428  0.2821  0.0549
 4885TIP3    H236071   4.319   2.651  16.223  0.2372  1.1636  1.6948
 4886TIP3   OH236072   3.719   6.404   0.912  0.2827 -0.0019  0.1969
 4886TIP3    H136073   3.754   6.342   0.849  2.1860  2.0221 -0.8884
 4886TIP3    H236074   3.779   6.399   0.987  2.2762  2.3966 -1.0578
 4887TIP3   OH236075   1.309   0.752  16.790 -0.4537  0.3295  0.4011
 4887TIP3    H136076   1.310   0.698  16.711 -0.5665 -0.7182  1.0990
 4887TIP3    H236077   1.307   0.842  16.757 -2.3205 -0.0994 -0.7870
 4888TIP3   OH236078   1.816   0.666  14.857  0.2558  0.0248 -0.1944
 4888TIP3    H136079   1.738   0.613  14.843  1.0154 -0.7352 -1.9234
 4888TIP3    H236080   1.882   0.603  14.888  0.5204  0.4152  0.0443
 4889TIP3   OH236081   4.833   6.522   1.543  0.7009 -0.6622  0.2485
 4889TIP3    H136082   4.857   6.541   1.634 -1.4893 -2.8289  1.3942
 4889TIP3    H236083   4.907   6.471   1.509  1.8261  0.7030  0.5517
 4890TIP3   OH236084   1.434   0.162  15.135 -0.9373 -0.4154 -0.2312
 4890TIP3    H136085   1.405   0.089  15.080 -1.1486  0.0930 -0.8047
 4890TIP3    H236086   1.412   0.135  15.224  1.0523 -2.0497 -0.1559
 4891TIP3   OH236087   2.444   4.489   3.201  0.2598  0.2003 -0.0758
 4891TIP3    H136088   2.507   4.417   3.197  1.6949  1.1789  2.3833
 4891TIP3    H236089   2.358   4.448   3.194  1.0774 -1.6285  0.2407
 4892TIP3   OH236090   4.340   3.455  13.386  0.0665 -0.3261 -0.2376
 4892TIP3    H136091   4.404   3.459  13.314  1.9191 -2.0214  1.2087
 4892TIP3    H236092   4.391   3.475  13.464 -1.6292  0.1731  0.7902
 4893TIP3   OH236093   1.252   0.978   5.438 -0.7640 -0.0121 -0.7078
 4893TIP3    H136094   1.157   0.987   5.446 -1.1083 -1.8056 -2.0469
 4893TIP3    H236095   1.275   1.032   5.363 -0.4390  1.7054  0.5792
 4894TIP3   OH236096   4.449   5.186  10.647  0.7562  0.8326  0.5145
 4894TIP3    H136097   4.398   5.127  10.592  0.3908  0.7738  0.9043
 4894TIP3    H236098   4.417   5.273  10.625 -0.0266  0.7465  1.2633
 4895TIP3   OH236099   3.326   6.434   4.197 -0.5167 -0.5484  0.0676
 4895TIP3    H136100   3.421   6.432   4.184 -0.6022 -1.3048 -0.5694
 4895TIP3    H236101   3.309   6.366   4.262 -0.5432  0.1904  0.8462
 4896TIP3   OH236102   6.458   1.601  14.118  0.6261 -0.9786  0.0732
 4896TIP3    H136103   6.442   1.681  14.168  0.6116 -0.8217 -0.1828
 4896TIP3    H236104   6.396   1.537  14.154 -2.1179  0.1479 -2.2422
 4897TIP3   OH236105   5.331   3.262   5.817 -0.3580  0.0102  0.2166
 4897TIP3    H136106   5.256   3.254   5.875 -0.8162  0.9137 -0.2369
 4897TIP3    H236107   5.402   3.217   5.863 -1.3777 -1.6683  0.2390
 4898TIP3   OH236108   0.036   3.845   3.135  0.1761 -0.3470 -0.2730
 4898TIP3    H136109   0.126   3.856   3.165  0.5202 -0.2480 -1.3149
 4898TIP3    H236110   0.014   3.928   3.093 -0.8606  0.1041  1.0765
 4899TIP3   OH236111   0.072   1.786   4.706 -0.2738 -0.2269  0.0586
 4899TIP3    H136112   0.001   1.727   4.732 -1.1293  1.2466  1.1852
 4899TIP3    H236113   0.033   1.846   4.643 -0.1196  0.7224  0.8396
 4900TIP3   OH236114   3.264   1.174   4.294  0.1004  0.5109  0.0502
 4900TIP3    H136115   3.259   1.263   4.260  1.3291  0.6622  0.1871
 4900TIP3    H236116   3.336   1.177   4.358 -0.3980 -0.3822  0.6731
 4901TIP3   OH236117   1.447   4.396   0.969  0.2084  0.4045 -0.0335
 4901TIP3    H136118   1.352   4.389   0.971  0.2237 -0.8260 -1.5890
 4901TIP3    H236119   1.465   4.485   0.999 -1.3315  0.2486  1.4955
 4902TIP3   OH236120   5.699   1.914  14.680  0.2280  0.0534 -0.8051
 4902TIP3    H136121   5.739   1.850  14.622  2.4840  0.8641 -0.2708
 4902TIP3    H236122   5.640   1.965  14.624  0.7847 -0.5025 -1.9240
 4903TIP3   OH236123   4.460   5.053  11.747 -0.1736  0.5008 -0.2011
 4903TIP3    H136124   4.523   4.983  11.726 -0.1002  0.9040 -1.4068
 4903TIP3    H236125   4.374   5.012  11.733 -0.1784  0.1877  0.6686
 4904TIP3   OH236126   4.678   1.558  12.423 -0.1534 -0.1597  0.2441
 4904TIP3    H136127   4.604   1.518  12.469  0.7102 -0.6732  1.2348
 4904TIP3    H236128   4.703   1.493  12.358 -0.7930  0.1698 -0.3396
 4905TIP3   OH236129   1.044   1.630  17.110  0.4671  0.0280  0.3621
 4905TIP3    H136130   0.968   1.623  17.167  0.1969 -0.5414 -0.0608
 4905TIP3    H236131   1.008   1.641  17.022  0.8684 -0.1389  0.1698
 4906TIP3   OH236132   3.186   1.875   3.361 -0.2800 -0.0643  0.1004
 4906TIP3    H136133   3.281   1.864   3.366 -0.1813  0.6134 -0.1389
 4906TIP3    H236134   3.165   1.870   3.268 -0.3820  0.5171  0.0895
 4907TIP3   OH236135   1.563   1.166  12.209  0.4363  0.2757 -0.1303
 4907TIP3    H136136   1.536   1.076  12.192  1.5264  0.1134 -1.1540
 4907TIP3    H236137   1.483   1.210  12.237 -1.6378  0.4128 -5.2513
 4908TIP3   OH236138   2.577   2.211  14.929 -0.8608 -0.4595  0.0798
 4908TIP3    H136139   2.500   2.267  14.927 -1.2805 -1.0446 -0.4347
 4908TIP3    H236140   2.626   2.241  15.005 -0.8909  0.8453 -0.3850
 4909TIP3   OH236141   5.154   4.950   5.231 -0.0240  0.3619 -0.3900
 4909TIP3    H136142   5.085   4.885   5.243  0.6932 -0.5962 -1.2303
 4909TIP3    H236143   5.134   5.019   5.294 -0.6797 -0.7780  0.6900
 4910TIP3   OH236144   4.330   5.618  15.085  0.3684 -1.0053  0.1427
 4910TIP3    H136145   4.414   5.572  15.082  1.2394  0.5198  0.2723
 4910TIP3    H236146   4.350   5.705  15.121 -0.8696  0.1877 -1.8310
 4911TIP3   OH236147   2.256   6.270  12.271  0.3925  0.7480  0.3299
 4911TIP3    H136148   2.206   6.344  12.306  0.2834  0.3401  1.0639
 4911TIP3    H236149   2.271   6.292  12.180 -2.8308 -0.0016 -0.5031
 4912TIP3   OH236150   5.913   0.100  14.779  0.0829  0.0196 -0.3917
 4912TIP3    H136151   5.986   0.048  14.812  0.4116  0.6453 -0.1098
 4912TIP3    H236152   5.950   0.149  14.705  0.3317  1.3409  0.5596
 4913TIP3   OH236153   1.561   1.770  10.938  0.0749 -0.1571  0.2788
 4913TIP3    H136154   1.599   1.750  10.853  1.2064  2.2328  0.1531
 4913TIP3    H236155   1.467   1.760  10.926  0.0832  1.6131 -1.7218
 4914TIP3   OH236156   2.029   4.075   3.776 -0.1864  0.5295 -0.1082
 4914TIP3    H136157   2.115   4.083   3.734 -0.2757  1.7548 -0.1000
 4914TIP3    H236158   2.042   4.014   3.847 -0.0575 -1.7759 -1.9850
 4915TIP3   OH236159   6.567   1.154  17.047  0.5328 -0.0984  0.4067
 4915TIP3    H136160   6.646   1.101  17.062  1.1036  0.8699  0.9680
 4915TIP3    H236161   6.501   1.092  17.018  1.4886 -0.9469  0.0022
 4916TIP3   OH236162   0.380   3.476   3.257  0.4386  0.5983 -0.4155
 4916TIP3    H136163   0.405   3.488   3.348  0.8644 -1.0683 -0.2784
 4916TIP3    H236164   0.343   3.560   3.230  0.2752  1.0972  1.2975
 4917TIP3   OH236165   0.612   5.601  14.460  0.0294 -0.3472  0.2089
 4917TIP3    H136166   0.554   5.575  14.531 -0.1974 -0.1411  0.0991
 4917TIP3    H236167   0.553   5.628  14.389  0.2097  2.4366  1.0051
 4918TIP3   OH236168   2.531   6.396   4.164  0.5096 -0.4930 -0.0963
 4918TIP3    H136169   2.604   6.361   4.215 -0.4178 -0.1761  1.5214
 4918TIP3    H236170   2.456   6.343   4.189 -0.4652  1.2133  0.7416
 4919TIP3   OH236171   5.922   6.095   2.457 -1.1966 -0.6227  0.7010
 4919TIP3    H136172   5.863   6.166   2.484  0.0599  0.5736  0.4379
 4919TIP3    H236173   5.865   6.019   2.448 -2.4193  0.0495  2.1488
 4920TIP3   OH236174   3.119   1.874   2.724  0.1230 -0.5011  0.2838
 4920TIP3    H136175   3.143   1.966   2.730  0.7651 -0.5493 -1.1706
 4920TIP3    H236176   3.077   1.866   2.638 -1.8149 -1.1653  1.2250
 4921TIP3   OH236177   3.108   0.061   1.179  0.3052 -0.6749  0.8908
 4921TIP3    H136178   3.163   0.047   1.256  0.8767 -2.5716  0.2079
 4921TIP3    H236179   3.171   0.082   1.109 -0.1582  0.4454  0.7856
 4922TIP3   OH236180   0.111   3.542  15.404 -0.8179 -0.3218  0.3158
 4922TIP3    H136181   0.048   3.535  15.475  1.1202  1.5824  2.3937
 4922TIP3    H236182   0.153   3.627  15.417 -0.9784  0.6001 -3.7294
 4923TIP3   OH236183   0.749   6.571   0.948 -0.2184  0.0436  0.0208
 4923TIP3    H136184   0.809   6.545   1.018  1.1565  1.1905 -0.6934
 4923TIP3    H236185   0.760   6.665   0.940 -1.1900  0.0960 -0.9907
 4924TIP3   OH236186   2.952   0.370   0.495 -0.2681  0.1377  0.1031
 4924TIP3    H136187   2.957   0.363   0.400  1.5438 -1.6782  0.2651
 4924TIP3    H236188   2.942   0.464   0.512  1.1055  0.6829 -1.8299
 4925TIP3   OH236189   5.301   0.990   1.512  0.0021  0.6093  0.1359
 4925TIP3    H136190   5.268   0.946   1.434  0.5869  0.3411  0.0302
 4925TIP3    H236191   5.229   1.046   1.541  0.1601  1.5816 -1.2606
 4926TIP3   OH236192   4.527   2.813   2.410  0.3847 -0.1630  0.1659
 4926TIP3    H136193   4.534   2.906   2.433  2.6118  0.0435 -1.0014
 4926TIP3    H236194   4.571   2.807   2.325  1.3783 -2.4638  0.7750
 4927TIP3   OH236195   3.044   6.232  15.148  0.9410 -0.2120 -0.1208
 4927TIP3    H136196   3.091   6.149  15.139 -0.9645 -1.6647  2.1072
 4927TIP3    H236197   3.057   6.257  15.239  1.5322  2.0293 -0.7761
 4928TIP3   OH236198   4.495   5.254   3.237 -0.6564 -0.1836 -0.4219
 4928TIP3    H136199   4.405   5.269   3.265 -0.7076  1.1250 -1.2249
 4928TIP3    H236200   4.502   5.158   3.230 -1.5661 -0.3742  0.9355
 4929TIP3   OH236201   4.789   5.129  14.578 -0.1750  0.4985  0.2084
 4929TIP3    H136202   4.745   5.044  14.574  0.0572  0.4223 -1.4791
 4929TIP3    H236203   4.878   5.108  14.607  0.6504 -0.2357 -2.5406
 4930TIP3   OH236204   6.695   5.133  15.885  0.4510 -0.4750 -0.2339
 4930TIP3    H136205   6.755   5.058  15.881  0.4541 -0.4512 -0.5877
 4930TIP3    H236206   6.734   5.191  15.951 -0.2176 -1.3688  0.9848
 4931TIP3   OH236207   2.669   6.724   2.007 -0.0561 -0.4662 -0.0874
 4931TIP3    H136208   2.616   6.659   2.053 -1.7156  1.3538  0.7367
 4931TIP3    H236209   2.642   6.718   1.916 -0.7283 -0.4488  0.1105
 4932TIP3   OH236210   3.817   0.897   6.296  0.4606 -0.6027 -1.2372
 4932TIP3    H136211   3.853   0.974   6.339  1.5596 -0.8318 -1.7079
 4932TIP3    H236212   3.722   0.904   6.309  0.7521 -1.1658  2.0186
 4933TIP3   OH236213   6.390   1.978  12.730 -0.4379  0.5194 -0.1981
 4933TIP3    H136214   6.474   2.022  12.712  0.1493  0.1400  1.3931
 4933TIP3    H236215   6.325   2.032  12.687  0.6529  0.6256 -1.7916
 4934TIP3   OH236216   1.947   2.370   4.204  0.3437  0.1400  0.2001
 4934TIP3    H136217   1.990   2.455   4.199  0.5439  0.0241 -0.1601
 4934TIP3    H236218   1.856   2.388   4.182  0.8121 -0.0435 -2.2708
 4935TIP3   OH236219   2.178   4.687   0.448 -0.3111 -0.4721  0.7080
 4935TIP3    H136220   2.180   4.627   0.374  0.7436  0.6891 -0.2668
 4935TIP3    H236221   2.094   4.670   0.491 -1.5175 -0.3789 -1.4558
 4936TIP3   OH236222   2.297   0.779  12.282 -0.1825  0.6915 -0.0193
 4936TIP3    H136223   2.261   0.827  12.356 -1.0823 -0.1979  0.1397
 4936TIP3    H236224   2.236   0.795  12.210 -1.0726 -0.9733  0.3012
 4937TIP3   OH236225   0.290   1.557  15.787  0.0401 -0.1831  0.2232
 4937TIP3    H136226   0.216   1.610  15.754 -0.3845  0.3896  1.9693
 4937TIP3    H236227   0.323   1.512  15.710 -1.9353 -0.1986 -0.6883
 4938TIP3   OH236228   3.591   2.971  13.911  0.0873 -0.1600 -0.2137
 4938TIP3    H136229   3.629   3.006  13.830  2.0666 -0.4650  0.5280
 4938TIP3    H236230   3.579   2.878  13.895 -0.6289 -0.0223 -0.5310
 4939TIP3   OH236231   3.149   1.412  13.891 -0.7397  0.3455 -0.2017
 4939TIP3    H136232   3.091   1.339  13.914  0.4208  0.1069  2.2320
 4939TIP3    H236233   3.237   1.377  13.899 -0.1810  1.4036 -1.3456
 4940TIP3   OH236234   4.131   5.227  13.610 -0.3272 -0.3430  0.2960
 4940TIP3    H136235   4.082   5.214  13.692  0.4255  0.1839  0.8477
 4940TIP3    H236236   4.071   5.275  13.553 -0.8110 -0.5927  0.5895
 4941TIP3   OH236237   2.203   5.818   3.306  0.7883 -0.0783 -0.4129
 4941TIP3    H136238   2.113   5.851   3.305  0.4979 -0.6338  2.1623
 4941TIP3    H236239   2.257   5.895   3.324  0.3167 -0.3918  3.0433
 4942TIP3   OH236240   3.961   1.992  14.106 -0.3649  0.2527 -0.1832
 4942TIP3    H136241   4.051   1.985  14.138 -0.5288 -0.9896  0.0491
 4942TIP3    H236242   3.970   2.003  14.011  0.0377 -0.0278 -0.1806
 4943TIP3   OH236243   4.843   1.579  13.406 -0.4134 -0.1228 -0.3553
 4943TIP3    H136244   4.845   1.499  13.354  1.4849  1.8566 -3.6311
 4943TIP3    H236245   4.786   1.638  13.358 -1.8391  0.5980  2.0449
 4944TIP3   OH236246   4.062   0.842   2.783 -0.1345 -0.2056 -0.0976
 4944TIP3    H136247   3.995   0.858   2.849  1.6156 -1.2925  2.0526
 4944TIP3    H236248   4.036   0.760   2.741 -1.0172  0.2589 -0.4719
 4945TIP3   OH236249   6.562   1.436   0.453 -0.2622 -0.3343 -0.1004
 4945TIP3    H136250   6.631   1.481   0.404  0.9781 -2.0575 -0.0368
 4945TIP3    H236251   6.608   1.389   0.522 -1.6636 -0.4453  0.8019
 4946TIP3   OH236252   1.623   4.347  16.759 -0.3655  0.4795  0.1359
 4946TIP3    H136253   1.685   4.346  16.685  1.1595 -1.4791  1.3307
 4946TIP3    H236254   1.586   4.258  16.760 -0.8759  0.6943  1.3219
 4947TIP3   OH236255   6.509   4.595   5.565  0.7140 -0.3075 -0.3760
 4947TIP3    H136256   6.529   4.602   5.471  0.9588 -0.7849 -0.3608
 4947TIP3    H236257   6.468   4.679   5.587  1.3418  0.1049 -0.7478
 4948TIP3   OH236258   6.539   4.760   0.817  0.2734  0.2600 -0.6558
 4948TIP3    H136259   6.606   4.700   0.784  0.2064 -0.4469  0.4236
 4948TIP3    H236260   6.457   4.714   0.803 -0.1058  1.4476 -2.6774
 4949TIP3   OH236261   6.439   5.771   0.314  0.2752  0.3578 -0.2738
 4949TIP3    H136262   6.441   5.768   0.409  0.4683  0.3108 -0.2776
 4949TIP3    H236263   6.347   5.762   0.291  0.2643  0.0361 -0.1032
 4950TIP3   OH236264   2.227   0.821   1.754 -0.2186  0.1553 -0.1808
 4950TIP3    H136265   2.301   0.778   1.797  0.0525  1.4209  0.6574
 4950TIP3    H236266   2.217   0.773   1.671 -0.3853 -1.9511  0.9911
 4951TIP3   OH236267   6.039   0.525  13.791  0.0429 -0.4340 -0.0447
 4951TIP3    H136268   6.075   0.567  13.713  0.1311 -0.9382 -0.2776
 4951TIP3    H236269   6.010   0.439  13.761  2.7345 -1.8419  1.0319
 4952TIP3   OH236270   6.604   6.066  16.315  0.1750 -0.3426  0.4438
 4952TIP3    H136271   6.513   6.085  16.291  0.3154 -0.2321  0.0008
 4952TIP3    H236272   6.648   6.150  16.311  0.1014 -0.2405  1.5423
 4953TIP3   OH236273   6.408   4.327  16.854 -0.6409 -0.3189  0.0438
 4953TIP3    H136274   6.482   4.282  16.815 -0.5183  0.3798 -0.5498
 4953TIP3    H236275   6.393   4.403  16.798 -0.0748  1.0675  1.6617
 4954TIP3   OH236276   2.346   6.117  15.613 -0.0816 -0.1275  0.6359
 4954TIP3    H136277   2.266   6.065  15.623 -0.5579 -0.3044 -2.9480
 4954TIP3    H236278   2.315   6.205  15.591  0.7375  0.1176  0.4369
 4955TIP3   OH236279   0.792   1.990  14.596  0.1274 -0.5371  0.3869
 4955TIP3    H136280   0.831   1.904  14.584  0.1853 -0.7198  1.7516
 4955TIP3    H236281   0.823   2.019  14.681 -1.1949  0.1239  0.6764
 4956TIP3   OH236282   4.064   6.639  11.969  0.1427 -0.0585 -0.1208
 4956TIP3    H136283   4.107   6.690  11.900  2.4343 -0.5810  0.8449
 4956TIP3    H236284   4.016   6.571  11.921 -0.5019  1.1750 -1.2922
 4957TIP3   OH236285   6.648   3.323  11.373  0.0857  0.4485 -0.4635
 4957TIP3    H136286   6.668   3.234  11.342  1.7215  0.8508 -0.6010
 4957TIP3    H236287   6.699   3.380  11.316 -1.3774  1.5451 -0.7354
 4958TIP3   OH236288   1.903   2.108  15.622  0.7856  0.0716 -0.3457
 4958TIP3    H136289   1.851   2.151  15.554  2.0473 -1.9534 -2.7776
 4958TIP3    H236290   1.963   2.176  15.653 -0.3759  1.2720 -0.6454
 4959TIP3   OH236291   1.977   1.564  15.189  0.4087  0.6816 -0.4881
 4959TIP3    H136292   1.983   1.652  15.228  0.7287  0.4616 -0.0303
 4959TIP3    H236293   1.953   1.507  15.262 -0.7423  0.5187 -0.9705
 4960TIP3   OH236294   4.894   1.685   6.013  0.2188  0.0325 -0.1891
 4960TIP3    H136295   4.837   1.649   6.081  1.7038 -1.3712  0.3725
 4960TIP3    H236296   4.847   1.762   5.981 -0.8667  0.3256  1.9264
 4961TIP3   OH236297   0.742   6.150   4.072  0.2832  0.7013 -0.8299
 4961TIP3    H136298   0.739   6.079   4.136  2.0055  1.5923  0.3111
 4961TIP3    H236299   0.667   6.133   4.014 -0.7563 -0.6870  0.8152
 4962TIP3   OH236300   4.458   1.957  12.987  0.0111  0.0853  0.4079
 4962TIP3    H136301   4.363   1.965  12.986  0.0992  2.7023 -2.6770
 4962TIP3    H236302   4.489   2.046  13.002  1.8985 -0.2854 -0.9518
 4963TIP3   OH236303   0.384   6.013   4.626 -0.5567  0.0177  0.2184
 4963TIP3    H136304   0.367   5.959   4.549 -2.2969  0.8769 -0.0444
 4963TIP3    H236305   0.460   5.972   4.668  0.1475 -0.7377 -1.6866
 4964TIP3   OH236306   3.940   6.049  14.354  0.7102 -0.2431  0.0117
 4964TIP3    H136307   3.877   6.014  14.418 -0.6243  1.8521 -0.0506
 4964TIP3    H236308   4.025   6.016  14.383  0.3474  1.5069  3.6204
 4965TIP3   OH236309   4.484   6.623  13.239 -0.2075  0.2647 -0.2028
 4965TIP3    H136310   4.405   6.597  13.191 -0.1773 -2.2385  0.9710
 4965TIP3    H236311   4.527   6.541  13.262  0.9811  1.4287  2.1099
 4966TIP3   OH236312   5.257   3.439   1.856  0.6466 -0.4502 -0.0023
 4966TIP3    H136313   5.217   3.373   1.800  0.2019 -1.0717  1.0099
 4966TIP3    H236314   5.214   3.521   1.832 -0.1542 -0.8536  0.0189
 4967TIP3   OH236315   1.738   4.475   0.959 -1.0229  0.4455 -0.3133
 4967TIP3    H136316   1.658   4.423   0.952 -0.2259 -1.1159  1.3677
 4967TIP3    H236317   1.727   4.524   1.041  0.6330 -1.5892  1.2515
 4968TIP3   OH236318   0.143   3.562  15.130  0.3316 -0.5317  0.4865
 4968TIP3    H136319   0.103   3.555  15.217 -0.6522 -4.9591 -0.1221
 4968TIP3    H236320   0.074   3.538  15.069  0.6300  3.5819 -1.8842
 4969TIP3   OH236321   3.866   1.557   2.976  0.5007  0.7730 -0.0710
 4969TIP3    H136322   3.932   1.548   3.044  0.6577  0.2743 -0.2853
 4969TIP3    H236323   3.912   1.595   2.902  1.0806 -1.4468 -0.9462
 4970TIP3   OH236324   3.590   1.030  10.421 -0.1189 -0.1842  0.2610
 4970TIP3    H136325   3.587   1.020  10.326  0.6296  0.8076  0.1250
 4970TIP3    H236326   3.514   0.981  10.452  1.4803 -3.5334 -0.5706
 4971TIP3   OH236327   3.603   4.375   2.929  0.0974  0.2588  0.5377
 4971TIP3    H136328   3.532   4.400   2.989  0.0085  0.1167  0.4924
 4971TIP3    H236329   3.579   4.287   2.900 -0.4169  0.7394 -0.5342
 4972TIP3   OH236330   1.118   6.640   3.334 -0.2779 -0.2202 -0.3681
 4972TIP3    H136331   1.194   6.697   3.322 -0.7017  0.7872  1.3929
 4972TIP3    H236332   1.048   6.699   3.361 -1.0343 -1.4173  0.3798
 4973TIP3   OH236333   1.995   5.461   0.494  0.4695 -0.2271 -0.1177
 4973TIP3    H136334   2.015   5.465   0.588  0.0962  1.0010 -0.0756
 4973TIP3    H236335   2.027   5.545   0.460 -2.1148  0.6708 -0.5274
 4974TIP3   OH236336   0.369   0.203   5.141 -0.4815  0.4238  0.4034
 4974TIP3    H136337   0.387   0.179   5.050 -1.0397  3.1339 -0.5177
 4974TIP3    H236338   0.454   0.196   5.184 -0.3591 -1.7082 -0.0420
 4975TIP3   OH236339   5.366   1.736  16.689  0.8454 -0.1481 -0.5273
 4975TIP3    H136340   5.378   1.677  16.614  0.3818 -0.7592 -0.1323
 4975TIP3    H236341   5.333   1.817  16.652  0.6668 -0.4326 -0.9908
 4976TIP3   OH236342   1.940   0.671  15.193  0.0544  0.6144  0.4880
 4976TIP3    H136343   1.862   0.619  15.172  1.3360 -1.6752  1.0786
 4976TIP3    H236344   1.915   0.719  15.272 -0.7731 -0.0697  0.6629
 4977TIP3   OH236345   1.513   1.296   5.093 -0.6177  0.1218  0.3432
 4977TIP3    H136346   1.575   1.292   5.020 -0.0367  0.1615  0.8288
 4977TIP3    H236347   1.462   1.375   5.076 -0.7921 -0.1077 -0.2534
 4978TIP3   OH236348   0.759   2.497  16.280  0.3032 -0.5364 -0.1710
 4978TIP3    H136349   0.726   2.560  16.344 -1.2123 -1.0379 -0.4017
 4978TIP3    H236350   0.786   2.422  16.333 -1.9397 -1.3797 -0.0989
 4979TIP3   OH236351   6.495   4.240   5.077 -0.0364 -0.2301  0.0252
 4979TIP3    H136352   6.516   4.156   5.119  0.6511 -0.7066 -1.2293
 4979TIP3    H236353   6.429   4.218   5.011 -0.8909  0.4639  0.6235
 4980TIP3   OH236354   2.171   3.923  16.278  0.1496 -0.0185 -0.4311
 4980TIP3    H136355   2.118   3.858  16.230 -0.7669  1.4434 -1.4716
 4980TIP3    H236356   2.142   3.913  16.369  0.8759 -1.8393 -0.3402
 4981TIP3   OH236357   1.038   1.263   5.309 -0.6807  0.8070  0.2099
 4981TIP3    H136358   1.078   1.329   5.366 -0.6873  0.8226  0.1961
 4981TIP3    H236359   1.078   1.277   5.224  0.4655 -0.1997  0.5595
 4982TIP3   OH236360   4.852   4.966   0.971  0.3855 -0.3490  0.4760
 4982TIP3    H136361   4.786   5.004   0.913  1.0551 -0.0662 -0.1266
 4982TIP3    H236362   4.803   4.913   1.033 -0.2947 -1.5971 -1.0441
 4983TIP3   OH236363   4.919   3.475  12.439 -0.0731  0.0472  0.4045
 4983TIP3    H136364   4.828   3.503  12.453 -0.3720 -1.6081  2.2484
 4983TIP3    H236365   4.919   3.436  12.352 -1.6362 -1.5011  1.0143
 4984TIP3   OH236366   3.980   3.785  11.329 -0.5346 -0.0613 -0.4232
 4984TIP3    H136367   3.914   3.780  11.261 -1.5697 -0.3065  0.5642
 4984TIP3    H236368   3.932   3.815  11.407  0.2670 -1.3786  0.6188
 4985TIP3   OH236369   1.635   3.373  16.030  0.1934 -0.3583  0.4726
 4985TIP3    H136370   1.590   3.357  15.947  3.0300 -0.4641 -1.1757
 4985TIP3    H236371   1.663   3.464  16.025  0.2792 -0.3169  1.4157
 4986TIP3   OH236372   1.093   4.033  15.306  0.0782  0.7529 -0.2763
 4986TIP3    H136373   1.183   4.022  15.336  0.4617  0.2700 -1.5581
 4986TIP3    H236374   1.070   3.950  15.265 -0.3335  1.4595 -1.5328
 4987TIP3   OH236375   1.011   6.013   1.415  0.7381 -0.4803  0.1760
 4987TIP3    H136376   1.092   6.026   1.463  0.1775  1.5260  0.6553
 4987TIP3    H236377   0.948   5.984   1.482  0.4152  0.5369  0.3244
 4988TIP3   OH236378   2.711   1.478  16.322 -0.1595 -0.1420  0.9883
 4988TIP3    H136379   2.679   1.547  16.380  1.0111 -1.8990  3.9396
 4988TIP3    H236380   2.683   1.396  16.363  2.1612 -1.5521  0.0111
 4989TIP3   OH236381   2.315   4.678  11.402  0.3715  0.4336 -0.1332
 4989TIP3    H136382   2.291   4.770  11.388  0.3755  0.3207 -0.9237
 4989TIP3    H236383   2.366   4.678  11.483 -0.1068  1.0474  0.1760
 4990TIP3   OH236384   3.980   5.076  11.793 -0.3776 -0.4178  0.2205
 4990TIP3    H136385   3.969   4.994  11.745 -1.7415 -0.1953  0.0953
 4990TIP3    H236386   3.890   5.103  11.814 -0.0756  1.8731 -1.1525
 4991TIP3   OH236387   4.327   4.173  17.302 -0.2456  0.1381  0.2232
 4991TIP3    H136388   4.269   4.099  17.291 -0.7197  0.6751 -1.1222
 4991TIP3    H236389   4.407   4.148  17.255  0.0773 -0.0250  0.8516
 4992TIP3   OH236390   0.419   0.451  16.999 -0.1124 -0.5211  0.4215
 4992TIP3    H136391   0.396   0.400  16.922  0.4025 -1.6235  0.9776
 4992TIP3    H236392   0.475   0.521  16.966  0.8882 -1.5454 -0.0782
 4993TIP3   OH236393   6.231   2.869   3.716  0.5874 -0.2499 -0.1044
 4993TIP3    H136394   6.241   2.781   3.752  0.8343 -0.7450 -1.3312
 4993TIP3    H236395   6.197   2.921   3.789  0.5639 -1.3256  0.6767
 4994TIP3   OH236396   1.352   1.945  13.473  0.1529  0.1505  0.3689
 4994TIP3    H136397   1.375   1.930  13.565 -0.3061 -2.0337  0.1919
 4994TIP3    H236398   1.428   1.913  13.424  0.2488  0.9721 -0.0298
 4995TIP3   OH236399   2.181   1.766  11.117 -0.3773  0.0235 -0.3640
 4995TIP3    H136400   2.114   1.732  11.057  0.2660  1.0980 -1.7567
 4995TIP3    H236401   2.243   1.693  11.126 -1.4109 -0.7823  0.4954
 4996TIP3   OH236402   5.270   2.305   0.374 -0.5628  0.2059 -0.6143
 4996TIP3    H136403   5.321   2.378   0.338 -1.0717  0.4364 -0.8854
 4996TIP3    H236404   5.300   2.228   0.326  0.6935  0.0516  0.3580
 4997TIP3   OH236405   1.814   2.699   5.214  0.0132 -0.2726 -0.4481
 4997TIP3    H136406   1.829   2.658   5.129 -0.7445 -1.4398 -0.0529
 4997TIP3    H236407   1.804   2.792   5.194 -1.4500 -0.6762 -1.8169
 4998TIP3   OH236408   3.211   4.647  14.172  0.4097  0.0851  0.3107
 4998TIP3    H136409   3.186   4.557  14.153  0.6032  0.0141  0.3999
 4998TIP3    H236410   3.247   4.645  14.260  1.1806  0.1046  0.0041
 4999TIP3   OH236411   1.476   5.428   3.898 -0.2933 -0.1016  0.1632
 4999TIP3    H136412   1.465   5.463   3.987 -1.5065 -0.3648  0.1264
 4999TIP3    H236413   1.432   5.343   3.900  0.4928 -0.5281 -0.4384
 5000TIP3   OH236414   4.696   6.538  16.249  0.1929 -0.0363 -0.0666
 5000TIP3    H136415   4.602   6.555  16.245  0.3780  1.0839  0.1181
 5000TIP3    H236416   4.724   6.573  16.333  0.9280  0.4447 -0.4973
 5001TIP3   OH236417   0.408   4.787   3.826 -0.3240 -0.3821 -0.5334
 5001TIP3    H136418   0.393   4.695   3.850 -1.5547 -0.7947 -2.6323
 5001TIP3    H236419   0.322   4.828   3.833  0.3870  0.9101  1.3109
 5002TIP3   OH236420   1.965   0.937   3.319  0.9110  0.2243 -0.1132
 5002TIP3    H136421   1.953   0.934   3.224  3.2855  1.1852 -0.5208
 5002TIP3    H236422   1.945   0.848   3.349 -0.2099 -0.0064 -1.4426
 5003TIP3   OH236423   0.025   3.761   4.833  0.3573  0.5200  0.0860
 5003TIP3    H136424  -0.057   3.808   4.819 -0.7540 -1.1513  0.6559
 5003TIP3    H236425   0.065   3.805   4.908 -0.9302  0.2818  0.9592
 5004TIP3   OH236426   2.028   1.612   0.508  0.4610  0.5675 -0.3868
 5004TIP3    H136427   1.980   1.678   0.458  0.7923  0.7162 -0.5159
 5004TIP3    H236428   1.981   1.530   0.493 -0.5819  0.9506  0.6209
 5005TIP3   OH236429   4.111   5.975   0.217 -0.1700  0.6761 -0.2760
 5005TIP3    H136430   4.126   5.909   0.285  0.1322 -0.8740 -1.7646
 5005TIP3    H236431   4.172   6.046   0.238  0.9298 -0.4000  0.2817
 5006TIP3   OH236432   1.960   3.005  17.368 -0.4774 -0.0962  0.1725
 5006TIP3    H136433   2.014   3.006  17.289 -0.0766 -0.8322  0.4265
 5006TIP3    H236434   1.890   2.943  17.349 -0.9481  0.4696  0.0351
 5007TIP3   OH236435   1.482   4.220   5.108 -0.1092  0.0254 -0.0145
 5007TIP3    H136436   1.429   4.248   5.033  0.2325 -0.6219 -0.5045
 5007TIP3    H236437   1.530   4.299   5.134 -3.3856  1.5062  2.2987
 5008TIP3   OH236438   5.320   2.066   0.223  0.0905  0.3390 -0.1729
 5008TIP3    H136439   5.265   2.057   0.145 -0.4384  1.2865  0.0782
 5008TIP3    H236440   5.325   1.977   0.260 -1.9221  0.3641  0.2314
 5009TIP3   OH236441   3.871   1.833   2.453 -0.4835 -0.3296 -0.6411
 5009TIP3    H136442   3.926   1.796   2.384  0.2298  1.5624 -1.1524
 5009TIP3    H236443   3.818   1.759   2.483  0.1458 -1.5168 -2.2656
 5010TIP3   OH236444   1.416   0.852  15.440  0.4512  0.1863  0.2746
 5010TIP3    H136445   1.453   0.907  15.371 -0.2903 -0.9320 -1.0648
 5010TIP3    H236446   1.459   0.767  15.428 -0.4966 -0.3335  0.4946
 5011TIP3   OH236447   1.987   3.204   5.903  0.3422  0.0096  0.0432
 5011TIP3    H136448   1.921   3.197   5.971 -0.6703 -0.0689 -0.9225
 5011TIP3    H236449   2.060   3.250   5.945 -0.0338 -0.5074  1.3216
 5012TIP3   OH236450   5.643   1.713   3.447  0.2851 -0.3119 -0.1282
 5012TIP3    H136451   5.693   1.643   3.488  0.2095 -1.2667 -1.6030
 5012TIP3    H236452   5.675   1.716   3.357 -1.8236 -0.5193 -0.9467
 5013TIP3   OH236453   5.523   0.254   2.613  0.6510  0.0027 -0.1158
 5013TIP3    H136454   5.517   0.238   2.707  2.1875  0.4482  0.0761
 5013TIP3    H236455   5.448   0.311   2.594  0.5678  0.2565  0.9073
 5014TIP3   OH236456   2.758   1.071   6.103 -0.3338 -0.0325  0.1582
 5014TIP3    H136457   2.761   1.142   6.039  1.2162  1.6422  1.9625
 5014TIP3    H236458   2.838   1.020   6.086  0.1115  0.4499  0.7556
 5015TIP3   OH236459   0.384   5.503   4.452 -0.0774  0.0961  0.0646
 5015TIP3    H136460   0.433   5.572   4.408 -0.4461  0.6044  0.4294
 5015TIP3    H236461   0.387   5.429   4.392  0.4849  0.3678 -0.2515
 5016TIP3   OH236462   3.339   6.081   6.073 -0.0955  0.5783 -0.1797
 5016TIP3    H136463   3.288   6.099   6.152  3.0830 -0.6786  2.3987
 5016TIP3    H236464   3.353   6.166   6.033 -1.9281  1.2415  0.4874
 5017TIP3   OH236465   4.116   3.780  12.451  0.1438  0.2761 -0.2750
 5017TIP3    H136466   4.119   3.740  12.364  1.9219  0.8891 -0.5222
 5017TIP3    H236467   4.193   3.746  12.497  0.3345  1.5024  0.3574
 5018TIP3   OH236468   5.749   2.209   4.780  0.5936 -0.1444 -0.1347
 5018TIP3    H136469   5.825   2.236   4.728 -0.0362 -0.1172 -1.0785
 5018TIP3    H236470   5.784   2.191   4.867  1.2001  2.9788  0.3835
 5019TIP3   OH236471   0.970   0.410  15.590 -0.7137 -0.1882 -0.1229
 5019TIP3    H136472   0.953   0.318  15.613 -1.7054  0.3816  1.5994
 5019TIP3    H236473   0.958   0.458  15.672  1.3627  1.3251 -0.6098
 5020TIP3   OH236474   2.238   3.777  16.896  0.0953 -0.3521  0.3874
 5020TIP3    H136475   2.172   3.765  16.965  0.7608  0.6604  1.2409
 5020TIP3    H236476   2.199   3.737  16.819 -1.4564  0.0647  0.9094
 5021TIP3   OH236477   6.250   3.654   2.443  0.3533 -0.9719 -0.6180
 5021TIP3    H136478   6.264   3.599   2.366 -0.6958 -1.4174 -0.5012
 5021TIP3    H236479   6.157   3.646   2.462  0.2887  0.3919 -0.2495
 5022TIP3   OH236480   2.461   5.862  13.458 -0.3524 -0.3460 -0.1897
 5022TIP3    H136481   2.529   5.929  13.448 -0.2157 -0.2746  1.0867
 5022TIP3    H236482   2.379   5.911  13.451 -0.2753  0.3544  2.7242
 5023TIP3   OH236483   0.680   3.501  15.194 -0.2257 -0.0227  0.0920
 5023TIP3    H136484   0.694   3.554  15.273  2.0720  0.2506 -0.4314
 5023TIP3    H236485   0.654   3.415  15.228  0.7535  0.0777  1.1788
 5024TIP3   OH236486   2.742   2.777   1.315 -0.2192 -0.0415 -0.2257
 5024TIP3    H136487   2.814   2.757   1.256 -0.3474  0.4491 -0.5452
 5024TIP3    H236488   2.784   2.822   1.389 -0.2151  0.3933 -0.4881
 5025TIP3   OH236489   2.846   4.426   4.130  0.2391 -0.6777  0.4000
 5025TIP3    H136490   2.864   4.506   4.081  1.4379 -1.2177 -0.0870
 5025TIP3    H236491   2.875   4.445   4.219  1.7281 -0.9734 -0.0029
 5026TIP3   OH236492   6.746   5.186  12.815 -0.4406 -0.1585 -0.1952
 5026TIP3    H136493   6.804   5.210  12.887 -2.1323  1.9642  0.5429
 5026TIP3    H236494   6.746   5.262  12.757  0.9844 -1.8537 -2.6556
 5027TIP3   OH236495   5.112   3.853  14.057  0.8970 -0.6679 -0.1434
 5027TIP3    H136496   5.116   3.905  13.976  2.0738  0.3373  0.5323
 5027TIP3    H236497   5.117   3.917  14.127 -2.3161 -1.3155  0.8363
 5028TIP3   OH236498   4.821   3.427  13.589  0.4547 -0.4908  0.0104
 5028TIP3    H136499   4.775   3.368  13.530 -0.8123  0.0486  0.4232
 5028TIP3    H236500   4.877   3.479  13.532  0.9406 -1.4923 -0.4505
 5029TIP3   OH236501   6.292   3.294  14.316 -0.2695 -0.1226 -0.0611
 5029TIP3    H136502   6.241   3.352  14.372 -1.5661 -1.1694 -0.1268
 5029TIP3    H236503   6.351   3.353  14.268  0.8636  0.8022  2.3381
 5030TIP3   OH236504   6.038   0.787  15.667 -0.5665 -0.9637 -0.0041
 5030TIP3    H136505   5.976   0.832  15.724 -0.4373  0.6714 -1.0666
 5030TIP3    H236506   6.116   0.775  15.720 -0.6223  0.0590  0.3220
 5031TIP3   OH236507   3.625   2.982  15.176  0.4477  0.2005 -0.2212
 5031TIP3    H136508   3.633   2.966  15.082 -1.3957 -0.5892 -0.2857
 5031TIP3    H236509   3.682   2.916  15.217  2.1046  1.2322 -0.7595
 5032TIP3   OH236510   4.765   1.754  14.871 -0.2628  0.2237  0.7776
 5032TIP3    H136511   4.847   1.746  14.823 -1.0409 -2.3854 -0.2975
 5032TIP3    H236512   4.788   1.736  14.962  0.1473 -2.6486  0.1979
 5033TIP3   OH236513   1.773   3.176   5.360 -0.2225 -0.1051  0.5768
 5033TIP3    H136514   1.713   3.242   5.395 -0.1939  0.4620 -0.4115
 5033TIP3    H236515   1.859   3.201   5.395  0.0954  1.4559 -1.1857
 5034TIP3   OH236516   0.182   4.106   5.337  0.6851  0.3222  0.4557
 5034TIP3    H136517   0.205   4.096   5.430  0.1406  0.0830  0.5658
 5034TIP3    H236518   0.205   4.022   5.297  0.2163  0.1618  0.5216
 5035TIP3   OH236519   1.472   3.436   0.297  0.1497  0.5804 -0.1414
 5035TIP3    H136520   1.507   3.469   0.214 -0.5839  1.2063 -0.2101
 5035TIP3    H236521   1.494   3.504   0.361 -0.0963  0.5287 -0.0016
 5036TIP3   OH236522   6.612   6.535  15.768  0.3697 -0.5736 -0.4714
 5036TIP3    H136523   6.682   6.564  15.827  0.3022 -1.8281  0.2471
 5036TIP3    H236524   6.651   6.540  15.681  0.6117  0.8833 -0.3116
 5037TIP3   OH236525   1.065   3.685  14.114  0.0848  0.4481 -0.1790
 5037TIP3    H136526   1.135   3.741  14.078  0.7294  0.2133  0.6641
 5037TIP3    H236527   0.991   3.744  14.125  0.4532  0.9298 -0.2084
 5038TIP3   OH236528   4.275   1.152   2.044  0.2576 -0.2846 -0.8862
 5038TIP3    H136529   4.304   1.076   1.993  0.2865 -0.1430 -1.0798
 5038TIP3    H236530   4.192   1.177   2.004  0.0182 -0.5027 -0.5248
 5039TIP3   OH236531   2.027   3.270  14.508 -0.4202  0.0441 -0.3821
 5039TIP3    H136532   1.978   3.242  14.430  0.4683  0.0531 -0.9545
 5039TIP3    H236533   2.011   3.364  14.514  0.5495  0.2884 -1.3285
 5040TIP3   OH236534   3.356   5.595  14.750 -0.3402  0.4221  0.4513
 5040TIP3    H136535   3.364   5.587  14.845 -1.6464 -0.2402  0.5193
 5040TIP3    H236536   3.262   5.600  14.734 -0.3846 -3.0388 -1.0765
 5041TIP3   OH236537   6.698   0.911  16.342  0.0141 -0.1817  0.0384
 5041TIP3    H136538   6.755   0.839  16.371  1.5180  1.3871  1.1355
 5041TIP3    H236539   6.634   0.921  16.413  0.6938  0.4824  0.5681
 5042TIP3   OH236540   3.567   1.025   6.503  0.0068 -0.2574  0.0040
 5042TIP3    H136541   3.590   1.027   6.596 -0.7445  1.4966  0.2033
 5042TIP3    H236542   3.587   1.113   6.472  0.8648 -1.0052 -1.6755
 5043TIP3   OH236543   3.586   1.910   1.018 -0.6817  0.6073 -0.2335
 5043TIP3    H136544   3.576   1.963   0.939  1.3264  0.1936 -0.8243
 5043TIP3    H236545   3.526   1.837   1.005 -1.3004  1.2029 -0.7920
 5044TIP3   OH236546   3.868   0.639   6.073 -0.3634 -0.1632  0.7217
 5044TIP3    H136547   3.828   0.637   6.160 -0.2084 -0.6308  0.7822
 5044TIP3    H236548   3.955   0.677   6.088 -0.7402  0.7670  0.6036
 5045TIP3   OH236549   6.292   5.061  17.035 -0.5795 -0.3033  0.1351
 5045TIP3    H136550   6.264   4.977  17.073  0.2378 -0.4239  0.4816
 5045TIP3    H236551   6.244   5.066  16.952  0.7415 -1.9925 -0.8004
 5046TIP3   OH236552   5.876   0.656   2.207 -0.6717  0.0878  0.1836
 5046TIP3    H136553   5.849   0.565   2.193 -2.0852  0.3466  1.0606
 5046TIP3    H236554   5.801   0.708   2.178 -0.1661  0.9486  0.3866
 5047TIP3   OH236555   5.636   6.514   5.316  0.2050 -0.0986  0.1786
 5047TIP3    H136556   5.701   6.458   5.274  0.3605  0.3764 -0.2162
 5047TIP3    H236557   5.687   6.587   5.351 -0.3451  1.4047 -2.0077
 5048TIP3   OH236558   4.093   6.036  11.175  0.3450  0.9678 -0.1859
 5048TIP3    H136559   4.079   6.039  11.080  1.7504  0.3586 -0.4361
 5048TIP3    H236560   4.188   6.034  11.185  0.2075 -0.0335  1.1967
 5049TIP3   OH236561   1.130   6.300   0.087  0.2795  0.3446  0.0217
 5049TIP3    H136562   1.078   6.340   0.157  0.6758  1.3101 -0.2127
 5049TIP3    H236563   1.077   6.314   0.008  0.3264  0.2238 -0.0305
 5050TIP3   OH236564   4.088   1.377  14.067  0.0290  0.5138 -0.1460
 5050TIP3    H136565   3.994   1.380  14.052 -0.3590  0.6137  1.9833
 5050TIP3    H236566   4.101   1.305  14.129  1.0626  1.7451  1.1544
 5051TIP3   OH236567   4.274   0.130  10.318 -0.1078 -0.2148  0.2419
 5051TIP3    H136568   4.210   0.115  10.248  0.8138 -0.6629 -0.5339
 5051TIP3    H236569   4.312   0.216  10.298 -0.4309  0.0394  0.6861
 5052TIP3   OH236570   5.145   4.791   5.960 -0.0659 -1.1660  0.7420
 5052TIP3    H136571   5.057   4.753   5.962 -0.1163 -1.0807  0.2098
 5052TIP3    H236572   5.184   4.765   6.044 -0.6545 -1.0616  1.0581
 5053TIP3   OH236573   0.516   0.084  15.311  0.4817 -0.2392  0.0995
 5053TIP3    H136574   0.592   0.031  15.291  0.0193 -1.0957  0.5401
 5053TIP3    H236575   0.451   0.060  15.245  1.3221  2.2139 -1.7690
 5054TIP3   OH236576   5.818   3.720   2.030 -0.0021 -0.1511 -0.0429
 5054TIP3    H136577   5.889   3.752   2.085 -0.9671  1.5374  0.3052
 5054TIP3    H236578   5.743   3.773   2.055 -0.7754 -0.1488 -2.1532
 5055TIP3   OH236579   5.264   1.478  14.914 -0.3731  0.5776  0.4670
 5055TIP3    H136580   5.337   1.440  14.963 -0.4345  1.0520  0.9340
 5055TIP3    H236581   5.252   1.565  14.953  0.2409  1.3794 -1.0677
 5056TIP3   OH236582   2.560   6.125  17.036 -0.2981  0.6514  0.1915
 5056TIP3    H136583   2.507   6.157  17.109 -2.2729  0.0352 -0.8792
 5056TIP3    H236584   2.585   6.204  16.989 -1.1102  0.9246  0.1942
 5057TIP3   OH236585   4.246   4.455  13.024 -0.4515 -0.2545 -0.2662
 5057TIP3    H136586   4.203   4.540  13.033  1.8191  0.9206  0.2955
 5057TIP3    H236587   4.194   4.395  13.078 -2.4610  0.5811 -1.1686
 5058TIP3   OH236588   3.172   6.581   0.733 -0.5466  0.4859 -0.2525
 5058TIP3    H136589   3.208   6.634   0.803 -2.2077 -1.1818  2.0074
 5058TIP3    H236590   3.247   6.561   0.676  1.1452  0.8029  1.7591
 5059TIP3   OH236591   2.051   0.795   0.678  0.0746  0.2541  0.4048
 5059TIP3    H136592   2.101   0.877   0.681  1.2106 -0.4199  0.2780
 5059TIP3    H236593   2.073   0.756   0.594 -1.5295  0.4431 -0.1449
 5060TIP3   OH236594   4.289   4.721   5.726 -0.0479  0.0156 -0.5395
 5060TIP3    H136595   4.372   4.674   5.722  0.7387  1.1693  1.1631
 5060TIP3    H236596   4.230   4.662   5.772  0.5854  0.1901  0.5162
 5061TIP3   OH236597   0.926   5.409   0.144  0.1233  0.0455  0.2314
 5061TIP3    H136598   0.897   5.459   0.221  2.6069  3.1018 -0.5834
 5061TIP3    H236599   1.015   5.382   0.166  0.9389  1.1272 -1.5366
 5062TIP3   OH236600   4.865   2.984   3.013  0.3345 -0.3945 -0.2260
 5062TIP3    H136601   4.802   2.930   3.062  1.3198 -2.5982 -1.2846
 5062TIP3    H236602   4.940   2.992   3.072  0.1984 -0.1631 -0.0794
 5063TIP3   OH236603   4.697   4.936  17.005 -0.2221 -1.1151  0.1334
 5063TIP3    H136604   4.662   4.901  16.922  0.5498 -0.2337 -0.5860
 5063TIP3    H236605   4.637   5.006  17.028 -0.4813 -1.4113  0.3752
 5064TIP3   OH236606   5.593   0.603   0.354  0.1924  0.0590  0.3297
 5064TIP3    H136607   5.665   0.635   0.408 -0.1419  0.4755  0.5369
 5064TIP3    H236608   5.559   0.682   0.311  1.2123 -0.4085 -1.4270
 5065TIP3   OH236609   4.990   1.106   4.657 -0.2527 -0.2710 -0.5083
 5065TIP3    H136610   5.005   1.091   4.751  0.6644 -1.7209 -0.8717
 5065TIP3    H236611   4.987   1.202   4.649 -0.6077 -0.1195  1.0341
 5066TIP3   OH236612   3.895   5.443   5.170  0.7218  0.2479  0.1001
 5066TIP3    H136613   3.877   5.412   5.259  1.8301 -2.4380 -0.5092
 5066TIP3    H236614   3.879   5.537   5.174  0.0074  0.1082  2.9332
 5067TIP3   OH236615   1.961   2.761  12.187  0.0301 -0.3539  0.2054
 5067TIP3    H136616   1.936   2.674  12.156  0.0538 -0.5623  0.7560
 5067TIP3    H236617   1.986   2.809  12.108  1.6511 -1.3812  0.0539
 5068TIP3   OH236618   5.360   1.726   4.367 -0.3630  0.0541 -0.1992
 5068TIP3    H136619   5.378   1.702   4.276 -0.2743  0.5381 -0.3141
 5068TIP3    H236620   5.432   1.786   4.390 -1.5292  1.6556 -0.5223
 5069TIP3   OH236621   2.047   0.087  10.873  0.4105  0.9598  0.1024
 5069TIP3    H136622   2.062   0.178  10.899  0.1570  0.5678  1.7004
 5069TIP3    H236623   2.089   0.080  10.787  1.5024  2.2591  0.4904
 5070TIP3   OH236624   2.839   3.481  12.384  0.0502  0.0409 -1.0388
 5070TIP3    H136625   2.860   3.430  12.462  1.3434 -0.2735 -1.5705
 5070TIP3    H236626   2.921   3.525  12.361  0.2581 -1.4262 -3.3445
 5071TIP3   OH236627   3.320   2.974   0.407  0.6480 -0.0956  0.7846
 5071TIP3    H136628   3.303   3.015   0.322 -0.2614 -1.2214  0.3903
 5071TIP3    H236629   3.372   2.896   0.386  0.3478 -0.4269  1.2439
 5072TIP3   OH236630   5.632   5.383   2.348 -0.2799  0.4084  0.3160
 5072TIP3    H136631   5.623   5.462   2.401 -1.1314  0.8987 -0.5236
 5072TIP3    H236632   5.542   5.357   2.328 -0.2333 -2.5849  3.1090
 5073TIP3   OH236633   6.736   0.587   0.944  0.1731  0.3153 -0.2955
 5073TIP3    H136634   6.656   0.557   0.989  0.2285  1.1386  0.3876
 5073TIP3    H236635   6.751   0.522   0.875 -0.3219 -0.5943  0.4313
 5074TIP3   OH236636   1.411   3.207  16.593  0.3408  0.7019  0.1351
 5074TIP3    H136637   1.387   3.299  16.584 -0.0386  0.4430 -2.0530
 5074TIP3    H236638   1.485   3.207  16.654 -1.1273  2.1624  2.0570
 5075TIP3   OH236639   4.927   2.325  14.397  0.0522 -0.7801  0.7519
 5075TIP3    H136640   4.940   2.336  14.303 -0.8465 -0.4587  0.6517
 5075TIP3    H236641   4.890   2.238  14.406 -1.3518 -0.2267  0.6301
 5076TIP3   OH236642   3.348   1.817  16.911 -0.2985  0.2372 -0.3324
 5076TIP3    H136643   3.292   1.817  16.833  0.1354  1.9357 -0.6753
 5076TIP3    H236644   3.286   1.819  16.984 -0.7960  3.1828 -0.7092
 5077TIP3   OH236645   5.869   4.893  15.398 -0.0746  0.4800  0.1400
 5077TIP3    H136646   5.885   4.828  15.466 -0.2241  1.4501  1.1252
 5077TIP3    H236647   5.947   4.949  15.399 -0.3189  0.8330 -0.1084
 5078TIP3   OH236648   5.774   3.104  15.305  0.1971 -0.1175  0.9829
 5078TIP3    H136649   5.766   3.050  15.226  0.7435  1.4573 -0.2188
 5078TIP3    H236650   5.863   3.139  15.302  0.4261 -0.4818  2.6370
 5079TIP3   OH236651   0.362   5.813   5.429  0.1633  0.1915  0.9870
 5079TIP3    H136652   0.350   5.903   5.399  1.7999  0.7712  1.9781
 5079TIP3    H236653   0.296   5.801   5.497 -2.9606 -0.8330 -1.9305
 5080TIP3   OH236654   3.328   5.403  14.306  0.2984  0.0123 -0.7680
 5080TIP3    H136655   3.311   5.456  14.384 -2.1537 -0.1963 -1.0812
 5080TIP3    H236656   3.364   5.466  14.242 -0.8128  0.9263 -0.5295
 5081TIP3   OH236657   2.871   0.482  11.352 -0.0314  0.5226  0.6440
 5081TIP3    H136658   2.957   0.440  11.350 -0.1129  0.3756  0.1398
 5081TIP3    H236659   2.890   0.573  11.375  0.1787  0.2979  1.3825
 5082TIP3   OH236660   3.730   0.025  16.389  0.5802 -0.1599  0.3252
 5082TIP3    H136661   3.718  -0.004  16.298  0.3024  1.8893 -0.3317
 5082TIP3    H236662   3.791  -0.040  16.426  2.2334 -0.0053 -1.8996
 5083TIP3   OH236663   3.826   4.426   3.511 -0.5393  0.5451  0.2217
 5083TIP3    H136664   3.840   4.512   3.551 -0.9885  1.0849 -0.7502
 5083TIP3    H236665   3.750   4.391   3.556 -1.0215  1.1350 -0.1201
 5084TIP3   OH236666   2.042   3.045   5.153 -0.1874 -0.7843 -0.0234
 5084TIP3    H136667   2.129   3.061   5.191 -1.2949 -0.0408  2.3335
 5084TIP3    H236668   2.051   2.961   5.108  1.8399 -0.5348 -0.2210
 5085TIP3   OH236669   4.498   6.505   3.957 -0.2827 -0.1786 -0.0770
 5085TIP3    H136670   4.408   6.526   3.933 -0.5450 -1.3194 -0.1076
 5085TIP3    H236671   4.520   6.571   4.023 -1.2621 -0.1065  0.1984
 5086TIP3   OH236672   6.172   1.342  14.977 -0.3976 -0.3646 -0.0523
 5086TIP3    H136673   6.150   1.331  15.070 -1.0860 -0.6862 -0.2437
 5086TIP3    H236674   6.160   1.255  14.940 -0.7073 -0.1086 -0.5586
 5087TIP3   OH236675   2.842   3.118   6.030 -0.1480  0.1586 -0.2801
 5087TIP3    H136676   2.823   3.160   6.115  1.7297  1.2396 -0.3263
 5087TIP3    H236677   2.901   3.180   5.986 -0.7281 -0.5953 -2.2051
 5088TIP3   OH236678   0.387   0.526  10.604  0.4295  0.0851 -0.3941
 5088TIP3    H136679   0.421   0.614  10.594  0.4233  0.4375  2.0074
 5088TIP3    H236680   0.453   0.480  10.657 -0.5594 -0.6668  0.2343
 5089TIP3   OH236681   3.944   2.920  14.908  0.2170  0.2449 -0.2456
 5089TIP3    H136682   3.852   2.901  14.921  0.7588 -1.8808  0.7844
 5089TIP3    H236683   3.945   2.984  14.836 -1.9977 -0.1547 -0.6997
 5090TIP3   OH236684   3.338   4.029   1.691 -0.0706  0.6228 -0.0698
 5090TIP3    H136685   3.250   3.999   1.713  0.2544 -0.5592 -0.3253
 5090TIP3    H236686   3.335   4.045   1.597  0.1211  0.1119 -0.1628
 5091TIP3   OH236687   1.041   4.053   3.782  0.9003  0.3475 -0.4549
 5091TIP3    H136688   1.051   4.075   3.874  2.9639  1.2986 -0.8403
 5091TIP3    H236689   1.015   3.961   3.781 -0.5201  0.7058  1.0767
 5092TIP3   OH236690   0.055   5.091  16.370 -0.2265  0.6654  0.1495
 5092TIP3    H136691   0.089   5.099  16.460 -0.3771 -0.7226  0.3384
 5092TIP3    H236692   0.117   5.142  16.317 -0.0208  1.3355  1.0010
 5093TIP3   OH236693   3.386   3.893   3.262 -0.7505  0.0213  0.1444
 5093TIP3    H136694   3.363   3.808   3.299 -1.3875 -0.1741 -0.6983
 5093TIP3    H236695   3.479   3.904   3.284 -1.5037  0.8146  3.5808
 5094TIP3   OH236696   5.324   3.489   1.073 -0.0399  0.0279 -0.3104
 5094TIP3    H136697   5.266   3.497   1.149 -0.5045  3.1921 -0.8834
 5094TIP3    H236698   5.404   3.536   1.098  0.2729  0.0854 -1.3635
 5095TIP3   OH236699   5.525   5.715  13.098 -0.2136  0.1520  0.6640
 5095TIP3    H136700   5.495   5.641  13.150  0.4313  0.3547  1.3440
 5095TIP3    H236701   5.602   5.683  13.053  1.1441  0.8916  2.3474
 5096TIP3   OH236702   4.778   4.909   5.783  0.4457  0.4089  0.1012
 5096TIP3    H136703   4.701   4.959   5.810 -1.0973 -1.2574 -0.9520
 5096TIP3    H236704   4.850   4.972   5.785 -0.8733  1.9634  1.3768
 5097TIP3   OH236705   5.687   1.770  16.127  0.9075 -0.1793 -0.3235
 5097TIP3    H136706   5.663   1.782  16.219  0.1544  0.0031 -0.5405
 5097TIP3    H236707   5.604   1.759  16.081  1.3382 -1.8288 -0.7726
 5098TIP3   OH236708   3.217   1.660   6.122  0.2089  0.2607 -0.1278
 5098TIP3    H136709   3.293   1.695   6.168 -0.1115 -0.5324  1.0406
 5098TIP3    H236710   3.145   1.716   6.150  0.0894  0.0474 -0.0130
 5099TIP3   OH236711   4.159   2.830  14.265 -0.0856  0.4574 -0.9713
 5099TIP3    H136712   4.221   2.790  14.204  1.1892 -1.1858  1.2643
 5099TIP3    H236713   4.121   2.757  14.313  0.8870  1.7381  1.9561
 5100TIP3   OH236714   2.215   5.504  10.816  0.3182  0.4398 -0.2084
 5100TIP3    H136715   2.190   5.416  10.843  0.1518  0.9132  1.2775
 5100TIP3    H236716   2.311   5.503  10.816  0.3132  0.1790 -0.4437
 5101TIP3   OH236717   3.353   5.001  13.570 -0.1939  0.5518  0.0140
 5101TIP3    H136718   3.441   5.030  13.545  0.6148  0.3420  2.3629
 5101TIP3    H236719   3.337   5.043  13.654 -0.8631 -2.1416  1.3245
 5102TIP3   OH236720   0.984   2.004   6.024  0.4821  0.0839  0.6227
 5102TIP3    H136721   0.912   1.946   5.999  0.6116  0.6620 -1.2245
 5102TIP3    H236722   1.024   1.961   6.100 -2.8257  0.6238  2.8627
 5103TIP3   OH236723   2.078   1.376   3.273 -0.6908 -0.5281  0.0709
 5103TIP3    H136724   2.019   1.319   3.322 -2.1823  1.5406  0.8239
 5103TIP3    H236725   2.062   1.353   3.181  0.0813 -2.5024  0.3740
 5104TIP3   OH236726   3.649   5.060  13.059 -0.5971 -0.0685  0.2396
 5104TIP3    H136727   3.617   5.139  13.103  1.8563  1.4186 -0.4328
 5104TIP3    H236728   3.735   5.044  13.099  1.2086  0.6345 -2.9863
 5105TIP3   OH236729   5.956   4.797  16.885  0.4525 -0.1985 -0.2379
 5105TIP3    H136730   5.925   4.811  16.795  1.1266  2.5611 -0.1143
 5105TIP3    H236731   5.885   4.748  16.927 -0.5375 -0.2547 -1.8803
 5106TIP3   OH236732   5.911   2.300   2.464  0.3542 -0.4770  0.1862
 5106TIP3    H136733   5.976   2.301   2.394 -1.0212 -0.9684 -1.1669
 5106TIP3    H236734   5.925   2.218   2.509  0.9974 -0.3461  0.2346
 5107TIP3   OH236735   2.854   3.589   1.756  0.4623  0.0005  0.3890
 5107TIP3    H136736   2.828   3.501   1.730 -0.5186 -0.2934  2.2076
 5107TIP3    H236737   2.771   3.639   1.757  1.0768  1.1385 -1.2140
 5108TIP3   OH236738   6.443   1.021  12.137 -0.5165  0.3882  0.5368
 5108TIP3    H136739   6.432   1.111  12.108 -0.6680  0.5777  1.1790
 5108TIP3    H236740   6.422   1.022  12.230 -0.7178 -0.3473  0.5099
 5109TIP3   OH236741   0.606   2.805   1.729  0.1204  0.4723  0.4028
 5109TIP3    H136742   0.563   2.876   1.682 -0.4424 -0.0971  0.0422
 5109TIP3    H236743   0.642   2.846   1.808  0.3813  1.2755 -0.1288
 5110TIP3   OH236744   3.471   2.797  15.894 -0.3726  0.1481 -0.2651
 5110TIP3    H136745   3.519   2.825  15.816  1.2189 -1.1010  0.2134
 5110TIP3    H236746   3.529   2.820  15.967 -0.1286 -2.0168  0.2852
 5111TIP3   OH236747   6.103   6.297  16.790 -0.6244  0.0814 -0.6636
 5111TIP3    H136748   6.092   6.373  16.848 -0.1136 -1.2815  1.3398
 5111TIP3    H236749   6.090   6.332  16.702 -1.7479  2.2158  0.2628
 5112TIP3   OH236750   3.391   1.522  13.649 -0.5636 -0.2056 -1.0700
 5112TIP3    H136751   3.444   1.515  13.729  0.2877 -1.7406 -1.7272
 5112TIP3    H236752   3.336   1.599  13.664 -1.0233 -0.8972  1.3545
 5113TIP3   OH236753   5.248   0.927  15.993 -0.2298  0.0175  0.3791
 5113TIP3    H136754   5.206   0.859  16.046  1.4074 -0.3247  1.3034
 5113TIP3    H236755   5.296   0.879  15.926 -0.3126  0.3540  0.0715
 5114TIP3   OH236756   2.278   0.417   5.955  0.0721 -0.3532  0.1541
 5114TIP3    H136757   2.371   0.422   5.930 -0.2775 -0.2615 -1.2526
 5114TIP3    H236758   2.244   0.505   5.939 -0.5569 -0.7375 -0.7248
 5115TIP3   OH236759   1.615   2.226   1.804 -0.4845  0.4986 -0.0238
 5115TIP3    H136760   1.654   2.314   1.802  0.4316  0.1021 -0.5906
 5115TIP3    H236761   1.653   2.185   1.882 -1.2840  0.7590  0.5110
 5116TIP3   OH236762   5.800   2.446  15.189  0.2367  0.3634  0.0747
 5116TIP3    H136763   5.853   2.489  15.255 -1.0220 -1.0826  2.1557
 5116TIP3    H236764   5.862   2.422  15.120  2.0008  0.1870  1.6378
 5117TIP3   OH236765   4.321   5.033   5.869 -0.1365  0.3660 -0.1654
 5117TIP3    H136766   4.247   5.021   5.809 -0.3444  0.1228  0.1388
 5117TIP3    H236767   4.300   4.979   5.944 -0.1487  1.1183  0.3850
 5118TIP3   OH236768   6.166   6.731  17.140  0.2808 -0.1383 -0.2272
 5118TIP3    H136769   6.174   6.693  17.227  1.3506  1.0059  0.2032
 5118TIP3    H236770   6.249   6.776  17.125 -0.7131  1.6177 -0.8839
 5119TIP3   OH236771   1.590   1.038  11.958  0.1449  0.3002 -0.0677
 5119TIP3    H136772   1.540   1.118  11.937 -0.1562 -0.1218 -1.0071
 5119TIP3    H236773   1.681   1.067  11.960 -0.0750  0.9846  1.1893
 5120TIP3   OH236774   5.523   3.448  16.170  0.1671 -0.6102  0.1137
 5120TIP3    H136775   5.451   3.447  16.108  0.3463 -0.7194 -0.0941
 5120TIP3    H236776   5.492   3.397  16.245  0.2044 -1.0681 -0.1777
 5121TIP3   OH236777   1.329   5.550   1.435 -0.6753  0.4585  0.1252
 5121TIP3    H136778   1.413   5.591   1.457 -0.6418 -0.0256  0.9370
 5121TIP3    H236779   1.349   5.490   1.364 -0.8565  2.3592 -1.6248
 5122TIP3   OH236780   0.440   1.253  15.229 -0.0024 -0.0654 -0.1890
 5122TIP3    H136781   0.496   1.302  15.289  0.9890 -0.4933 -0.7194
 5122TIP3    H236782   0.411   1.177  15.279 -0.0462  0.1315  0.0791
 5123TIP3   OH236783   4.726   0.313   2.028  0.1368  0.6895 -0.0328
 5123TIP3    H136784   4.721   0.301   2.123  1.7230  1.5613  0.2018
 5123TIP3    H236785   4.635   0.320   2.000 -0.3807 -0.1226  1.3475
 5124TIP3   OH236786   1.250   5.783  11.760 -0.2049 -0.2235 -0.0693
 5124TIP3    H136787   1.277   5.787  11.668  2.2213 -0.0595  0.5893
 5124TIP3    H236788   1.156   5.764  11.756 -0.4881  1.2829 -2.5791
 5125TIP3   OH236789   4.140   0.055  15.883  0.2366 -0.0840  0.2558
 5125TIP3    H136790   4.045   0.068  15.883  0.3029  0.6305 -1.3745
 5125TIP3    H236791   4.169   0.090  15.799  1.9967 -0.0311  0.8471
 5126TIP3   OH236792   4.293   0.072  12.372  0.7868 -0.7397 -0.1431
 5126TIP3    H136793   4.230   0.042  12.437 -3.1770  1.6471 -2.4622
 5126TIP3    H236794   4.276   0.017  12.295 -0.9454  1.9042 -1.8221
 5127TIP3   OH236795   5.592   5.135   4.038 -0.5931  0.5708 -0.2495
 5127TIP3    H136796   5.564   5.050   4.004 -1.4535  0.5257  0.5218
 5127TIP3    H236797   5.686   5.138   4.022 -0.7536  0.0033 -1.4141
 5128TIP3   OH236798   2.008   5.158  12.943 -0.1253 -0.1541 -0.0512
 5128TIP3    H136799   1.996   5.068  12.911  0.0041 -0.1456 -0.1267
 5128TIP3    H236800   2.034   5.207  12.865 -0.6279  0.0417 -0.1012
 5129TIP3   OH236801   1.569   3.506  12.635 -0.1261 -0.4700  0.0855
 5129TIP3    H136802   1.639   3.457  12.590  1.2064  0.5435  0.9908
 5129TIP3    H236803   1.528   3.442  12.692  0.2624 -1.0088 -0.2281
 5130TIP3   OH236804   6.540   4.289  12.081  0.4823  0.3876  0.1236
 5130TIP3    H136805   6.450   4.276  12.111  0.4311 -1.9104 -0.8284
 5130TIP3    H236806   6.580   4.343  12.149 -1.0298 -0.3323  1.6771
 5131TIP3   OH236807   1.626   5.893  14.898 -0.2853  0.1487 -0.5922
 5131TIP3    H136808   1.649   5.830  14.967 -0.8431  0.1047 -0.4462
 5131TIP3    H236809   1.628   5.842  14.817  2.5701  0.6567 -0.9517
 5132TIP3   OH236810   3.402   4.451  14.796  0.3088  0.4893  0.5269
 5132TIP3    H136811   3.492   4.475  14.771  1.0126 -1.6464  0.8397
 5132TIP3    H236812   3.402   4.355  14.796 -2.4893  0.3795 -1.2346
 5133TIP3   OH236813   1.108   0.875   4.983  0.2651  0.2191  0.2099
 5133TIP3    H136814   1.195   0.856   5.017  1.0123 -0.4856 -1.9433
 5133TIP3    H236815   1.115   0.963   4.946  0.2422 -0.0843 -0.5198
 5134TIP3   OH236816   1.236   1.755   4.684 -0.2717 -0.0807 -0.6389
 5134TIP3    H136817   1.182   1.706   4.622  0.4349 -1.3047 -0.3186
 5134TIP3    H236818   1.173   1.804   4.737 -0.9756 -0.3750 -1.1813
 5135TIP3   OH236819   2.524   5.620   5.377  0.1787 -0.5295  0.3893
 5135TIP3    H136820   2.525   5.631   5.282 -0.5785  0.6111  0.4923
 5135TIP3    H236821   2.439   5.581   5.396  0.8242 -1.9359  0.5100
 5136TIP3   OH236822   0.944   5.643  14.844  0.3221 -0.1335  0.0829
 5136TIP3    H136823   0.884   5.663  14.916 -0.0260 -0.1508 -0.1989
 5136TIP3    H236824   0.889   5.642  14.766  0.4169 -1.6005 -0.0035
 5137TIP3   OH236825   5.347   2.809  12.372 -0.3055  0.0210  0.1551
 5137TIP3    H136826   5.384   2.803  12.460  0.7623  1.3006 -0.1711
 5137TIP3    H236827   5.413   2.768  12.316  0.1321  1.3201 -0.3083
 5138TIP3   OH236828   2.549   0.168  12.323 -0.5530 -0.0986 -0.5194
 5138TIP3    H136829   2.562   0.127  12.238 -2.5158 -0.9368 -0.4686
 5138TIP3    H236830   2.485   0.237  12.307 -0.7727 -0.1182  0.2256
 5139TIP3   OH236831   1.157   2.176  12.543 -0.6720 -0.5721  0.6147
 5139TIP3    H136832   1.112   2.260  12.547 -0.3753 -0.3952  0.2932
 5139TIP3    H236833   1.237   2.188  12.595  0.1493 -0.1594 -0.6997
 5140TIP3   OH236834   0.682   4.657  12.940 -0.2057 -0.3044  0.1816
 5140TIP3    H136835   0.762   4.663  12.992 -0.6107 -0.5277  0.8326
 5140TIP3    H236836   0.700   4.586  12.877  0.9944  1.1976 -1.2595
 5141TIP3   OH236837   3.293   3.589  12.875 -0.3998 -0.0463  0.0840
 5141TIP3    H136838   3.336   3.506  12.853  0.8241  0.4706  0.4345
 5141TIP3    H236839   3.248   3.614  12.794  1.2085  0.1176 -0.8109
 5142TIP3   OH236840   5.115   5.017   0.407 -0.5463  0.0565  0.1476
 5142TIP3    H136841   5.076   4.952   0.349  0.1702  0.3208 -0.6595
 5142TIP3    H236842   5.209   5.005   0.396 -0.3988  0.3137  1.0412
 5143TIP3   OH236843   1.493   6.198  14.085 -0.0008 -0.1591  0.1639
 5143TIP3    H136844   1.544   6.159  14.014  2.6396  0.8279  1.3768
 5143TIP3    H236845   1.500   6.136  14.157 -0.0909  0.2167  0.5019
 5144TIP3   OH236846   1.789   5.246  17.284  0.4096  0.2331  0.2995
 5144TIP3    H136847   1.736   5.225  17.207 -0.2697  1.0829  0.5095
 5144TIP3    H236848   1.725   5.275  17.349  0.9006 -1.0789  1.4177
 5145TIP3   OH236849   2.487   4.169   1.040 -0.3551 -0.2188 -0.1592
 5145TIP3    H136850   2.562   4.177   0.981 -0.3302 -0.7654 -0.2021
 5145TIP3    H236851   2.519   4.113   1.111 -0.2814  0.6811  0.5392
 5146TIP3   OH236852   1.568   5.858  12.213  0.1623 -0.3076  0.4048
 5146TIP3    H136853   1.581   5.852  12.119 -1.3195  2.2160 -0.0502
 5146TIP3    H236854   1.639   5.914  12.244  0.9666 -1.5719  0.9104
 5147TIP3   OH236855   2.833   2.630   2.424 -0.3811  0.2974 -0.6026
 5147TIP3    H136856   2.910   2.676   2.458  0.4579 -1.3249 -0.2419
 5147TIP3    H236857   2.867   2.574   2.354 -0.9419 -1.6369  0.6197
 5148TIP3   OH236858   6.276   0.727   1.505  0.2776 -0.0621 -0.6164
 5148TIP3    H136859   6.288   0.649   1.558  1.5543  0.0987 -0.6321
 5148TIP3    H236860   6.258   0.797   1.568  1.3154  0.0371 -0.4184
 5149TIP3   OH236861   2.960   0.019  13.095  0.2749  0.0227 -0.2267
 5149TIP3    H136862   3.022  -0.020  13.157  0.3239 -0.3348 -0.5005
 5149TIP3    H236863   2.875  -0.014  13.123  0.2383  0.2729 -0.0362
 5150TIP3   OH236864   0.245   1.285   4.577 -0.0299  0.1075  0.0006
 5150TIP3    H136865   0.155   1.284   4.610  0.0606  0.7160  0.2822
 5150TIP3    H236866   0.293   1.339   4.640 -0.1153  2.4165 -1.7897
 5151TIP3   OH236867   4.252   5.039   3.024  0.2973 -0.5655  0.4907
 5151TIP3    H136868   4.336   5.076   3.054 -0.4223  0.4893  1.3039
 5151TIP3    H236869   4.276   4.956   2.983  1.7024 -0.4862  1.0686
 5152TIP3   OH236870   3.860   5.799   0.454  0.1053  0.3360 -0.0171
 5152TIP3    H136871   3.814   5.770   0.374 -1.2729  0.2896  0.7603
 5152TIP3    H236872   3.880   5.717   0.500  1.2811  0.3367 -0.4871
 5153TIP3   OH236873   5.221   6.015  12.397  0.0214 -0.4677 -0.1660
 5153TIP3    H136874   5.236   5.926  12.367 -0.5277 -0.7427  0.3716
 5153TIP3    H236875   5.295   6.034  12.455 -0.9094 -1.3148  1.3491
 5154TIP3   OH236876   0.824   4.998   1.875  0.5839 -0.2888 -0.5960
 5154TIP3    H136877   0.742   4.963   1.840  0.2789  0.9035 -1.1215
 5154TIP3    H236878   0.809   5.005   1.970 -0.3893  1.0546 -0.8200
 5155TIP3   OH236879   2.502   2.298   1.038 -0.1839 -0.4316  0.4468
 5155TIP3    H136880   2.441   2.225   1.042 -0.5184 -0.1863 -0.1312
 5155TIP3    H236881   2.584   2.260   1.008 -0.8346 -0.2970 -1.6596
 5156TIP3   OH236882   6.494   3.363   5.746  0.3244 -0.1805 -0.0129
 5156TIP3    H136883   6.561   3.303   5.714 -0.5731 -0.6895 -0.9828
 5156TIP3    H236884   6.475   3.333   5.835 -0.3363 -1.5580 -0.5905
 5157TIP3   OH236885   6.211   2.080   5.032 -0.3776 -0.0203 -0.6316
 5157TIP3    H136886   6.297   2.117   5.016 -0.7008 -0.3648 -3.6329
 5157TIP3    H236887   6.210   2.061   5.126  3.6730 -2.1317 -0.8030
 5158TIP3   OH236888   6.380   5.283   5.205 -0.1211 -0.3083 -0.5415
 5158TIP3    H136889   6.466   5.242   5.194 -0.8324 -1.9655 -0.1411
 5158TIP3    H236890   6.374   5.301   5.299 -1.2010 -2.5593 -0.1262
 5159TIP3   OH236891   3.467   6.519  14.689 -0.1052 -0.5503 -0.1133
 5159TIP3    H136892   3.389   6.568  14.663 -0.1024 -0.7551 -0.5165
 5159TIP3    H236893   3.506   6.571  14.759  0.2252  0.3426 -0.9261
 5160TIP3   OH236894   2.187   6.434   1.203  0.0536 -0.2154 -0.2717
 5160TIP3    H136895   2.249   6.503   1.224 -0.7357  0.7876 -1.1097
 5160TIP3    H236896   2.241   6.360   1.176  0.8991  0.9460 -1.9168
 5161TIP3   OH236897   2.388   2.028  15.945 -0.3506 -0.4498  0.2668
 5161TIP3    H136898   2.418   2.107  15.989 -0.4191  1.3340 -2.5831
 5161TIP3    H236899   2.449   2.017  15.871 -1.9087 -1.5040 -0.9292
 5162TIP3   OH236900   2.091   2.548   3.977 -0.5597  0.0644  0.3033
 5162TIP3    H136901   2.055   2.493   3.907 -0.2060  1.7800 -1.3200
 5162TIP3    H236902   2.155   2.492   4.021 -0.3656 -0.8965 -1.1303
 5163TIP3   OH236903   0.877   6.640   1.958 -0.0500 -0.5588 -0.5766
 5163TIP3    H136904   0.795   6.592   1.946 -1.7046  1.3133  2.1940
 5163TIP3    H236905   0.885   6.693   1.878 -1.8615 -0.3664 -0.6732
 5164TIP3   OH236906   4.766   2.276   6.472  0.1592 -0.2709  0.1408
 5164TIP3    H136907   4.694   2.223   6.505 -1.2725  1.3935 -0.1878
 5164TIP3    H236908   4.725   2.355   6.439  1.9814  0.0772 -1.5049
 5165TIP3   OH236909   2.339   3.123  16.746  0.1417 -0.1861 -0.3474
 5165TIP3    H136910   2.364   3.071  16.669 -0.0508 -2.8753  1.2749
 5165TIP3    H236911   2.244   3.117  16.750  0.1910 -0.5825  0.4144
 5166TIP3   OH236912   4.199   4.215   6.471 -0.2299 -0.0517  0.8396
 5166TIP3    H136913   4.130   4.281   6.466 -0.6814 -0.6157 -1.3459
 5166TIP3    H236914   4.263   4.241   6.404  1.4633  0.1697  2.4527
 5167TIP3   OH236915   6.295   0.537  12.196  0.5533  0.0280  0.0871
 5167TIP3    H136916   6.203   0.563  12.191  0.2832 -0.9143 -0.0304
 5167TIP3    H236917   6.338   0.610  12.239 -0.3509  0.2547  0.6397
 5168TIP3   OH236918   6.471   0.012   5.348  0.1201 -0.4818 -0.0323
 5168TIP3    H136919   6.407   0.048   5.287 -0.7488 -1.8070  0.0593
 5168TIP3    H236920   6.489   0.084   5.409 -1.7003 -0.2338  0.2595
 5169TIP3   OH236921   1.547   2.674   6.656 -0.2422 -0.1391  0.3820
 5169TIP3    H136922   1.457   2.648   6.637 -0.8209  0.7548  1.7097
 5169TIP3    H236923   1.545   2.770   6.658  0.6243 -0.1186  0.9289
 5170TIP3   OH236924   0.717   1.094   2.414 -0.4470  0.4555 -0.4940
 5170TIP3    H136925   0.735   1.186   2.399  1.6052 -0.0737 -1.7791
 5170TIP3    H236926   0.641   1.075   2.360 -0.9554  1.4001 -0.1273
 5171TIP3   OH236927   6.628   3.524  16.924  0.1540  0.4862  0.1669
 5171TIP3    H136928   6.636   3.607  16.878  0.7224  0.9310  1.0385
 5171TIP3    H236929   6.615   3.549  17.016 -0.5743 -0.3773  0.3110
 5172TIP3   OH236930   2.492   1.510  11.590 -0.6603  0.2669 -0.6466
 5172TIP3    H136931   2.470   1.431  11.639 -0.7803  0.5334 -0.2718
 5172TIP3    H236932   2.470   1.582  11.648 -2.1609  0.6356 -1.6008
 5173TIP3   OH236933   6.727   3.018   6.003  0.3128  0.2300  0.6593
 5173TIP3    H136934   6.641   3.023   6.046 -0.2153  0.3820 -0.3806
 5173TIP3    H236935   6.751   3.109   5.987  1.2297  0.2438  1.9917
 5174TIP3   OH236936   1.922   5.370   5.756  0.1409  0.1030 -0.3507
 5174TIP3    H136937   1.976   5.431   5.805  0.0874  0.7362 -1.0609
 5174TIP3    H236938   1.871   5.324   5.823  0.5141  0.5060  0.2205
 5175TIP3   OH236939   2.072   3.509  16.494  0.5397 -0.0673  0.7662
 5175TIP3    H136940   2.059   3.420  16.526  0.2549 -0.5703 -0.6580
 5175TIP3    H236941   2.058   3.564  16.570  0.7349 -1.2388  1.6865
 5176TIP3   OH236942   2.333   0.767   2.024 -0.5227 -0.2453  0.2055
 5176TIP3    H136943   2.323   0.675   2.002 -1.7590 -0.9836  3.3095
 5176TIP3    H236944   2.397   0.768   2.095 -1.9293  1.0293  1.5198
 5177TIP3   OH236945   0.116   1.513  13.890  0.6653  0.6815  0.1148
 5177TIP3    H136946   0.196   1.560  13.912  0.9689  0.7485 -1.0576
 5177TIP3    H236947   0.047   1.578  13.900  1.0193  1.2396 -0.9382
 5178TIP3   OH236948   0.307   1.182  12.392 -0.2081 -0.3729  0.0840
 5178TIP3    H136949   0.259   1.112  12.437  0.5744 -1.3315 -0.5202
 5178TIP3    H236950   0.333   1.242  12.462 -0.2922 -1.0609  0.7134
 5179TIP3   OH236951   2.959   0.678  15.553 -0.4055 -0.1352 -0.0774
 5179TIP3    H136952   3.049   0.709  15.544 -0.0825 -1.1472 -0.5550
 5179TIP3    H236953   2.916   0.743  15.608  0.8462 -0.0721  0.8795
 5180TIP3   OH236954   0.181   1.479   0.058  0.3402  0.0384 -0.2000
 5180TIP3    H136955   0.197   1.515  -0.029  2.0092 -0.3211 -0.0775
 5180TIP3    H236956   0.152   1.389   0.042 -0.1484  0.2314 -0.4036
 5181TIP3   OH236957   3.863   1.344   4.147  0.1283  0.3412 -0.3173
 5181TIP3    H136958   3.866   1.260   4.191  2.6757  1.2785  1.5098
 5181TIP3    H236959   3.892   1.326   4.058  0.7734 -0.7219  0.0915
 5182TIP3   OH236960   2.263   2.943   5.670  0.0444  0.0410  0.2446
 5182TIP3    H136961   2.334   2.976   5.725  0.2413 -0.1733  0.1207
 5182TIP3    H236962   2.306   2.914   5.590 -0.4020  1.5529 -0.5601
 5183TIP3   OH236963   4.361   1.140  13.278  0.2387  0.3634  0.2515
 5183TIP3    H136964   4.326   1.189  13.353 -1.1367  0.8951 -0.6868
 5183TIP3    H236965   4.432   1.195  13.245  0.4612  0.4145  0.7952
 5184TIP3   OH236966   3.351   6.477  13.124 -0.0855 -0.1313  0.2208
 5184TIP3    H136967   3.301   6.408  13.080  0.0433  0.5340 -1.0303
 5184TIP3    H236968   3.401   6.518  13.054  0.9884  0.2641  1.1917
 5185TIP3   OH236969   2.429   0.099   6.249 -0.3564 -0.5934  0.8644
 5185TIP3    H136970   2.518   0.082   6.279 -1.0769 -0.7912  3.0529
 5185TIP3    H236971   2.426   0.060   6.161  1.7792 -0.2854  0.5933
 5186TIP3   OH236972   1.343   3.510  13.651 -0.0413  0.3063 -0.0545
 5186TIP3    H136973   1.286   3.581  13.623 -1.2571  0.4601  2.5873
 5186TIP3    H236974   1.300   3.472  13.727  2.1227 -1.2793  0.4924
 5187TIP3   OH236975   5.462   3.179   0.400  0.0307  0.0571  0.1780
 5187TIP3    H136976   5.463   3.178   0.496  0.8098 -1.3250  0.1890
 5187TIP3    H236977   5.378   3.140   0.376 -0.0433  0.1356  0.3112
 5188TIP3   OH236978   6.436   6.373  16.715  0.1460 -0.0742  0.2985
 5188TIP3    H136979   6.509   6.313  16.730 -1.3267 -1.9920  0.2545
 5188TIP3    H236980   6.392   6.338  16.638 -1.5108  0.2652  1.0410
 5189TIP3   OH236981   4.281   4.853   1.327 -0.3191 -0.5602 -0.7654
 5189TIP3    H136982   4.254   4.854   1.235  0.1459 -1.7556 -0.9434
 5189TIP3    H236983   4.284   4.759   1.349 -1.3270 -0.2707  0.7395
 5190TIP3   OH236984   4.820   6.715  11.554  0.3423  0.3560 -0.3819
 5190TIP3    H136985   4.762   6.646  11.520  0.9246 -1.0465  1.2952
 5190TIP3    H236986   4.770   6.754  11.626  0.5609  0.7731 -0.4554
 5191TIP3   OH236987   3.643   5.377  17.031  0.2332  0.9452 -0.6939
 5191TIP3    H136988   3.682   5.462  17.009  0.5593  0.7494 -0.8875
 5191TIP3    H236989   3.666   5.320  16.957  0.4290  0.5642 -0.3462
 5192TIP3   OH236990   2.807   3.477   4.559  0.4206 -0.4231 -0.0364
 5192TIP3    H136991   2.719   3.439   4.558  0.5521 -0.7319 -0.1851
 5192TIP3    H236992   2.834   3.476   4.467  0.6447 -0.4859  0.0296
 5193TIP3   OH236993   4.539   4.111  16.602 -0.2074  0.1503  0.0447
 5193TIP3    H136994   4.609   4.053  16.634  0.8592  0.3669 -1.7792
 5193TIP3    H236995   4.583   4.195  16.587 -0.8572  0.2916 -1.1359
 5194TIP3   OH236996   5.807   4.913   4.963  0.1415 -0.5395 -0.9069
 5194TIP3    H136997   5.771   4.983   4.907  1.4110  0.7026 -0.2375
 5194TIP3    H236998   5.898   4.938   4.976 -0.4062  0.0685  2.9371
 5195TIP3   OH236999   2.512   2.155   5.264  0.2483  0.2883 -0.0645
 5195TIP3    H137000   2.437   2.192   5.311  0.9610  1.2027  0.4044
 5195TIP3    H237001   2.474   2.103   5.194 -0.8234  0.3942  0.4220
 5196TIP3   OH237002   3.606   2.642   3.370 -0.3987 -0.0211  0.4913
 5196TIP3    H137003   3.520   2.656   3.329  0.7367 -0.2628 -2.1861
 5196TIP3    H237004   3.649   2.727   3.364 -0.0955 -0.1418  0.9568
 5197TIP3   OH237005   4.233   4.036  11.030  0.0941 -0.1194 -0.0241
 5197TIP3    H137006   4.232   3.962  10.970 -1.9279 -0.8000  0.7633
 5197TIP3    H237007   4.243   4.113  10.973 -1.0320 -0.7908 -1.1925
 5198TIP3   OH237008   1.090   0.613  16.621  0.0036 -0.3014  0.1620
 5198TIP3    H137009   1.083   0.708  16.614 -1.6551 -0.4099 -0.1724
 5198TIP3    H237010   1.029   0.580  16.554 -1.6679 -1.5570  2.1693
 5199TIP3   OH237011   3.859   5.975   5.591 -0.0216  0.4597 -0.2669
 5199TIP3    H137012   3.769   5.999   5.615 -0.9656 -0.3743 -2.5990
 5199TIP3    H237013   3.900   5.949   5.673 -2.5965 -1.1184  0.6311
 5200TIP3   OH237014   2.648   0.233   5.146 -0.1989  0.4282 -0.1520
 5200TIP3    H137015   2.717   0.277   5.196 -1.0025  2.5343 -0.7806
 5200TIP3    H237016   2.657   0.268   5.057 -0.6452 -1.0232 -0.7910
 5201TIP3   OH237017   6.733   5.944   2.867  0.0190 -0.3823  0.4225
 5201TIP3    H137018   6.770   5.917   2.951 -0.1228 -1.4059  0.1621
 5201TIP3    H237019   6.642   5.968   2.887  0.2475  0.2748  0.7154
 5202TIP3   OH237020   3.224   4.740   4.144 -0.3290 -0.2855 -0.1638
 5202TIP3    H137021   3.204   4.702   4.229 -0.5768 -0.1924 -0.1810
 5202TIP3    H237022   3.255   4.828   4.163  0.6888 -0.6448 -0.0892
 5203TIP3   OH237023   0.729   2.014  16.475  0.3641 -0.3722 -0.3537
 5203TIP3    H137024   0.648   1.981  16.513 -0.7782  1.6074 -0.9270
 5203TIP3    H237025   0.749   1.953  16.405  2.0165 -3.5868  2.6176
 5204TIP3   OH237026   1.115   0.986  12.460  0.2743  0.3791 -0.1691
 5204TIP3    H137027   1.180   0.918  12.478 -2.2869 -1.7431  2.1810
 5204TIP3    H237028   1.089   0.971  12.370 -0.1193 -1.7686  0.2470
 5205TIP3   OH237029   3.254   5.671  12.325  0.2209 -0.2680 -0.3441
 5205TIP3    H137030   3.186   5.693  12.389 -1.3281 -1.3981 -1.5344
 5205TIP3    H237031   3.240   5.579  12.305  1.2571 -0.1788 -1.6319
 5206TIP3   OH237032   0.005   0.625  14.888 -0.2418  0.3613  0.2523
 5206TIP3    H137033  -0.014   0.718  14.902 -1.1151  0.3197 -0.6054
 5206TIP3    H237034  -0.047   0.601  14.812 -0.7950 -1.0861  1.0599
 5207TIP3   OH237035   0.713   0.873  14.874 -0.5228  0.0486  0.0478
 5207TIP3    H137036   0.755   0.813  14.935  0.7155  1.2600  0.4315
 5207TIP3    H237037   0.636   0.905  14.922 -0.0923  0.2632  0.6034
 5208TIP3   OH237038   0.330   2.508  14.987  0.6036 -0.2552 -0.6193
 5208TIP3    H137039   0.315   2.420  15.021 -1.4857  0.2294 -0.1066
 5208TIP3    H237040   0.289   2.566  15.052 -2.0834  0.8023 -3.0238
 5209TIP3   OH237041   3.276   1.071  12.612 -0.2034 -0.3898  0.2143
 5209TIP3    H137042   3.352   1.102  12.661 -1.2319 -1.0680  2.3788
 5209TIP3    H237043   3.265   0.980  12.640 -1.3756 -0.5211 -0.5974
 5210TIP3   OH237044   3.329   1.454   4.243 -0.0381 -0.2294  0.1161
 5210TIP3    H137045   3.308   1.479   4.152  0.7921 -0.5175 -0.1581
 5210TIP3    H237046   3.416   1.415   4.238 -0.4488 -1.2672  0.8699
 5211TIP3   OH237047   4.305   2.986   3.585  0.2709  0.1406  0.1467
 5211TIP3    H137048   4.256   3.003   3.505 -0.4627  2.7384  1.0570
 5211TIP3    H237049   4.242   2.945   3.644  0.0102  0.7669  0.3110
 5212TIP3   OH237050   6.391   0.392  14.614 -1.1527  0.4370 -0.0562
 5212TIP3    H137051   6.370   0.455  14.683 -0.6509 -0.5358  1.0156
 5212TIP3    H237052   6.476   0.357  14.639 -0.9885  0.0257 -1.1521
 5213TIP3   OH237053   2.613   1.552  16.078  0.0907 -0.2669 -0.3190
 5213TIP3    H137054   2.668   1.534  16.154 -1.1056 -1.3538  0.3254
 5213TIP3    H237055   2.603   1.467  16.036  0.0108  0.1745 -1.2000
 5214TIP3   OH237056   4.468   6.231   3.454  0.0870  0.1272 -0.2530
 5214TIP3    H137057   4.438   6.195   3.537  1.7121 -1.0234 -0.1199
 5214TIP3    H237058   4.543   6.177   3.429 -1.7047 -1.0889 -3.6735
 5215TIP3   OH237059   2.839   5.717  16.886  0.0923  0.0233 -0.1442
 5215TIP3    H137060   2.810   5.669  16.808  0.5988 -0.9816  0.2588
 5215TIP3    H237061   2.833   5.652  16.957  0.4023  0.6899  0.4989
 5216TIP3   OH237062   0.929   4.963   0.915  0.1063  0.2025 -0.2362
 5216TIP3    H137063   0.868   5.034   0.896 -0.1176  0.1721  0.3499
 5216TIP3    H237064   0.973   4.989   0.996  1.3171  0.5066 -0.9718
 5217TIP3   OH237065   3.737   0.832  16.081  0.4796 -0.0758 -0.0595
 5217TIP3    H137066   3.705   0.900  16.022 -0.5508 -0.8796 -0.4639
 5217TIP3    H237067   3.732   0.871  16.168 -0.0491  0.3852 -0.2930
 5218TIP3   OH237068   4.694   0.061  13.926 -0.4647 -0.1161  0.9059
 5218TIP3    H137069   4.689   0.067  13.830  1.3457  1.6780  0.8701
 5218TIP3    H237070   4.638  -0.014  13.948 -2.1565  0.3432 -1.4065
 5219TIP3   OH237071   2.938   3.682   6.634  0.4716 -0.2419 -0.2713
 5219TIP3    H137072   2.995   3.654   6.705 -1.4020 -1.3848  0.8667
 5219TIP3    H237073   2.994   3.734   6.577  2.3420 -0.3562  1.3716
 5220TIP3   OH237074   1.542   4.899   4.712 -0.1847 -0.8178  0.8640
 5220TIP3    H137075   1.488   4.848   4.651  0.8085  2.2371 -2.9506
 5220TIP3    H237076   1.631   4.866   4.700  0.2701  0.8339 -0.7192
 5221TIP3   OH237077   5.874   1.312   6.574  0.1317  0.3876 -0.3628
 5221TIP3    H137078   5.805   1.259   6.533 -1.4227  0.5473  1.8444
 5221TIP3    H237079   5.907   1.367   6.503 -1.1251 -0.6138 -1.7945
 5222TIP3   OH237080   0.602   6.418  13.291  0.3204  0.1247  0.5042
 5222TIP3    H137081   0.577   6.468  13.368 -1.8086 -1.2437  0.8004
 5222TIP3    H237082   0.667   6.472  13.247  0.3190  1.7272  2.3417
 5223TIP3   OH237083   1.134   0.787   0.255  0.1454  0.4727  0.2156
 5223TIP3    H137084   1.044   0.819   0.253 -0.5523 -1.4066 -0.2088
 5223TIP3    H237085   1.126   0.694   0.273  1.9880  0.1417 -0.4494
 5224TIP3   OH237086   1.185   5.479   3.159 -0.1668 -0.2113 -0.4409
 5224TIP3    H137087   1.157   5.391   3.134 -1.9684  0.2207 -0.0455
 5224TIP3    H237088   1.270   5.490   3.115  1.0244 -2.8165  0.9537
 5225TIP3   OH237089   2.024   1.915  13.610  1.1138  0.2838 -0.1530
 5225TIP3    H137090   1.993   1.998  13.647  2.3693  1.0781 -0.8244
 5225TIP3    H237091   1.967   1.849  13.649  0.7274  1.3529  1.1852
 5226TIP3   OH237092   0.283   3.690   0.091 -0.3946 -0.3533  0.5542
 5226TIP3    H137093   0.376   3.708   0.075 -0.9769  1.7342 -0.9716
 5226TIP3    H237094   0.267   3.605   0.050  0.6426 -0.2804 -0.0300
 5227TIP3   OH237095   0.843   0.158  10.511  0.0302  0.0476 -0.2422
 5227TIP3    H137096   0.798   0.081  10.475 -0.6348  0.3601 -0.0869
 5227TIP3    H237097   0.773   0.213  10.547  0.4992  0.7351 -0.3603
 5228TIP3   OH237098   6.192   4.921  11.032 -0.2754 -0.4922  1.1974
 5228TIP3    H137099   6.130   4.904  10.961  1.1535 -1.5082  0.1267
 5228TIP3    H237100   6.222   4.834  11.058  1.3197  0.0050  1.1002
 5229TIP3   OH237101   3.268   0.637  12.262 -0.0319 -1.1296 -0.2529
 5229TIP3    H137102   3.259   0.556  12.213  3.1327 -1.8266  0.1219
 5229TIP3    H237103   3.333   0.617  12.330 -0.0411  1.3922  0.5971
 5230TIP3   OH237104   0.016   0.379   6.179 -0.2085  0.3514  0.2479
 5230TIP3    H137105  -0.003   0.310   6.243 -0.1319  0.0387 -0.0689
 5230TIP3    H237106   0.067   0.443   6.229 -0.8351  0.5044  0.7188
 5231TIP3   OH237107   4.541   0.670  12.824 -0.5937  0.0392 -0.0554
 5231TIP3    H137108   4.627   0.704  12.848 -1.8880  2.3778  1.7267
 5231TIP3    H237109   4.546   0.577  12.844  0.6934  0.6054  2.8903
 5232TIP3   OH237110   6.175   5.192  13.607 -0.3209  0.1379  0.3955
 5232TIP3    H137111   6.229   5.116  13.585 -0.8958 -0.2454  0.2937
 5232TIP3    H237112   6.207   5.219  13.693  1.1116  0.9017 -0.3546
 5233TIP3   OH237113   0.907   2.576  13.797  0.0608 -0.2546  0.1755
 5233TIP3    H137114   0.940   2.582  13.707  0.1218 -0.8201  0.1556
 5233TIP3    H237115   0.812   2.567  13.786  0.1222 -0.9175  0.1381
 5234TIP3   OH237116   5.780   5.538  13.304 -0.2433  0.4215 -0.2882
 5234TIP3    H137117   5.795   5.551  13.211  0.3693 -1.8086 -0.5637
 5234TIP3    H237118   5.685   5.523  13.312 -0.1550 -0.3770 -0.7041
 5235TIP3   OH237119   2.666   1.677   3.072 -0.4753  0.0321  0.0457
 5235TIP3    H137120   2.657   1.594   3.027 -0.8412  0.3220 -0.4257
 5235TIP3    H237121   2.755   1.676   3.108 -0.6168 -0.7299  0.3953
 5236TIP3   OH237122   3.442   1.046  16.517  0.2373 -0.1367  0.4610
 5236TIP3    H137123   3.453   1.139  16.538  1.1968 -0.2851  0.6755
 5236TIP3    H237124   3.367   1.043  16.458  0.3283  0.8050  0.2845
 5237TIP3   OH237125   0.630   2.632   5.561 -0.1217 -0.0772  0.0654
 5237TIP3    H137126   0.646   2.653   5.653 -4.1792 -1.3925  1.3011
 5237TIP3    H237127   0.640   2.537   5.556 -1.2158 -0.1794 -0.4721
 5238TIP3   OH237128   0.550   6.178  14.003 -0.3281  0.4230  0.7225
 5238TIP3    H137129   0.610   6.230  13.950  0.0524  0.8518  1.5466
 5238TIP3    H237130   0.495   6.243  14.048  0.5597  0.1643  2.2296
 5239TIP3   OH237131   2.620   6.630  14.308  0.1683 -0.5841  0.4867
 5239TIP3    H137132   2.671   6.611  14.386 -0.8651 -0.2012  1.2821
 5239TIP3    H237133   2.560   6.700  14.335  0.7503  0.5704 -1.0385
 5240TIP3   OH237134   4.689   0.267   6.278  0.2212  0.6059 -0.1545
 5240TIP3    H137135   4.619   0.299   6.336 -1.4454 -0.3783 -1.5437
 5240TIP3    H237136   4.769   0.299   6.319 -0.8782  0.0980  2.6155
 5241TIP3   OH237137   3.147   1.428   1.012  0.0187 -0.3744  0.0586
 5241TIP3    H137138   3.137   1.359   1.078  1.5445  0.7851  1.6141
 5241TIP3    H237139   3.153   1.509   1.063  0.8699  0.6162 -1.5382
 5242TIP3   OH237140   2.684   3.173   2.214 -0.6543 -0.5211 -0.1231
 5242TIP3    H137141   2.744   3.101   2.234 -0.8708 -0.3621  1.1843
 5242TIP3    H237142   2.711   3.244   2.273  0.9811  1.3204 -2.8280
 5243TIP3   OH237143   5.651   6.303  13.804 -0.1585  0.0070 -0.1691
 5243TIP3    H137144   5.685   6.380  13.757  0.8528  0.4648  1.2417
 5243TIP3    H237145   5.716   6.235  13.789  0.7835  0.4990  1.4670
 5244TIP3   OH237146   5.157   3.851   2.451  0.2870 -0.1132 -0.3100
 5244TIP3    H137147   5.072   3.895   2.453  0.0203 -0.5969 -0.6457
 5244TIP3    H237148   5.186   3.850   2.542  0.0247  0.2346 -0.2228
 5245TIP3   OH237149   3.492   0.940  12.896  0.1954 -0.1463  0.2843
 5245TIP3    H137150   3.513   1.028  12.865  0.1866  0.0912  0.9576
 5245TIP3    H237151   3.565   0.886  12.864 -0.0794 -0.0067 -0.6101
 5246TIP3   OH237152   0.897   2.870   2.381 -1.3911  0.0051 -0.4831
 5246TIP3    H137153   0.877   2.854   2.289 -1.8287  4.2063 -1.3285
 5246TIP3    H237154   0.992   2.857   2.388 -1.3620 -0.3694 -1.4818
 5247TIP3   OH237155   1.084   1.203  13.487 -0.3476  0.4786 -0.3287
 5247TIP3    H137156   1.041   1.229  13.568 -0.1128  0.4097 -0.1811
 5247TIP3    H237157   1.177   1.203  13.508 -0.3275 -0.1744 -0.4158
 5248TIP3   OH237158   1.202   6.279   4.464 -0.0869 -0.0343  0.0470
 5248TIP3    H137159   1.114   6.243   4.466 -0.0871 -0.1540 -1.2809
 5248TIP3    H237160   1.190   6.373   4.481 -0.4993 -0.0188 -0.3100
 5249TIP3   OH237161   1.786   2.988  16.758 -0.2909 -0.3268 -0.4069
 5249TIP3    H137162   1.750   2.909  16.717 -1.2687  0.3415 -0.8846
 5249TIP3    H237163   1.737   2.996  16.840 -0.4689 -0.0103 -0.5435
 5250TIP3   OH237164   3.650   0.934  13.147 -0.3059 -0.3496 -0.3017
 5250TIP3    H137165   3.730   0.935  13.094 -0.1364  0.9343 -0.0584
 5250TIP3    H237166   3.586   0.888  13.094 -0.1994  1.0704 -1.7263
 5251TIP3   OH237167   5.496   2.154  13.511  0.0266  0.4531  0.5895
 5251TIP3    H137168   5.559   2.224  13.493 -1.2385  1.4396 -0.1659
 5251TIP3    H237169   5.492   2.149  13.606  0.4342  1.1061  0.6439
 5252TIP3   OH237170   6.559   0.470   1.116 -0.4278 -0.1811 -0.0199
 5252TIP3    H137171   6.536   0.378   1.110 -0.1380 -0.3022  0.6079
 5252TIP3    H237172   6.555   0.490   1.210  1.8974 -0.2045  0.1443
 5253TIP3   OH237173   3.192   0.568  11.650 -0.2142  0.2209  0.3162
 5253TIP3    H137174   3.101   0.562  11.677 -0.2360 -0.8230  0.0534
 5253TIP3    H237175   3.221   0.653  11.683 -1.2664  0.5523  0.4237
 5254TIP3   OH237176   4.767   3.922  15.858 -0.5576  0.0620  0.8760
 5254TIP3    H137177   4.702   3.979  15.899 -1.4749 -0.5551  0.3130
 5254TIP3    H237178   4.748   3.835  15.891 -0.6881 -0.2875 -0.0775
 5255TIP3   OH237179   3.306   4.862   4.923  0.1369 -0.3614  0.2860
 5255TIP3    H137180   3.293   4.955   4.940 -0.6300 -0.6505  1.3349
 5255TIP3    H237181   3.401   4.852   4.918  0.2877  0.2477  1.5786
 5256TIP3   OH237182   6.245   4.464  11.936  1.1989  0.0592  0.3020
 5256TIP3    H137183   6.160   4.434  11.905  0.5737  0.1603  1.8301
 5256TIP3    H237184   6.250   4.555  11.908  0.8252  0.0345  0.1527
 5257TIP3   OH237185   0.923   0.549   4.113  0.5412  0.3172 -0.4371
 5257TIP3    H137186   0.978   0.621   4.145  2.7968 -1.4417 -0.0820
 5257TIP3    H237187   0.912   0.492   4.189  0.0207 -0.4272 -1.0565
 5258TIP3   OH237188   2.973   3.217  17.317  0.7591 -0.1373 -0.4593
 5258TIP3    H137189   3.050   3.274  17.314 -1.2015  2.7450 -0.1378
 5258TIP3    H237190   2.916   3.249  17.248 -0.8247 -1.1421  0.3121
 5259TIP3   OH237191   0.072   0.747   0.314  0.2683 -0.0005  0.4135
 5259TIP3    H137192   0.065   0.712   0.403  0.9966 -1.9295 -0.2279
 5259TIP3    H237193   0.116   0.677   0.265 -0.2455  0.9651 -1.4924
 5260TIP3   OH237194   3.266   0.739  14.613 -0.2304  0.4544  0.2422
 5260TIP3    H137195   3.358   0.720  14.596 -0.1026  1.4562 -0.2414
 5260TIP3    H237196   3.221   0.724  14.530 -0.2734  1.3059  0.1014
 5261TIP3   OH237197   0.722   4.691  11.345  0.0192  0.5914 -0.0113
 5261TIP3    H137198   0.631   4.712  11.323  0.1805  0.4609 -0.8099
 5261TIP3    H237199   0.750   4.632  11.276  0.9991  1.3347 -0.2660
 5262TIP3   OH237200   1.223   5.916   6.025  0.5734  0.2060  0.4855
 5262TIP3    H137201   1.185   5.904   5.938  1.5878  0.9898 -0.0851
 5262TIP3    H237202   1.152   5.893   6.085 -0.1274 -0.4068 -0.5394
 5263TIP3   OH237203   0.299   5.501   4.041 -0.1903  0.2056 -0.3379
 5263TIP3    H137204   0.289   5.496   4.136  0.6651  1.6153 -0.1522
 5263TIP3    H237205   0.339   5.417   4.017 -0.0139  0.0101  0.5969
 5264TIP3   OH237206   6.312   3.572  13.745  0.1102  0.0919 -1.2168
 5264TIP3    H137207   6.325   3.523  13.826  0.0212  0.2549 -1.1031
 5264TIP3    H237208   6.294   3.505  13.679 -2.0957  0.0633 -0.6549
 5265TIP3   OH237209   1.698   0.649  12.641 -0.5191 -0.2061 -0.0909
 5265TIP3    H137210   1.777   0.703  12.640 -0.8961  0.4319  1.1879
 5265TIP3    H237211   1.636   0.696  12.585 -0.7120  0.5114  0.6970
 5266TIP3   OH237212   5.607   3.186  15.035 -0.0296  0.4990  0.1395
 5266TIP3    H137213   5.519   3.172  15.000 -0.3202 -4.0805  1.9934
 5266TIP3    H237214   5.666   3.154  14.966  0.1762  2.1032 -0.4752
 5267TIP3   OH237215   0.243   1.328   6.656 -0.1387 -0.0513  0.4625
 5267TIP3    H137216   0.196   1.301   6.577 -2.5807  0.5809  1.5851
 5267TIP3    H237217   0.247   1.423   6.650  0.9435 -0.0871  0.4537
 5268TIP3   OH237218   0.464   1.074   5.991  0.5037  0.4070  0.3648
 5268TIP3    H137219   0.460   1.014   6.065  3.0998  0.6833  0.8297
 5268TIP3    H237220   0.427   1.156   6.025  1.7611  0.5648  1.4562
 5269TIP3   OH237221   3.777   0.231   1.724 -0.0276  0.3981  0.3890
 5269TIP3    H137222   3.736   0.231   1.811  2.0857 -2.3272  1.5674
 5269TIP3    H237223   3.870   0.245   1.742  0.1290  2.7946 -1.8113
 5270TIP3   OH237224   3.291   0.646  15.992 -0.2201 -0.1950 -0.1309
 5270TIP3    H137225   3.303   0.605  15.906  1.1106  1.1302 -0.6281
 5270TIP3    H237226   3.311   0.739  15.977 -0.7920  0.2228  1.4471
 5271TIP3   OH237227   6.163   1.752   1.376 -0.1143 -0.0582  0.2300
 5271TIP3    H137228   6.231   1.747   1.309  0.2483  0.7544  0.5290
 5271TIP3    H237229   6.186   1.683   1.439  1.3043  1.1532  1.1059
 5272TIP3   OH237230   2.691   2.218   0.565  0.2315 -0.2392  0.4961
 5272TIP3    H137231   2.779   2.248   0.542 -0.2753  2.3856  1.6581
 5272TIP3    H237232   2.633   2.288   0.534 -1.3675 -1.3939  0.7552
 5273TIP3   OH237233   6.571   5.901  14.086  0.0579  0.0025  0.4404
 5273TIP3    H137234   6.617   5.818  14.096  1.2773  0.8206  2.1593
 5273TIP3    H237235   6.525   5.913  14.169 -0.1983  0.9864  0.1739
 5274TIP3   OH237236   2.277   1.894  15.106 -0.2441  0.3314  0.3385
 5274TIP3    H137237   2.302   1.952  15.034 -1.0347 -0.6568 -0.7759
 5274TIP3    H237238   2.230   1.950  15.168  2.5325  1.7225  1.3398
 5275TIP3   OH237239   3.214   4.972  13.041  0.3589 -0.4795  0.0067
 5275TIP3    H137240   3.252   4.943  12.958  0.9023  0.8898 -0.2372
 5275TIP3    H237241   3.248   5.060  13.055 -0.6086 -0.2497  1.1348
 5276TIP3   OH237242   0.748   5.098  14.492 -0.1942  0.3449 -0.3073
 5276TIP3    H137243   0.809   5.043  14.541 -1.6185 -0.0685  1.0632
 5276TIP3    H237244   0.733   5.174  14.548 -1.4996  0.0804 -0.2761
 5277TIP3   OH237245   4.953   3.618  13.395 -0.0095  0.0299 -0.3845
 5277TIP3    H137246   4.951   3.539  13.340 -0.0837 -0.1501 -0.1264
 5277TIP3    H237247   5.046   3.630  13.416  0.1576  0.7569 -1.4803
 5278TIP3   OH237248   0.749   5.926   5.360 -0.3579 -0.1433 -0.2734
 5278TIP3    H137249   0.670   5.872   5.351 -2.1552  1.7022  2.5004
 5278TIP3    H237250   0.770   5.953   5.271 -3.5724  0.1249 -1.0834
 5279TIP3   OH237251   0.520   3.970   3.567 -0.3331  0.0942 -0.7031
 5279TIP3    H137252   0.507   4.039   3.502 -1.1261 -1.1652 -1.9376
 5279TIP3    H237253   0.536   3.891   3.515  0.8956 -0.6210  0.6692
 5280TIP3   OH237254   4.905   5.401  16.815 -0.4073  0.4072  0.2326
 5280TIP3    H137255   4.899   5.413  16.720 -0.7900 -1.8553 -0.1108
 5280TIP3    H237256   4.815   5.379  16.841 -0.0989 -0.0498  0.9277
 5281TIP3   OH237257   5.536   6.480  12.559 -0.0637 -0.3314  0.4445
 5281TIP3    H137258   5.461   6.539  12.570 -0.7167 -0.9048 -0.7214
 5281TIP3    H237259   5.498   6.402  12.517  1.4295 -0.0313 -1.6029
 5282TIP3   OH237260   3.253   5.084  14.924  0.0716  0.3414 -0.1789
 5282TIP3    H137261   3.329   5.096  14.980  1.3025 -0.8592 -1.5062
 5282TIP3    H237262   3.266   4.998  14.884  0.4188  1.9855 -3.9922
 5283TIP3   OH237263   6.119   3.439  15.878  0.1402  0.2109  0.4325
 5283TIP3    H137264   6.029   3.473  15.878  0.3988  0.9426 -0.6229
 5283TIP3    H237265   6.147   3.447  15.969 -0.8156  0.0907  0.7549
 5284TIP3   OH237266   0.581   0.742   2.267  0.2068 -0.4569  0.4595
 5284TIP3    H137267   0.635   0.663   2.270  0.6434 -0.2045 -0.4643
 5284TIP3    H237268   0.619   0.795   2.197 -0.7818  0.0635  0.2903
 5285TIP3   OH237269   0.075   6.273   5.211  0.2360  0.3168 -0.3956
 5285TIP3    H137270   0.073   6.250   5.304  0.3098  0.7861 -0.2738
 5285TIP3    H237271   0.160   6.243   5.181  1.1313  2.1190  0.2188
 5286TIP3   OH237272   5.655   2.934  12.791 -0.1598  0.4437  0.5640
 5286TIP3    H137273   5.610   2.868  12.737  1.0641 -0.0211  0.0804
 5286TIP3    H237274   5.727   2.965  12.736 -0.3924  1.8185  0.9937
 5287TIP3   OH237275   5.927   1.602  16.517 -0.4127  0.0219 -0.2209
 5287TIP3    H137276   5.987   1.671  16.488 -2.1622  1.6021 -0.3182
 5287TIP3    H237277   5.966   1.568  16.598  0.1715  1.6175  0.2065
 5288TIP3   OH237278   3.455   5.079   2.236 -0.0496 -0.4267 -0.3046
 5288TIP3    H137279   3.479   5.164   2.199 -1.0189 -0.0412 -0.0722
 5288TIP3    H237280   3.527   5.021   2.210 -0.6912 -0.1984 -2.8623
 5289TIP3   OH237281   3.457   2.287   0.227  0.2762 -0.4620 -0.2001
 5289TIP3    H137282   3.414   2.361   0.271 -1.6909 -0.8845 -1.2935
 5289TIP3    H237283   3.543   2.281   0.269 -0.7247  0.3965  2.1494
 5290TIP3   OH237284   5.476   4.415   2.803 -0.4177 -0.1700  0.0260
 5290TIP3    H137285   5.468   4.510   2.797  3.3244  0.2807 -0.5199
 5290TIP3    H237286   5.461   4.396   2.896  1.4353  1.4070  0.7228
 5291TIP3   OH237287   6.585   2.737   0.767 -0.4115  0.3025  0.2497
 5291TIP3    H137288   6.514   2.700   0.820  0.4695 -0.4042  0.9603
 5291TIP3    H237289   6.650   2.667   0.761  0.0707  0.8123 -0.7073
 5292TIP3   OH237290   3.381   5.536   4.359 -0.1551 -0.6848 -0.3417
 5292TIP3    H137291   3.421   5.451   4.341  2.3608  0.4212 -0.3873
 5292TIP3    H237292   3.408   5.557   4.448 -0.1843  0.3240 -0.5531
 5293TIP3   OH237293   3.946   3.606  15.700  0.3514  0.0013  0.1929
 5293TIP3    H137294   3.908   3.678  15.751 -1.1936  0.0023 -0.9057
 5293TIP3    H237295   3.934   3.529  15.755 -0.3706  0.1666  0.2690
 5294TIP3   OH237296   2.380   6.741   3.858  0.0184 -0.2589 -0.0372
 5294TIP3    H137297   2.413   6.719   3.771 -0.2707 -0.3533 -0.1245
 5294TIP3    H237298   2.445   6.801   3.894  0.9309 -1.4251  0.2930
 5295TIP3   OH237299   3.010   3.638   2.069 -0.2464  0.0237  0.8136
 5295TIP3    H137300   2.957   3.666   1.994  0.1199 -2.3933 -0.4455
 5295TIP3    H237301   2.951   3.587   2.124 -0.2003  0.7432  1.5489
 5296TIP3   OH237302   0.631   4.511   6.228  0.2355  0.3664  0.4387
 5296TIP3    H137303   0.724   4.507   6.209  0.0846 -0.2070 -0.2018
 5296TIP3    H237304   0.614   4.604   6.244  0.5163  0.8195 -1.5954
 5297TIP3   OH237305   3.726   0.886   3.826  0.0401  0.6666 -0.3635
 5297TIP3    H137306   3.641   0.900   3.867  0.5295  0.1976  0.8451
 5297TIP3    H237307   3.705   0.845   3.742 -0.9328  0.7679 -0.1866
 5298TIP3   OH237308   0.221   2.743  16.295 -0.5289 -0.7955  0.1039
 5298TIP3    H137309   0.221   2.826  16.247  0.6567 -0.4900  0.6036
 5298TIP3    H237310   0.129   2.722  16.306 -0.8414 -0.1887 -1.1292
 5299TIP3   OH237311   1.457   6.261   6.515 -0.0536  0.4576  0.0707
 5299TIP3    H137312   1.402   6.290   6.443  0.4823  0.6504 -0.2636
 5299TIP3    H237313   1.425   6.173   6.536 -0.3819  0.5059 -0.2237
 5300TIP3   OH237314   4.166   3.348  12.983  0.0135  0.3353 -0.0639
 5300TIP3    H137315   4.162   3.423  13.042 -0.4234  0.5228 -0.3223
 5300TIP3    H237316   4.140   3.383  12.898 -0.1482 -0.0965 -0.1952
 5301TIP3   OH237317   1.498   2.989   3.509  0.3178  0.1355  0.1560
 5301TIP3    H137318   1.432   2.968   3.443 -0.3595 -2.4764  1.5192
 5301TIP3    H237319   1.446   3.012   3.587  0.7914 -3.6808  1.7883
 5302TIP3   OH237320   4.840   0.907  15.582 -0.5608 -0.3421  0.4605
 5302TIP3    H137321   4.825   0.907  15.487 -0.3658  3.8453  0.2158
 5302TIP3    H237322   4.781   0.976  15.614  1.4428  0.3361  2.9131
 5303TIP3   OH237323   0.131   3.724   2.772  0.0681  0.7376  0.0184
 5303TIP3    H137324   0.050   3.710   2.724  0.6788 -0.0529 -0.8284
 5303TIP3    H237325   0.175   3.639   2.770  0.9110  1.1508  0.4626
 5304TIP3   OH237326   1.877   0.375   4.474  0.1974 -0.2435  0.0415
 5304TIP3    H137327   1.797   0.377   4.526  0.6202 -1.6202  0.8140
 5304TIP3    H237328   1.910   0.285   4.484  2.1538  0.4409  0.2257
 5305TIP3   OH237329   5.144   2.842  14.538  0.0420 -0.8026  0.2432
 5305TIP3    H137330   5.188   2.759  14.519  2.4358  0.6830 -1.1092
 5305TIP3    H237331   5.182   2.904  14.477 -2.7937  1.0370  0.1590
 5306TIP3   OH237332   6.551   1.148  14.616  0.0514 -0.2199 -0.1484
 5306TIP3    H137333   6.613   1.218  14.637  1.1184 -0.6791 -1.5822
 5306TIP3    H237334   6.577   1.119  14.528 -0.6934 -2.0570  0.1936
 5307TIP3   OH237335   3.942   0.363  10.776 -0.3276  0.5648 -0.6549
 5307TIP3    H137336   3.942   0.458  10.763 -0.4360  0.5013 -1.1465
 5307TIP3    H237337   3.990   0.350  10.858 -0.7687  1.0775 -0.3114
 5308TIP3   OH237338   0.010   5.317   2.866  0.1618  0.0618 -0.2272
 5308TIP3    H137339  -0.018   5.391   2.813 -0.6187 -1.5189 -2.1517
 5308TIP3    H237340  -0.062   5.303   2.928 -1.1015 -0.8947 -1.8464
 5309TIP3   OH237341   4.747   0.678  16.654  0.5124 -0.6825 -0.6381
 5309TIP3    H137342   4.732   0.742  16.584  0.3868 -0.8177 -0.7397
 5309TIP3    H237343   4.718   0.721  16.734  2.9566  0.4047 -0.2626
 5310TIP3   OH237344   4.737   0.576  11.537  0.4913 -0.0826 -0.2021
 5310TIP3    H137345   4.817   0.625  11.519  0.8048 -0.7673 -0.7055
 5310TIP3    H237346   4.678   0.598  11.465  0.3513  0.1334 -0.0262
 5311TIP3   OH237347   0.025   5.258  15.637 -0.3240  0.0397  0.7337
 5311TIP3    H137348   0.087   5.301  15.695  0.9326 -0.0411 -0.5098
 5311TIP3    H237349  -0.027   5.201  15.695  0.5669  0.3112  1.8246
 5312TIP3   OH237350   6.096   1.122  12.689  0.6815 -0.2305  0.0336
 5312TIP3    H137351   6.147   1.184  12.637 -0.3339 -0.2100 -0.9806
 5312TIP3    H237352   6.154   1.047  12.699  0.3698 -0.9412 -2.5997
 5313TIP3   OH237353   2.169   0.639   0.495  0.1711 -0.2593 -0.3492
 5313TIP3    H137354   2.256   0.655   0.460  1.0374  0.3082  1.8603
 5313TIP3    H237355   2.161   0.544   0.501  1.0255 -0.2994  0.2731
 5314TIP3   OH237356   0.725   6.124   2.729  0.3135 -0.2383  0.0789
 5314TIP3    H137357   0.809   6.086   2.757  0.5587 -1.2597 -1.8452
 5314TIP3    H237358   0.749   6.186   2.660 -0.5127 -0.5060 -0.4606
 5315TIP3   OH237359   4.192   6.729  11.726  0.4226  0.4243  0.3408
 5315TIP3    H137360   4.237   6.704  11.645 -2.0887 -1.6328 -0.5698
 5315TIP3    H237361   4.117   6.780  11.696 -0.7595 -0.6972  1.2959
 5316TIP3   OH237362   2.062   1.766   6.288 -0.0879  0.6187  0.3335
 5316TIP3    H137363   2.066   1.825   6.213 -0.8207 -0.0152 -0.2181
 5316TIP3    H237364   2.113   1.810   6.356  1.7824  0.5591 -0.9606
 5317TIP3   OH237365   0.860   5.647   1.366  0.0173 -0.8930  0.6159
 5317TIP3    H137366   0.881   5.709   1.437  1.1937 -1.3943  0.7303
 5317TIP3    H237367   0.794   5.589   1.404 -1.8440  0.8542  0.1853
 5318TIP3   OH237368   1.613   2.485   2.183  0.0897 -0.7150 -0.5334
 5318TIP3    H137369   1.608   2.493   2.087 -0.7244 -0.2653 -0.4684
 5318TIP3    H237370   1.522   2.495   2.212  0.2796 -1.2395  0.2621
 5319TIP3   OH237371   1.863   4.697   1.445  0.6936  0.2911 -0.0474
 5319TIP3    H137372   1.867   4.766   1.378  2.0220  0.2633 -0.0180
 5319TIP3    H237373   1.953   4.687   1.475  0.5847 -1.6624 -0.2443
 5320TIP3   OH237374   0.985   5.372   3.725 -0.5876  0.2919 -0.4793
 5320TIP3    H137375   1.035   5.292   3.709  0.6586  0.7219  1.0555
 5320TIP3    H237376   0.977   5.413   3.638 -1.5641 -1.6385 -1.3414
 5321TIP3   OH237377   6.417   4.180   0.495 -0.0516  0.6896  0.1611
 5321TIP3    H137378   6.487   4.139   0.444 -1.6721 -0.2261 -1.4268
 5321TIP3    H237379   6.463   4.226   0.566  2.2001  0.9482 -1.3721
 5322TIP3   OH237380   5.420   0.176  16.910 -0.1807  0.4740 -0.2165
 5322TIP3    H137381   5.365   0.179  16.988  1.0005  0.7083  0.6293
 5322TIP3    H237382   5.383   0.106  16.857 -0.1405 -0.6832  1.2274
 5323TIP3   OH237383   4.221   2.019  15.464  0.0808  0.2458  0.0002
 5323TIP3    H137384   4.173   2.066  15.395  1.2447  0.5928 -0.5957
 5323TIP3    H237385   4.192   1.928  15.455 -0.8542  0.5306 -0.0037
 5324TIP3   OH237386   2.731   0.457  16.433 -0.1854 -0.4711  0.1115
 5324TIP3    H137387   2.721   0.509  16.354 -0.1685 -0.3201  0.2092
 5324TIP3    H237388   2.753   0.520  16.501 -0.1256 -0.6102  0.2211
 5325TIP3   OH237389   1.155   6.448   4.150  0.3286  0.5158 -0.8954
 5325TIP3    H137390   1.137   6.354   4.155  0.0398  0.6035 -0.0140
 5325TIP3    H237391   1.250   6.455   4.159  0.3137  0.3285 -0.5627
 5326TIP3   OH237392   0.119   0.637  11.507  0.3973 -0.0294 -0.7039
 5326TIP3    H137393   0.174   0.604  11.436  0.8144 -1.0008  0.0415
 5326TIP3    H237394   0.106   0.730  11.487  0.8026 -0.2076 -1.8464
 5327TIP3   OH237395   4.472   0.379   1.942 -0.6597 -0.1021 -0.1959
 5327TIP3    H137396   4.484   0.463   1.987 -0.8589  0.1798 -0.6635
 5327TIP3    H237397   4.403   0.395   1.879 -0.8768 -0.6930 -0.1152
 5328TIP3   OH237398   0.885   5.404  13.156 -1.1581 -0.4578  0.0644
 5328TIP3    H137399   0.907   5.369  13.070 -0.0619 -0.4014  0.3125
 5328TIP3    H237400   0.883   5.328  13.213 -2.9662 -0.6505 -0.1851
 5329TIP3   OH237401   4.100   5.714  14.233 -0.0610  0.0400  0.2825
 5329TIP3    H137402   4.158   5.790  14.238  0.6404 -0.4323 -0.4782
 5329TIP3    H237403   4.067   5.715  14.143 -0.6563 -0.1225  0.4932
 5330TIP3   OH237404   4.248   3.743   3.340 -0.0003 -0.5341 -0.2143
 5330TIP3    H137405   4.263   3.701   3.425 -1.2783  1.5365  1.1330
 5330TIP3    H237406   4.252   3.671   3.277  0.5703 -2.2241  1.6370
 5331TIP3   OH237407   5.292   1.480   1.489 -0.2401 -0.5115  0.7499
 5331TIP3    H137408   5.228   1.524   1.544  0.9506 -0.2963  2.0197
 5331TIP3    H237409   5.264   1.388   1.489 -0.2812 -0.5136  1.7307
 5332TIP3   OH237410   1.133   6.605  14.268 -0.0697 -0.0866 -0.0994
 5332TIP3    H137411   1.191   6.538  14.232  0.5419  0.2560  0.2086
 5332TIP3    H237412   1.094   6.565  14.345 -0.5559 -0.4593 -0.5413
 5333TIP3   OH237413   0.473   2.733   5.358 -0.8621  0.5185  0.5835
 5333TIP3    H137414   0.510   2.817   5.331 -1.0532  0.0887 -1.1593
 5333TIP3    H237415   0.541   2.692   5.411  0.9805  0.0295 -1.9871
 5334TIP3   OH237416   5.982   5.506  15.379 -0.6052 -0.1173 -0.1851
 5334TIP3    H137417   6.016   5.593  15.358 -1.7286  0.1183 -1.2033
 5334TIP3    H237418   5.969   5.508  15.474 -1.0537  1.0112 -0.2477
 5335TIP3   OH237419   4.359   4.016  13.236 -0.2242  0.5781  0.3344
 5335TIP3    H137420   4.277   4.057  13.208 -0.8756 -2.2876 -2.5936
 5335TIP3    H237421   4.333   3.959  13.309 -0.2194  1.6554  1.2176
 5336TIP3   OH237422   0.749   0.220  11.348  0.4958  0.1104 -0.0210
 5336TIP3    H137423   0.754   0.135  11.304 -0.9072 -0.2812  0.5104
 5336TIP3    H237424   0.804   0.278  11.295  2.0375 -1.2757 -0.0023
 5337TIP3   OH237425   3.867   1.116  15.327  0.3435  0.6386 -0.4946
 5337TIP3    H137426   3.884   1.209  15.338 -0.2829  0.9443 -1.9604
 5337TIP3    H237427   3.813   1.092  15.403  1.2838  1.2330  0.3888
 5338TIP3   OH237428   0.656   3.040   1.874  0.0571  0.0233  0.3249
 5338TIP3    H137429   0.661   3.109   1.940 -1.3181  0.8418 -0.3893
 5338TIP3    H237430   0.658   3.086   1.790 -2.1611 -0.6722 -0.1600
 5339TIP3   OH237431   0.836   6.704  12.287 -0.7442  0.4766  0.8471
 5339TIP3    H137432   0.780   6.629  12.265  0.9198 -1.0684  1.5853
 5339TIP3    H237433   0.795   6.743  12.364 -1.1498 -0.2597  1.0141
 5340TIP3   OH237434   4.017   6.535  13.547 -0.1757 -0.1345 -0.1821
 5340TIP3    H137435   4.109   6.537  13.519 -0.5363 -1.0297 -1.5055
 5340TIP3    H237436   3.985   6.623  13.533 -0.4011 -0.5810 -2.9021
 5341TIP3   OH237437   4.341   3.976   3.964 -0.1841 -0.0361 -0.4551
 5341TIP3    H137438   4.393   3.959   4.043 -1.1122  1.4787  0.5429
 5341TIP3    H237439   4.404   4.014   3.902 -0.0036  1.7220  0.7171
 5342TIP3   OH237440   2.485   1.041   5.071  0.2842 -0.0445 -0.4408
 5342TIP3    H137441   2.532   1.064   5.151 -0.8574 -3.2000  1.3377
 5342TIP3    H237442   2.554   1.032   5.004  1.6887 -0.3359  0.9813
 5343TIP3   OH237443   4.768   6.211   1.197 -0.1856  0.7159 -0.7032
 5343TIP3    H137444   4.701   6.242   1.258  0.5310  1.2343 -0.1668
 5343TIP3    H237445   4.786   6.122   1.225  2.2654  1.8498  1.8144
 5344TIP3   OH237446   6.030   3.295  12.120 -0.9907 -0.2380  0.3332
 5344TIP3    H137447   6.034   3.221  12.181 -0.9087 -0.6048 -0.1093
 5344TIP3    H237448   6.020   3.254  12.034  0.1821  0.2095 -0.0448
 5345TIP3   OH237449   4.272   6.238  11.352 -0.4329  0.2452 -0.2180
 5345TIP3    H137450   4.334   6.167  11.338 -0.5702  0.3144 -1.2269
 5345TIP3    H237451   4.298   6.305  11.290 -2.5326 -0.3952 -1.8949
 5346TIP3   OH237452   3.946   1.286  17.303  0.5422 -0.0355  0.1585
 5346TIP3    H137453   3.895   1.231  17.244  1.2660 -0.4141 -0.1237
 5346TIP3    H237454   3.931   1.249  17.390 -0.4579  0.4724  0.2184
 5347TIP3   OH237455   3.405   4.072   0.724  0.0777 -0.0348  0.3293
 5347TIP3    H137456   3.377   4.006   0.661 -0.3239 -0.5105  0.9815
 5347TIP3    H237457   3.499   4.080   0.712  0.0733 -0.4781  0.0069
 5348TIP3   OH237458   4.358   5.150   5.159  0.8547 -0.1272 -0.6160
 5348TIP3    H137459   4.401   5.117   5.080  0.2756 -0.4918 -0.7881
 5348TIP3    H237460   4.282   5.198   5.127  0.6565 -0.2147 -0.2852
 5349TIP3   OH237461   5.084   6.612   3.986 -0.2888  0.9078 -0.8565
 5349TIP3    H137462   4.992   6.633   4.002 -0.4692  0.8285 -1.7712
 5349TIP3    H237463   5.090   6.597   3.892  0.5536  0.3741 -0.7329
 5350TIP3   OH237464   4.185   0.907  11.304 -0.8331 -0.1215 -0.2022
 5350TIP3    H137465   4.277   0.933  11.301 -0.6649 -0.7355 -0.9283
 5350TIP3    H237466   4.183   0.833  11.365 -1.3306  1.5805  1.9593
 5351TIP3   OH237467   3.524   6.634   3.349 -0.2008  0.4169  0.5925
 5351TIP3    H137468   3.609   6.678   3.353  0.5836 -0.5159 -2.6609
 5351TIP3    H237469   3.493   6.652   3.261 -3.5671  0.8878  1.7494
 5352TIP3   OH237470   3.393   1.371   6.082  1.0934  0.6534  0.3700
 5352TIP3    H137471   3.453   1.390   6.010 -0.5578 -0.9531 -1.5706
 5352TIP3    H237472   3.316   1.424   6.064  0.9113  0.7458  1.3608
 5353TIP3   OH237473   4.005   2.273   5.495  0.5103  0.4754 -0.2413
 5353TIP3    H137474   3.936   2.257   5.430 -0.9607  0.6846  1.1908
 5353TIP3    H237475   3.959   2.311   5.569  1.6949 -1.9629  1.8984
 5354TIP3   OH237476   2.022   4.136   3.497  0.0049  0.0373 -0.1446
 5354TIP3    H137477   2.111   4.101   3.487  0.3830  1.2118 -1.1080
 5354TIP3    H237478   1.966   4.059   3.503  0.8959 -0.7413 -1.3776
 5355TIP3   OH237479   0.514   5.449  10.937 -0.0951  0.4301  0.3351
 5355TIP3    H137480   0.594   5.434  10.886 -0.0614  0.3656  0.4081
 5355TIP3    H237481   0.449   5.473  10.871 -0.1655 -0.0847  0.2108
 5356TIP3   OH237482   0.534   6.727  12.365 -0.5500  0.1643 -0.7714
 5356TIP3    H137483   0.509   6.797  12.305 -0.7665  0.0019 -0.8674
 5356TIP3    H237484   0.613   6.761  12.409  0.3703 -0.2393 -2.0637
 5357TIP3   OH237485   5.264   4.971  15.313 -0.4092 -0.0979  0.4657
 5357TIP3    H137486   5.227   4.894  15.271 -0.6608 -0.9843  2.2411
 5357TIP3    H237487   5.190   5.029  15.328 -0.0448  1.1515 -2.0653
 5358TIP3   OH237488   1.840   6.169   4.534 -0.3235 -0.8434 -0.0835
 5358TIP3    H137489   1.766   6.226   4.514 -0.6423 -1.7840 -1.7690
 5358TIP3    H237490   1.835   6.156   4.629 -1.0491  0.7774  0.1337
 5359TIP3   OH237491   5.251   2.524  12.580 -0.2839 -0.9917 -0.3788
 5359TIP3    H137492   5.258   2.607  12.626  0.6640 -1.4453  0.3374
 5359TIP3    H237493   5.255   2.458  12.649 -0.2130 -1.6509 -1.0031
 5360TIP3   OH237494   1.167   2.431  16.194  0.5189  0.6794  0.3331
 5360TIP3    H137495   1.127   2.421  16.280 -0.8029  3.7723  0.2164
 5360TIP3    H237496   1.243   2.486  16.209  0.7538  0.5534 -0.3601
 5361TIP3   OH237497   2.431   2.324  16.515  0.5225  0.5591 -0.1462
 5361TIP3    H137498   2.371   2.327  16.590 -0.2623 -0.7479 -0.6810
 5361TIP3    H237499   2.384   2.370  16.446  1.2077  1.6811  0.1071
 5362TIP3   OH237500   2.944   1.590   1.410  0.3200  0.6863 -0.1781
 5362TIP3    H137501   2.889   1.613   1.335  0.3805  0.0902 -0.4113
 5362TIP3    H237502   3.011   1.532   1.374  0.1830  0.1661  0.3888
 5363TIP3   OH237503   0.567   0.680   1.712  0.6877  0.5589 -0.1069
 5363TIP3    H137504   0.608   0.711   1.793  2.5953  1.5350 -1.3660
 5363TIP3    H237505   0.622   0.716   1.643 -1.4451  0.5569 -1.8890
 5364TIP3   OH237506   2.689   3.318  12.274 -1.0387  0.5963  0.4525
 5364TIP3    H137507   2.721   3.232  12.304 -2.2166 -0.4149 -1.0180
 5364TIP3    H237508   2.764   3.376  12.286  0.2894 -0.9568  0.2110
 5365TIP3   OH237509   6.458   3.396   6.539  0.0120  0.2964  0.2555
 5365TIP3    H137510   6.373   3.354   6.555 -0.2002  0.0019 -1.3810
 5365TIP3    H237511   6.514   3.365   6.610 -1.1923  0.3736  1.2776
 5366TIP3   OH237512   0.616   5.738  10.986 -0.3036 -0.2580  0.1243
 5366TIP3    H137513   0.598   5.768  10.896  0.3201  0.5981  0.2729
 5366TIP3    H237514   0.533   5.699  11.014 -0.1566 -1.6610 -1.2456
 5367TIP3   OH237515   0.621   5.626  10.672 -0.0367 -0.6498  0.6266
 5367TIP3    H137516   0.682   5.687  10.630 -0.7059 -0.5249 -0.2115
 5367TIP3    H237517   0.552   5.682  10.708 -0.4968 -0.8776  0.1188
 5368TIP3   OH237518   5.998   5.057   4.657 -0.3421  0.0230 -0.4126
 5368TIP3    H137519   6.028   5.060   4.747 -1.1987 -1.6203 -0.0328
 5368TIP3    H237520   5.926   4.994   4.658 -0.6994  0.3508 -2.1510
 5369TIP3   OH237521   1.745   3.892  16.151  0.5847 -0.0378 -0.0961
 5369TIP3    H137522   1.680   3.855  16.093  0.4239 -0.9158  0.6220
 5369TIP3    H237523   1.829   3.856  16.121  0.7500  1.0388 -0.9774
 5370TIP3   OH237524   4.553   4.491   1.706  0.3926 -0.1871  0.4748
 5370TIP3    H137525   4.611   4.554   1.748 -0.2414 -0.7311  2.3042
 5370TIP3    H237526   4.475   4.542   1.682 -0.0284 -0.1899  1.7509
 5371TIP3   OH237527   5.033   5.077   0.641  0.3315  0.0067  0.0984
 5371TIP3    H137528   5.071   5.074   0.553  0.8607  0.1471  0.3188
 5371TIP3    H237529   5.095   5.128   0.692 -0.4816  0.7906  0.3152
 5372TIP3   OH237530   3.661   4.397   1.643  0.4760 -0.0399  0.0632
 5372TIP3    H137531   3.581   4.405   1.593  0.6918  0.3944 -0.2158
 5372TIP3    H237532   3.644   4.446   1.724 -0.2727 -1.6544  0.9433
 5373TIP3   OH237533   5.065   0.682  15.873 -0.4524  0.6284  0.0280
 5373TIP3    H137534   5.115   0.684  15.792  1.2533  0.7142  1.0346
 5373TIP3    H237535   4.987   0.631  15.852  0.9843 -1.2220 -1.1262
 5374TIP3   OH237536   3.627   0.281  15.745 -0.2631 -0.2014  0.7686
 5374TIP3    H137537   3.620   0.228  15.666 -3.8061 -0.9971  1.4159
 5374TIP3    H237538   3.591   0.225  15.814  0.4866  1.3298  2.4972
 5375TIP3   OH237539   5.723   1.202   2.223 -0.2974 -0.2465  0.3395
 5375TIP3    H137540   5.725   1.249   2.139  2.9926  1.1114  1.0299
 5375TIP3    H237541   5.760   1.116   2.203 -2.2333 -1.0383 -0.0730
 5376TIP3   OH237542   2.962   5.378  16.813 -0.6316 -0.1213  0.3796
 5376TIP3    H137543   3.043   5.418  16.845 -0.3720  0.4875 -0.9658
 5376TIP3    H237544   2.941   5.427  16.734 -1.2951 -1.4830 -0.3302
 5377TIP3   OH237545   0.374   0.995  15.360  0.5336  0.7825  0.5745
 5377TIP3    H137546   0.353   0.971  15.450 -0.9200 -0.3157 -0.0179
 5377TIP3    H237547   0.404   0.913  15.320  0.6784  1.1456 -0.0788
 5378TIP3   OH237548   4.192   3.803  10.818 -0.2739  0.1813  0.3441
 5378TIP3    H137549   4.139   3.872  10.777 -0.5057 -0.1052  0.1577
 5378TIP3    H237550   4.179   3.726  10.762  0.4729  0.1482  0.2012
 5379TIP3   OH237551   4.536   3.456  11.897  0.0795  0.3870 -0.3893
 5379TIP3    H137552   4.611   3.413  11.856  0.1247  1.6472 -1.6741
 5379TIP3    H237553   4.496   3.507  11.828 -1.9938 -0.2355  0.2798
 5380TIP3   OH237554   0.532   5.829   5.628  0.2970  0.2218  0.5402
 5380TIP3    H137555   0.477   5.771   5.574  1.2249  0.7152 -0.9969
 5380TIP3    H237556   0.516   5.916   5.593  0.0610  0.7334  1.8569
 5381TIP3   OH237557   2.915   0.025  14.305 -0.4977 -0.1913  0.4540
 5381TIP3    H137558   2.839  -0.029  14.326  0.1235 -1.5296 -0.6315
 5381TIP3    H237559   2.964   0.029  14.387 -0.8818 -0.7234  0.7150
 5382TIP3   OH237560   3.192   5.883   0.406  0.2852 -0.3519  0.7242
 5382TIP3    H137561   3.239   5.831   0.341 -0.2386 -1.2899  1.0765
 5382TIP3    H237562   3.102   5.850   0.403  0.0141  0.3145  1.1921
 5383TIP3   OH237563   3.350   1.494  16.627 -0.1913  0.5934  0.0771
 5383TIP3    H137564   3.315   1.494  16.538 -1.5920 -1.2284  0.5608
 5383TIP3    H237565   3.323   1.579  16.663 -0.5995  0.8721 -0.8567
 5384TIP3   OH237566   6.243   4.162   4.386  0.3761  0.2364  0.7550
 5384TIP3    H137567   6.245   4.078   4.341  0.6623  0.5762  0.1191
 5384TIP3    H237568   6.174   4.152   4.452 -1.4377  0.3507 -1.0175
 5385TIP3   OH237569   4.291   4.138  16.429  0.6894 -0.3749  0.7133
 5385TIP3    H137570   4.360   4.141  16.495  0.1748 -1.9363  1.3552
 5385TIP3    H237571   4.320   4.199  16.361  3.0343 -1.4905  0.6275
 5386TIP3   OH237572   0.743   0.239   6.403  0.1830  0.7059 -0.0383
 5386TIP3    H137573   0.687   0.211   6.476 -0.7377  2.6475  0.0588
 5386TIP3    H237574   0.811   0.171   6.398 -0.9464 -0.5947  1.2232
 5387TIP3   OH237575   5.105   6.721  15.334  0.1797 -0.6925 -0.2803
 5387TIP3    H137576   5.047   6.645  15.328  0.5627 -0.8954 -2.4717
 5387TIP3    H237577   5.114   6.738  15.427 -2.4347 -1.3854  0.1632
 5388TIP3   OH237578   2.549   2.300   5.878 -1.0164 -0.4482  0.0369
 5388TIP3    H137579   2.541   2.224   5.936  0.9691 -0.4951  0.3292
 5388TIP3    H237580   2.507   2.272   5.797  1.0899 -2.5651 -0.4396
 5389TIP3   OH237581   6.304   1.267   4.114 -0.4201 -0.1814  0.4132
 5389TIP3    H137582   6.323   1.218   4.034 -3.0726 -0.1276 -0.3560
 5389TIP3    H237583   6.219   1.234   4.143  0.3792 -0.0668  3.1603
 5390TIP3   OH237584   1.713   6.522   3.000  0.4422  0.3729 -0.0505
 5390TIP3    H137585   1.708   6.520   2.904 -0.2524  2.5905 -0.1090
 5390TIP3    H237586   1.745   6.435   3.024  1.3089 -0.0128 -2.3363
 5391TIP3   OH237587   4.981   0.754   4.740  0.3961 -0.4417 -0.0507
 5391TIP3    H137588   4.919   0.791   4.677 -1.2740 -0.5022  1.4698
 5391TIP3    H237589   5.065   0.791   4.714 -0.3439  0.1168 -1.8451
 5392TIP3   OH237590   5.295   3.350   4.773  0.1103 -0.3090  0.2670
 5392TIP3    H137591   5.296   3.294   4.851 -0.8774  0.3929  0.8070
 5392TIP3    H237592   5.371   3.407   4.784 -0.4284  0.2704  1.0958
 5393TIP3   OH237593   2.552   3.476   3.455  0.0598 -0.3364  0.5046
 5393TIP3    H137594   2.618   3.540   3.427  1.1453 -1.0155  1.4559
 5393TIP3    H237595   2.476   3.529   3.477  0.9307  0.6442  1.2583
 5394TIP3   OH237596   3.158   3.285  14.193 -0.4360  0.0323  0.4071
 5394TIP3    H137597   3.192   3.197  14.209  0.3157  0.0110 -1.1927
 5394TIP3    H237598   3.160   3.296  14.098 -2.8375  0.8853  0.3847
 5395TIP3   OH237599   6.370   6.713  12.061 -0.1144 -0.7018 -0.5351
 5395TIP3    H137600   6.462   6.686  12.057  0.6643  1.4780  0.7406
 5395TIP3    H237601   6.367   6.797  12.015 -1.1401 -0.0276  0.6861
 5396TIP3   OH237602   2.174   6.373   1.588  0.0841 -0.2507 -0.5409
 5396TIP3    H137603   2.235   6.326   1.531  1.0098 -0.1306  0.3297
 5396TIP3    H237604   2.206   6.463   1.587 -1.0026  0.1509 -1.2885
 5397TIP3   OH237605   5.442   3.663   4.724  0.0237 -0.0084  0.4321
 5397TIP3    H137606   5.531   3.683   4.692  0.6489 -1.6019  1.0733
 5397TIP3    H237607   5.411   3.595   4.665  0.0590 -0.9422  1.4681
 5398TIP3   OH237608   2.356   4.343   2.179  0.2636  1.0104 -0.2167
 5398TIP3    H137609   2.446   4.340   2.147  0.7334 -1.6372  1.0581
 5398TIP3    H237610   2.363   4.338   2.274 -1.1399 -2.1785 -0.1325
 5399TIP3   OH237611   1.886   0.798  12.768 -0.3025 -0.3332  0.2609
 5399TIP3    H137612   1.956   0.742  12.801 -0.1081 -1.7378 -2.3136
 5399TIP3    H237613   1.930   0.877  12.736  0.0724 -0.9205 -0.7220
 5400TIP3   OH237614   2.814   4.763  16.761  0.0747 -0.2037  0.4123
 5400TIP3    H137615   2.901   4.737  16.792  0.3335  0.3412  0.1603
 5400TIP3    H237616   2.826   4.853  16.729 -0.7099  0.0878  0.9158
 5401TIP3   OH237617   6.307   1.908  10.789  0.1427  0.4621 -0.3545
 5401TIP3    H137618   6.231   1.911  10.847  1.0623  0.2783  0.9031
 5401TIP3    H237619   6.271   1.894  10.702 -1.2064 -0.5006  0.3412
 5402TIP3   OH237620   4.710   3.055   3.544  0.4123 -0.0256  0.2125
 5402TIP3    H137621   4.643   3.123   3.554  0.6601  0.7061 -2.2755
 5402TIP3    H237622   4.663   2.981   3.506  0.9268  0.4937 -1.5526
 5403TIP3   OH237623   5.597   4.044  15.435  0.7132 -0.4735  0.1577
 5403TIP3    H137624   5.667   4.022  15.497  0.3589  0.7291  1.0233
 5403TIP3    H237625   5.517   4.022  15.482  0.3204  2.5470  1.1346
 5404TIP3   OH237626   4.522   3.258  16.709 -0.3211  0.0707 -0.0921
 5404TIP3    H137627   4.481   3.260  16.795 -1.6583 -1.6328 -0.6360
 5404TIP3    H237628   4.574   3.178  16.709 -2.5861 -1.5402 -1.7493
 5405TIP3   OH237629   0.026   1.433  15.177  0.3148  0.4101 -0.5411
 5405TIP3    H137630   0.035   1.359  15.238  1.4760 -0.2397 -1.4576
 5405TIP3    H237631  -0.066   1.458  15.184  0.4437  0.4807  1.5933
 5406TIP3   OH237632   4.875   5.904   0.506 -0.2065  0.6909  0.6129
 5406TIP3    H137633   4.960   5.920   0.547  0.7806 -0.9510 -0.6673
 5406TIP3    H237634   4.841   5.826   0.551 -0.3143  0.4218  0.0733
 5407TIP3   OH237635   0.501   3.181   4.269 -0.4927 -0.3212 -0.1392
 5407TIP3    H137636   0.425   3.142   4.311  0.0804 -0.6073  0.6474
 5407TIP3    H237637   0.576   3.155   4.323  0.3189 -0.9676 -1.4974
 5408TIP3   OH237638   6.164   1.969   5.298 -0.4215 -0.2141  0.2765
 5408TIP3    H137639   6.084   1.918   5.291  0.1742 -1.1096 -0.2184
 5408TIP3    H237640   6.232   1.905   5.317  0.2505  0.4651  0.2111
 5409TIP3   OH237641   6.275   2.486  16.768 -0.3259 -0.3155  0.1757
 5409TIP3    H137642   6.297   2.394  16.759 -0.8282 -0.3431 -0.8980
 5409TIP3    H237643   6.232   2.509  16.686 -1.9329  0.3872  1.1653
 5410TIP3   OH237644   2.019   3.218   2.965  0.3077  0.5201  0.2773
 5410TIP3    H137645   1.971   3.300   2.978 -0.6766  0.1644 -0.9414
 5410TIP3    H237646   2.109   3.245   2.949  0.2742  1.2772  1.2601
 5411TIP3   OH237647   4.071   3.674   2.814 -0.2240  0.3805 -0.1136
 5411TIP3    H137648   4.141   3.680   2.749  0.8667 -1.9436  0.7435
 5411TIP3    H237649   4.089   3.746   2.875  2.6066 -1.1977  1.1057
 5412TIP3   OH237650   6.277   6.577   6.061  0.3861  0.3326  0.0271
 5412TIP3    H137651   6.199   6.581   6.005  0.4130 -2.7020 -0.3942
 5412TIP3    H237652   6.326   6.502   6.028  2.0261  0.4016  2.1301
 5413TIP3   OH237653   1.293   2.669   0.266  0.1350 -0.7880 -0.2088
 5413TIP3    H137654   1.295   2.595   0.326 -0.2805 -0.4482  0.2270
 5413TIP3    H237655   1.282   2.746   0.322  1.8075 -0.2520 -0.5393
 5414TIP3   OH237656   0.905   3.518  17.347 -0.2069 -0.5140 -0.7389
 5414TIP3    H137657   0.835   3.503  17.411 -0.6153 -0.0973 -1.0751
 5414TIP3    H237658   0.964   3.444  17.358 -0.2469 -0.4317  0.1525
 5415TIP3   OH237659   3.270   0.556  12.703 -0.1223 -0.3362 -0.1639
 5415TIP3    H137660   3.282   0.468  12.667 -1.6162 -1.2216  1.3615
 5415TIP3    H237661   3.240   0.541  12.792  0.3809  1.7499  0.3968
 5416TIP3   OH237662   3.738   3.837  12.476 -0.2467  0.0494  0.5689
 5416TIP3    H137663   3.815   3.893  12.481 -0.9205  0.9980  0.5652
 5416TIP3    H237664   3.743   3.797  12.389  0.4823 -0.2624  0.7499
 5417TIP3   OH237665   2.569   4.999  14.909 -0.1569 -0.5722 -0.0511
 5417TIP3    H137666   2.659   4.969  14.894 -0.0923 -0.0822 -0.6848
 5417TIP3    H237667   2.534   5.014  14.821 -0.5039  0.2765  0.2233
 5418TIP3   OH237668   1.506   1.397   1.458 -0.2324 -0.1051  0.0623
 5418TIP3    H137669   1.581   1.420   1.513  0.0497  1.4344 -0.9063
 5418TIP3    H237670   1.445   1.470   1.469 -0.5004 -0.1408 -1.0584
 5419TIP3   OH237671   6.353   2.796  15.395  0.4125  0.8369 -0.4841
 5419TIP3    H137672   6.300   2.868  15.429  0.4226  0.0538  1.2611
 5419TIP3    H237673   6.395   2.833  15.317 -0.8105  2.2144 -0.5273
 5420TIP3   OH237674   4.106   3.618   1.305 -0.6444 -0.0588 -0.2559
 5420TIP3    H137675   4.030   3.676   1.304  0.1231  1.1234  2.0957
 5420TIP3    H237676   4.069   3.530   1.305 -2.3769  0.3978  4.2913
 5421TIP3   OH237677   2.860   1.828  15.215  0.0602  0.2203  0.2985
 5421TIP3    H137678   2.818   1.914  15.217 -0.3260  0.0292  0.8883
 5421TIP3    H237679   2.948   1.845  15.184 -0.3949  0.6590 -0.8065
 5422TIP3   OH237680   3.780   1.394   2.251 -0.5299 -0.4119 -0.0279
 5422TIP3    H137681   3.730   1.469   2.282  0.5872  0.2802  0.1460
 5422TIP3    H237682   3.747   1.378   2.162  0.9629  1.9209 -1.0712
 5423TIP3   OH237683   6.309   3.134  15.189  0.0195 -0.6867 -0.1580
 5423TIP3    H137684   6.256   3.085  15.251 -4.0712  0.7666 -2.1360
 5423TIP3    H237685   6.384   3.078  15.171 -1.1086 -3.2421  2.4073
 5424TIP3   OH237686   1.513   5.631   4.857  0.3560 -0.4973  0.0509
 5424TIP3    H137687   1.520   5.717   4.898  1.0250  1.7457 -4.2567
 5424TIP3    H237688   1.420   5.608   4.864  0.3903 -0.2142  2.4146
 5425TIP3   OH237689   1.819   6.046  14.450 -0.3772  0.0475 -0.2745
 5425TIP3    H137690   1.842   6.131  14.411  0.9836  0.0523  0.4871
 5425TIP3    H237691   1.791   6.068  14.539 -1.8849 -0.1333 -0.6750
 5426TIP3   OH237692   2.320   2.416  14.248  0.2591  0.0888  0.1306
 5426TIP3    H137693   2.320   2.450  14.158  4.0122  1.6396  0.5400
 5426TIP3    H237694   2.252   2.466  14.293  0.0079  1.0485 -1.2507
 5427TIP3   OH237695   6.045   5.226  10.535  0.5710 -0.3340  0.1849
 5427TIP3    H137696   5.989   5.202  10.609  2.0549 -1.2908  1.0629
 5427TIP3    H237697   6.117   5.275  10.575  1.2706 -0.6464 -0.6539
 5428TIP3   OH237698   5.412   5.981  13.160 -0.3795  0.5298 -0.1598
 5428TIP3    H137699   5.408   6.022  13.073 -0.0976  0.8075 -0.0460
 5428TIP3    H237700   5.425   5.888  13.142 -1.4594  0.4175 -0.4301
 5429TIP3   OH237701   2.561   5.281  12.774 -0.3146  0.4511 -0.0369
 5429TIP3    H137702   2.562   5.318  12.685 -0.3359 -2.5491 -1.4187
 5429TIP3    H237703   2.650   5.250  12.788 -0.5363  0.0909  0.6100
 5430TIP3   OH237704   6.573   1.812  15.220  0.0550  0.1785  0.1188
 5430TIP3    H137705   6.496   1.847  15.266  1.0965 -1.1977  3.1943
 5430TIP3    H237706   6.645   1.869  15.247  0.5522 -0.0690 -0.6561
 5431TIP3   OH237707   6.645   1.069  13.119 -0.1657  0.0287 -0.2326
 5431TIP3    H137708   6.687   1.132  13.178  3.2719 -2.6483  0.4831
 5431TIP3    H237709   6.710   1.050  13.053 -1.3416 -2.1983 -0.8510
 5432TIP3   OH237710   0.976   4.768   1.746 -0.3630 -0.0287  0.0062
 5432TIP3    H137711   1.040   4.741   1.811 -0.2306 -1.6828 -0.7657
 5432TIP3    H237712   0.936   4.847   1.783  0.8056 -0.0225  1.3416
 5433TIP3   OH237713   3.867   2.265   4.721 -0.2687  0.8741  0.5570
 5433TIP3    H137714   3.846   2.358   4.710 -1.9230  0.3089 -1.9285
 5433TIP3    H237715   3.958   2.258   4.691 -0.6476  1.4802 -0.8132
 5434TIP3   OH237716   0.397   1.742  16.253 -0.5054  0.5838 -0.4965
 5434TIP3    H137717   0.433   1.752  16.165 -1.3300  0.7706 -0.8188
 5434TIP3    H237718   0.354   1.826  16.271  0.0280  0.7033  0.2589
 5435TIP3   OH237719   1.040   1.010   6.480 -0.7796  0.0026  0.0769
 5435TIP3    H137720   1.012   0.920   6.497 -1.0664 -0.1878 -1.2669
 5435TIP3    H237721   0.997   1.062   6.548 -0.8138 -0.8447  0.7131
 5436TIP3   OH237722   3.136   6.612  13.866 -0.0902 -0.2161  0.5794
 5436TIP3    H137723   3.167   6.521  13.870  0.3617 -0.0184  2.6353
 5436TIP3    H237724   3.149   6.645  13.955  0.9698  2.2665 -0.4121
 5437TIP3   OH237725   0.225   4.622  11.553  0.4683 -0.3264  0.1013
 5437TIP3    H137726   0.315   4.595  11.532  0.4700  0.2094 -0.6388
 5437TIP3    H237727   0.193   4.556  11.614  1.3117 -0.6122  0.2406
 5438TIP3   OH237728   0.811   2.072  15.593  0.0620 -0.2965 -0.0367
 5438TIP3    H137729   0.846   1.994  15.636  1.6536 -0.6489 -1.8041
 5438TIP3    H237730   0.868   2.144  15.622 -1.2282  0.1930  1.3704
 5439TIP3   OH237731   4.838   2.654   4.620  0.4552  0.6514 -0.1592
 5439TIP3    H137732   4.912   2.597   4.640  2.1877  2.3028 -1.5135
 5439TIP3    H237733   4.820   2.637   4.528 -2.6429 -1.5734  0.6865
 5440TIP3   OH237734   4.550   0.759   4.823 -0.0686  0.0253  0.4171
 5440TIP3    H137735   4.530   0.695   4.755 -1.1421  0.2962  0.4532
 5440TIP3    H237736   4.612   0.715   4.880  0.5736 -0.3310 -0.5415
 5441TIP3   OH237737   5.625   1.914   6.428  0.2910  0.3848 -0.5101
 5441TIP3    H137738   5.633   1.914   6.524 -1.0151 -0.1277 -0.3699
 5441TIP3    H237739   5.556   1.850   6.410 -0.7800  1.7878 -1.6703
 5442TIP3   OH237740   5.719   4.764   1.175  0.1914  0.0669  0.4793
 5442TIP3    H137741   5.785   4.709   1.218 -1.0352 -1.0949  0.9605
 5442TIP3    H237742   5.648   4.770   1.239 -0.9886 -0.3448 -0.7341
 5443TIP3   OH237743   6.346   1.519   2.869  0.2001 -0.2571  0.1844
 5443TIP3    H137744   6.290   1.503   2.944 -0.2808 -0.4232 -0.2052
 5443TIP3    H237745   6.357   1.614   2.866  0.3587 -0.2630  0.5597
 5444TIP3   OH237746   5.481   1.323  16.281  0.4757 -0.1194 -0.2618
 5444TIP3    H137747   5.466   1.232  16.254  1.7588 -0.7490  0.9752
 5444TIP3    H237748   5.401   1.369  16.256 -0.7059 -1.8326  0.1320
 5445TIP3   OH237749   1.422   4.735   4.488  0.1025  0.0589 -0.0114
 5445TIP3    H137750   1.481   4.681   4.435 -0.3103 -0.8923  0.4723
 5445TIP3    H237751   1.347   4.679   4.505  1.1212 -0.4962  3.3850
 5446TIP3   OH237752   3.536   4.464   3.223  0.0752  0.3380 -0.5400
 5446TIP3    H137753   3.501   4.495   3.306 -2.3272  0.4929 -1.5264
 5446TIP3    H237754   3.500   4.375   3.214  2.8402 -0.9336 -0.0389
 5447TIP3   OH237755   4.798   5.937  11.231 -0.5226  0.0235 -0.5242
 5447TIP3    H137756   4.740   5.979  11.167  1.1439  1.3250 -1.2400
 5447TIP3    H237757   4.804   5.846  11.201 -1.9178 -0.0731 -0.5993
 5448TIP3   OH237758   6.481   1.627  16.082 -0.0763  0.0398  0.0342
 5448TIP3    H137759   6.539   1.689  16.126  0.4606 -0.9478  0.7486
 5448TIP3    H237760   6.411   1.611  16.145 -0.0458 -0.3214 -0.0214
 5449TIP3   OH237761   1.944   5.320   4.275  0.2366  0.0550 -0.5557
 5449TIP3    H137762   1.957   5.251   4.339  1.5515 -0.3012 -1.1700
 5449TIP3    H237763   1.874   5.288   4.219  2.1050 -1.7503 -2.0312
 5450TIP3   OH237764   5.012   6.626  14.223  0.3418 -0.5956  0.6847
 5450TIP3    H137765   4.933   6.681  14.228  1.5991  1.2677  1.3285
 5450TIP3    H237766   4.989   6.547  14.271 -2.4236 -1.9348 -2.4191
 5451TIP3   OH237767   0.106   1.042   5.932 -0.1226  0.7495 -0.2868
 5451TIP3    H137768   0.015   1.038   5.904  0.1073  0.5846 -1.0328
 5451TIP3    H237769   0.146   1.110   5.878  0.6613 -0.5237 -1.3818
 5452TIP3   OH237770   2.156   1.760   3.754  0.2361  0.7820 -0.5321
 5452TIP3    H137771   2.198   1.769   3.669 -1.6912 -0.9479 -1.7827
 5452TIP3    H237772   2.086   1.696   3.739 -2.7151  3.2430  1.3737
 5453TIP3   OH237773   4.369   2.974  16.014  0.2215 -0.1168 -0.1270
 5453TIP3    H137774   4.320   3.057  16.020 -1.6689 -0.8526 -3.0817
 5453TIP3    H237775   4.453   2.993  16.056 -0.9847  2.5547  1.3970
 5454TIP3   OH237776   1.490   2.870   0.200  0.2264  0.0563  0.4166
 5454TIP3    H137777   1.511   2.910   0.115 -0.0047  0.0937  0.3774
 5454TIP3    H237778   1.440   2.792   0.177 -0.0349  0.1905  0.5285
 5455TIP3   OH237779   0.706   1.096  12.457  0.4223  0.3695 -0.3271
 5455TIP3    H137780   0.686   1.153  12.382  0.2337  0.0974 -0.4820
 5455TIP3    H237781   0.650   1.128  12.527  0.2710  0.3339 -0.4319
 5456TIP3   OH237782   5.473   1.530   4.556  0.1527  0.0587  0.6641
 5456TIP3    H137783   5.559   1.569   4.571  0.1783 -0.4278  1.8935
 5456TIP3    H237784   5.432   1.586   4.491  1.3384  0.3886  0.1789
 5457TIP3   OH237785   2.627   1.815   0.883  0.6330  0.0625  0.1224
 5457TIP3    H137786   2.640   1.909   0.874  1.3674  0.0593  1.0051
 5457TIP3    H237787   2.715   1.777   0.876  0.9519 -0.1916  3.6173
 5458TIP3   OH237788   3.082   2.129  15.975  0.7376  0.1011  0.5090
 5458TIP3    H137789   3.052   2.039  15.988  0.7172 -0.1259 -0.9432
 5458TIP3    H237790   3.015   2.183  16.018  0.0672 -0.5289  0.2801
 5459TIP3   OH237791   6.725   5.674  16.844 -0.1942 -0.2477  0.3846
 5459TIP3    H137792   6.706   5.695  16.936 -0.1598 -1.3975  0.6618
 5459TIP3    H237793   6.718   5.759  16.799 -2.2372  0.0297  1.1010
 5460TIP3   OH237794   4.526   6.603  14.031  0.2170 -0.7238  0.7885
 5460TIP3    H137795   4.479   6.527  14.064 -0.7287  0.0773  1.3170
 5460TIP3    H237796   4.491   6.618  13.943 -0.5815 -0.0936  1.2038
 5461TIP3   OH237797   5.249   4.519  13.197  0.4373  0.3979 -0.4774
 5461TIP3    H137798   5.334   4.480  13.219  0.9046  1.3141 -0.6166
 5461TIP3    H237799   5.232   4.490  13.107 -0.0011 -0.8025 -0.0312
 5462TIP3   OH237800   1.495   6.064  13.675 -0.0690  0.8083  0.3897
 5462TIP3    H137801   1.423   6.001  13.661 -0.5855  1.0909  1.6331
 5462TIP3    H237802   1.510   6.102  13.589 -1.6224  0.9546  0.1514
 5463TIP3   OH237803   6.250   4.428   4.940 -0.3198 -0.2504 -0.6015
 5463TIP3    H137804   6.166   4.466   4.915 -0.1256 -0.0879 -1.0084
 5463TIP3    H237805   6.229   4.375   5.017 -0.6758  0.3121 -0.3008
 5464TIP3   OH237806   5.205   4.525   1.649  0.1670  0.3815  0.4508
 5464TIP3    H137807   5.255   4.607   1.653  2.1266 -0.6058 -1.3388
 5464TIP3    H237808   5.272   4.457   1.655 -1.2421 -1.0563  0.2772
 5465TIP3   OH237809   2.341   6.605  16.343 -0.5810  0.0971  0.4987
 5465TIP3    H137810   2.394   6.604  16.264 -0.6439 -1.7624  0.4369
 5465TIP3    H237811   2.353   6.518  16.381 -1.0760  0.7240  2.1931
 5466TIP3   OH237812   4.901   3.302  15.334 -0.1056 -0.5788 -0.2963
 5466TIP3    H137813   4.905   3.339  15.422 -1.0127 -0.4167 -0.3141
 5466TIP3    H237814   4.833   3.235  15.340 -0.6358 -0.1149 -1.0391
 5467TIP3   OH237815   3.741   4.370  15.645 -1.0045 -0.4676 -0.3118
 5467TIP3    H137816   3.751   4.357  15.739 -0.7493  0.0506 -0.2668
 5467TIP3    H237817   3.751   4.283  15.608  1.0015 -0.3898 -0.0421
 5468TIP3   OH237818   1.530   1.467   1.832  0.2122  0.1145 -0.3663
 5468TIP3    H137819   1.588   1.391   1.843  1.5923  1.3905  1.9977
 5468TIP3    H237820   1.586   1.534   1.791 -0.0690  0.7963  0.3382
 5469TIP3   OH237821   5.828   6.216   5.442  0.1518 -0.4679 -0.0151
 5469TIP3    H137822   5.806   6.124   5.428 -0.4027 -0.1503 -1.3666
 5469TIP3    H237823   5.743   6.260   5.447  0.4225  0.0397  0.1720
 5470TIP3   OH237824   3.736   0.892   5.945 -0.3987 -0.3071 -0.1123
 5470TIP3    H137825   3.641   0.899   5.952 -0.1938  2.7085  1.3736
 5470TIP3    H237826   3.762   0.841   6.023 -0.7012  0.5268  0.5506
 5471TIP3   OH237827   0.331   6.671   2.859  0.6481  0.1762 -0.6025
 5471TIP3    H137828   0.347   6.713   2.944 -1.7924 -0.8979  0.4856
 5471TIP3    H237829   0.312   6.743   2.800 -1.8157  0.7904  0.8299
 5472TIP3   OH237830   1.811   3.587  15.930 -0.4824  0.3451  0.3565
 5472TIP3    H137831   1.882   3.640  15.967 -1.1764  1.2757  0.4098
 5472TIP3    H237832   1.839   3.568  15.841  2.0371 -3.4202  1.7362
 5473TIP3   OH237833   0.611   1.813  14.827 -0.1119 -0.0718 -0.2168
 5473TIP3    H137834   0.571   1.753  14.890 -0.7288  0.2835 -0.2612
 5473TIP3    H237835   0.679   1.859  14.877 -0.5946  0.2030  0.1915
 5474TIP3   OH237836   4.407   4.791  16.404 -0.2955 -0.7170 -0.2251
 5474TIP3    H137837   4.386   4.792  16.498  1.8602  2.0808  0.3661
 5474TIP3    H237838   4.502   4.804  16.401 -0.3522 -0.4675 -2.8057
 5475TIP3   OH237839   0.986   6.353  17.260  0.0147 -0.1864  0.3796
 5475TIP3    H137840   0.974   6.436  17.215  0.4342 -0.1525  0.3289
 5475TIP3    H237841   0.932   6.291  17.211 -0.2032  0.0274  0.3459
 5476TIP3   OH237842   6.329   2.329   4.324  0.0127 -0.2889  0.1332
 5476TIP3    H137843   6.250   2.289   4.361 -0.4151  0.2017 -0.2396
 5476TIP3    H237844   6.309   2.339   4.231  0.8028 -0.8389 -0.1094
 5477TIP3   OH237845   5.236   0.847   3.600 -0.0500  0.0189  0.8054
 5477TIP3    H137846   5.291   0.871   3.525  0.7101  0.6488  1.5508
 5477TIP3    H237847   5.275   0.892   3.674 -0.5122 -0.9761  1.6787
 5478TIP3   OH237848   5.914   5.920  12.173  0.0025  0.4466  0.0446
 5478TIP3    H137849   6.007   5.924  12.152 -0.5727  0.6872 -2.8635
 5478TIP3    H237850   5.882   5.843  12.126 -1.5820  1.4100 -0.5103
 5479TIP3   OH237851   6.574   3.804   1.585  0.1040 -0.0464  0.4594
 5479TIP3    H137852   6.505   3.782   1.522  1.1217  1.0886 -1.1229
 5479TIP3    H237853   6.645   3.743   1.565  0.6242  0.6491  0.1272
 5480TIP3   OH237854   1.635   5.973   0.364 -0.9465 -0.8859  0.3714
 5480TIP3    H137855   1.618   6.062   0.334  2.3002 -0.1956  0.1964
 5480TIP3    H237856   1.610   5.918   0.290 -2.1374 -0.0964  0.1486
 5481TIP3   OH237857   6.677   3.529   2.742 -0.4614  0.6724 -0.8698
 5481TIP3    H137858   6.612   3.459   2.743  0.8815 -0.6686 -1.9381
 5481TIP3    H237859   6.659   3.580   2.821 -0.0547 -2.2590  1.2759
 5482TIP3   OH237860   2.156   1.514  11.236  0.5709 -0.3747  0.6189
 5482TIP3    H137861   2.120   1.462  11.164  0.7216  1.2191 -0.6698
 5482TIP3    H237862   2.080   1.544  11.285  0.3116  0.2506 -0.1420
 5483TIP3   OH237863   5.495   3.088  14.413 -0.6935  0.2896  0.0061
 5483TIP3    H137864   5.559   3.059  14.478  0.2438 -2.2708 -1.8997
 5483TIP3    H237865   5.512   3.182  14.403  0.1014  0.4624  2.3008
 5484TIP3   OH237866   0.068   6.292   3.374 -0.2551 -0.6116 -0.0962
 5484TIP3    H137867   0.096   6.269   3.285 -0.4215 -0.6581 -0.1363
 5484TIP3    H237868   0.051   6.207   3.416  2.7760 -0.8119  0.9625
 5485TIP3   OH237869   1.760   4.075  13.461 -0.4738  0.7864 -0.2646
 5485TIP3    H137870   1.798   4.120  13.386  0.2704 -0.6251 -0.7654
 5485TIP3    H237871   1.785   3.984  13.450 -0.8218  0.4515  1.4155
 5486TIP3   OH237872   4.351   1.012   5.981  0.4164 -0.2722  0.4156
 5486TIP3    H137873   4.420   1.015   6.046  0.5359 -0.4736  0.2983
 5486TIP3    H237874   4.278   1.060   6.021  0.9154  0.6922  0.1936
 5487TIP3   OH237875   2.669   6.497   1.348  0.2309  0.1871 -0.3291
 5487TIP3    H137876   2.739   6.515   1.411 -0.1939 -1.5681  0.7027
 5487TIP3    H237877   2.715   6.473   1.268  0.7765  1.0911 -0.3074
 5488TIP3   OH237878   3.474   5.027  16.888  0.1541  0.2047 -0.6641
 5488TIP3    H137879   3.559   5.066  16.864  0.7546 -0.5692  0.1336
 5488TIP3    H237880   3.487   4.995  16.978 -0.7907 -0.4577 -0.7512
 5489TIP3   OH237881   4.225   0.070  16.146 -0.3573  0.3179 -0.4180
 5489TIP3    H137882   4.277  -0.003  16.180 -0.2314  0.9593  0.8132
 5489TIP3    H237883   4.186   0.036  16.066  1.0967 -0.5306 -0.8027
 5490TIP3   OH237884   3.393   1.881  12.284  0.0506  0.4866 -0.1444
 5490TIP3    H137885   3.479   1.889  12.242 -0.0304  0.7218 -0.2692
 5490TIP3    H237886   3.403   1.808  12.345  0.7875  1.4658  0.9476
 5491TIP3   OH237887   0.210   1.130   2.538  0.1145 -0.3881  0.1092
 5491TIP3    H137888   0.166   1.146   2.621  1.5638 -0.3468  0.8905
 5491TIP3    H237889   0.292   1.179   2.544 -0.3592  0.7616 -1.9129
 5492TIP3   OH237890   5.426   2.388  12.000  0.0341 -0.7308 -0.0046
 5492TIP3    H137891   5.353   2.445  12.026 -0.1738 -0.2049 -1.6219
 5492TIP3    H237892   5.497   2.448  11.979  0.4902 -1.1760  0.2438
 5493TIP3   OH237893   0.619   3.655   1.461 -0.0258  0.8434  0.3550
 5493TIP3    H137894   0.608   3.631   1.369 -0.6255  0.6060  0.4843
 5493TIP3    H237895   0.703   3.617   1.486 -0.3405  0.0089  0.1862
 5494TIP3   OH237896   1.629   4.474  14.154  0.3025  0.1919 -0.1461
 5494TIP3    H137897   1.700   4.417  14.124 -0.1020 -1.2085  1.3823
 5494TIP3    H237898   1.666   4.562  14.150  2.5239 -0.5574  1.4248
 5495TIP3   OH237899   3.436   3.801  12.741 -0.4693 -0.2246 -0.0706
 5495TIP3    H137900   3.432   3.731  12.806 -2.8423 -0.8734 -0.8157
 5495TIP3    H237901   3.344   3.817  12.718  0.0247  2.7982 -0.3025
 5496TIP3   OH237902   4.336   6.478   1.728 -0.2361 -0.2228  0.1603
 5496TIP3    H137903   4.251   6.522   1.721 -0.5892 -0.2545  3.0069
 5496TIP3    H237904   4.400   6.548   1.725  0.0369 -0.3415 -4.6470
 5497TIP3   OH237905   5.915   5.997  11.604  0.1504  0.2380 -0.1711
 5497TIP3    H137906   5.993   5.944  11.620  0.5538  0.8289 -0.1407
 5497TIP3    H237907   5.842   5.938  11.621  0.5351 -1.1550 -2.8919
 5498TIP3   OH237908   3.285   5.901  13.771  0.4219  0.0804 -0.4215
 5498TIP3    H137909   3.279   5.908  13.867 -2.9245 -0.8586 -0.4568
 5498TIP3    H237910   3.279   5.807  13.754  2.1888  0.1307 -1.5696
 5499TIP3   OH237911   1.065   2.912  15.959  0.5118  0.2906  0.1234
 5499TIP3    H137912   0.971   2.912  15.939  0.5931  0.0421 -0.2692
 5499TIP3    H237913   1.086   2.821  15.978  0.7430  0.2887 -0.1318
 5500TIP3   OH237914   0.442   2.794   3.312  0.2100 -0.3603  0.2393
 5500TIP3    H137915   0.495   2.791   3.232 -0.0958  1.1385 -0.0580
 5500TIP3    H237916   0.352   2.792   3.280  0.0867 -0.6688  0.6094
 5501TIP3   OH237917   5.693   1.354   1.663 -0.2758  0.4103  0.0067
 5501TIP3    H137918   5.786   1.343   1.643 -0.1536  1.3873 -0.0098
 5501TIP3    H237919   5.648   1.323   1.585 -0.0403 -1.3723  0.5277
 5502TIP3   OH237920   4.997   5.680  11.841  0.4672 -0.2540  0.2557
 5502TIP3    H137921   4.976   5.587  11.833  0.2552 -0.1996  0.1538
 5502TIP3    H237922   4.913   5.721  11.861  0.0034  0.2579 -2.4163
 5503TIP3   OH237923   2.910   3.290  15.119 -0.0712 -0.4906 -0.0857
 5503TIP3    H137924   2.870   3.368  15.081 -1.0445  0.6233  2.8764
 5503TIP3    H237925   2.846   3.221  15.106 -1.2084  0.3064  1.0070
 5504TIP3   OH237926   4.163   0.877   4.409 -0.4803  0.0758  0.0676
 5504TIP3    H137927   4.252   0.890   4.441 -0.4594  0.0308  0.0274
 5504TIP3    H237928   4.163   0.790   4.370 -0.2617  0.4626 -0.8399
 5505TIP3   OH237929   0.959   2.968  12.514 -0.1004 -0.0337  0.1786
 5505TIP3    H137930   0.972   3.001  12.602  2.5963 -0.7388  0.1367
 5505TIP3    H237931   0.947   3.046  12.460 -3.1575  0.3665  1.2511
 5506TIP3   OH237932   1.762   1.026   2.427  0.0643 -0.3728  0.1441
 5506TIP3    H137933   1.850   1.060   2.445  0.3977 -1.9424  1.6782
 5506TIP3    H237934   1.773   0.973   2.348  0.9611 -2.0562  1.3247
 5507TIP3   OH237935   6.509   0.377   5.563 -0.2363  0.2351  0.8125
 5507TIP3    H137936   6.578   0.405   5.504  1.4464 -1.0977  2.0273
 5507TIP3    H237937   6.440   0.344   5.506  0.6540  0.4713 -0.4320
 5508TIP3   OH237938   5.091   4.000  13.220  0.1077 -0.0075 -0.0596
 5508TIP3    H137939   5.141   4.015  13.300  0.6249  0.1942 -0.4173
 5508TIP3    H237940   5.014   3.951  13.249 -0.1663  0.8412  0.6999
 5509TIP3   OH237941   0.760   5.141  15.190  0.0964  1.1376 -0.1267
 5509TIP3    H137942   0.820   5.215  15.203  0.4875  0.7777  0.1401
 5509TIP3    H237943   0.796   5.094  15.115 -0.0451  1.1112 -0.1774
 5510TIP3   OH237944   6.389   5.444  15.202 -0.1690  0.0048 -0.1185
 5510TIP3    H137945   6.452   5.384  15.163 -0.2777 -1.2614  1.5459
 5510TIP3    H237946   6.414   5.531  15.170 -0.2471 -0.9311 -2.8933
 5511TIP3   OH237947   1.642   2.491   2.734 -0.3560  0.2166 -0.4909
 5511TIP3    H137948   1.669   2.494   2.643  0.0719 -1.4857 -0.4507
 5511TIP3    H237949   1.572   2.426   2.737 -0.1873  0.0591  0.4168
 5512TIP3   OH237950   0.832   3.392   1.675  0.5345  0.0220  0.7260
 5512TIP3    H137951   0.759   3.331   1.683  1.3027 -0.7692  1.9883
 5512TIP3    H237952   0.881   3.360   1.599 -0.0523  0.1549  0.2849
 5513TIP3   OH237953   2.075   2.189   3.923 -0.1824 -0.2945 -0.0726
 5513TIP3    H137954   2.034   2.242   3.854 -0.5095 -0.6445 -0.1478
 5513TIP3    H237955   2.147   2.244   3.955 -2.2058  1.4257  1.7872
 5514TIP3   OH237956   6.233   1.556  11.115  0.6273  0.1124 -0.2198
 5514TIP3    H137957   6.243   1.471  11.159  2.5204 -0.4170 -1.5260
 5514TIP3    H237958   6.194   1.535  11.031 -1.4707  0.9328  0.4811
 5515TIP3   OH237959   6.162   5.591   0.015 -0.8664  0.1584 -0.0487
 5515TIP3    H137960   6.125   5.570   0.100  1.3957  1.3154  1.3272
 5515TIP3    H237961   6.239   5.534   0.008 -0.9162  0.2205 -1.2184
 5516TIP3   OH237962   1.898   2.970  12.367  0.6329  0.3499 -0.5478
 5516TIP3    H137963   1.917   2.890  12.319  0.3900 -0.5829  0.8361
 5516TIP3    H237964   1.953   2.964  12.446 -0.2716  0.9677  0.1503
 5517TIP3   OH237965   6.625   2.348   2.432 -0.2253  0.2229  0.0701
 5517TIP3    H137966   6.687   2.291   2.387  1.0980  1.4933  0.2120
 5517TIP3    H237967   6.668   2.370   2.514 -0.6703  1.4624 -0.0129
 5518TIP3   OH237968   4.117   4.297  14.062  0.3261 -0.7102  0.1577
 5518TIP3    H137969   4.107   4.311  14.156 -1.7257  0.9366 -0.2386
 5518TIP3    H237970   4.100   4.203  14.050 -1.5908 -0.5583  1.2370
 5519TIP3   OH237971   2.323   4.028   3.814 -0.0813  0.1213 -0.0313
 5519TIP3    H137972   2.306   4.006   3.906 -2.4349  0.9055 -0.2226
 5519TIP3    H237973   2.312   3.945   3.767  2.3693 -0.5692  0.4444
 5520TIP3   OH237974   1.050   3.374  14.461 -0.8380  0.3504 -0.6826
 5520TIP3    H137975   1.054   3.375  14.556 -2.4207  0.3291 -0.5810
 5520TIP3    H237976   1.093   3.455  14.434  0.6802 -0.2126 -0.0353
 5521TIP3   OH237977   3.576   2.786  14.335 -0.1558  0.6823 -0.4751
 5521TIP3    H137978   3.644   2.732  14.295  1.0121  2.0490 -0.4385
 5521TIP3    H237979   3.498   2.770  14.283  0.8975  1.1327 -2.2960
 5522TIP3   OH237980   4.137   3.392   0.588  0.2507 -0.0469  0.6208
 5522TIP3    H137981   4.165   3.382   0.497 -1.6647 -0.6123  0.0310
 5522TIP3    H237982   4.161   3.482   0.611 -0.1585  0.4621 -0.8278
 5523TIP3   OH237983   6.682   6.494   0.202  0.3759  0.2388  0.0719
 5523TIP3    H137984   6.742   6.553   0.248  0.1013  0.0396  0.6963
 5523TIP3    H237985   6.606   6.488   0.259  0.2693 -0.4744 -0.1327
 5524TIP3   OH237986   3.990   5.691   3.812 -0.7013  0.1903  0.4858
 5524TIP3    H137987   4.013   5.758   3.877  2.3999 -1.0616  0.8315
 5524TIP3    H237988   3.962   5.616   3.864 -0.9763  0.1128  0.2301
 5525TIP3   OH237989   2.789   2.491  13.304  0.6781 -0.3665 -0.0554
 5525TIP3    H137990   2.780   2.571  13.357  2.1597 -1.0538  1.3068
 5525TIP3    H237991   2.701   2.477  13.268 -0.4262  0.1671  2.2231
 5526TIP3   OH237992   0.398   4.118   0.040 -0.3738  0.4078 -0.8941
 5526TIP3    H137993   0.402   4.075   0.125 -2.1705  0.6531 -0.6477
 5526TIP3    H237994   0.404   4.212   0.059  2.1199  0.4123 -1.3196
 5527TIP3   OH237995   5.012   1.294   3.233  0.5865  0.0217  0.3733
 5527TIP3    H137996   4.946   1.341   3.181  1.4396  1.7849  0.8016
 5527TIP3    H237997   4.963   1.258   3.306  0.0824  1.5475  0.8347
 5528TIP3   OH237998   6.337   0.234   2.392  0.3076 -0.4077  0.0951
 5528TIP3    H137999   6.407   0.231   2.327  0.4262 -0.0462  0.2040
 5528TIP3    H238000   6.297   0.320   2.380  0.7540 -0.0709  0.9340
 5529TIP3   OH238001   2.733   1.305   5.966 -0.7775  0.8260 -0.5404
 5529TIP3    H138002   2.725   1.399   5.948  2.9161  1.3545 -0.2274
 5529TIP3    H238003   2.766   1.268   5.885  2.4942  0.7750  0.6761
 5530TIP3   OH238004   0.359   0.171  14.918  0.4964 -0.2017  0.2138
 5530TIP3    H138005   0.387   0.132  14.835  1.0744  0.5621  0.0340
 5530TIP3    H238006   0.412   0.250  14.926  0.2035 -0.0891  1.1533
 5531TIP3   OH238007   0.766   3.704   5.297  0.1615  0.3143  0.8025
 5531TIP3    H138008   0.812   3.649   5.361  0.3273  1.3622  1.6199
 5531TIP3    H238009   0.819   3.698   5.218 -0.2405 -1.2985  0.6139
 5532TIP3   OH238010   3.099   0.556  12.935 -0.0384  0.4308 -0.1145
 5532TIP3    H138011   3.013   0.563  12.978 -0.0250 -0.4394  0.0618
 5532TIP3    H238012   3.156   0.516  13.001  0.6083  1.3359 -0.1030
 5533TIP3   OH238013   2.479   0.852  11.120 -0.5704  0.3806  0.0521
 5533TIP3    H138014   2.557   0.818  11.075 -0.7315 -0.5345  0.4446
 5533TIP3    H238015   2.435   0.905  11.054  1.4692  2.7232  0.3988
 5534TIP3   OH238016   3.987   4.046  12.738 -0.6273 -0.7554 -0.1456
 5534TIP3    H138017   3.979   4.053  12.643  0.3955  0.3909 -0.1780
 5534TIP3    H238018   4.078   4.018  12.752 -0.1523  0.9834  0.5246
 5535TIP3   OH238019   0.389   5.106  12.579 -0.1165  0.7239  0.5254
 5535TIP3    H138020   0.443   5.029  12.596 -0.1539  0.9364  1.6634
 5535TIP3    H238021   0.443   5.163  12.524 -0.4419 -0.5127 -1.1780
 5536TIP3   OH238022   6.168   4.312   0.378 -0.1432 -0.3738 -0.3815
 5536TIP3    H138023   6.239   4.250   0.394 -0.6617 -0.6070  1.2769
 5536TIP3    H238024   6.199   4.394   0.415 -0.9295 -0.6227  0.8909
 5537TIP3   OH238025   5.502   3.399   1.669  0.2180  0.0533  0.2752
 5537TIP3    H138026   5.453   3.382   1.749  1.1707  2.1872  1.4258
 5537TIP3    H238027   5.461   3.478   1.632  1.3657  0.5870  0.0817
 5538TIP3   OH238028   5.144   3.126   1.830 -0.2096  0.0139 -0.1411
 5538TIP3    H138029   5.095   3.062   1.779  0.4623 -0.4874 -0.1758
 5538TIP3    H238030   5.120   3.210   1.791 -1.1018 -0.2106 -0.0918
 5539TIP3   OH238031   3.280   6.040   4.170 -0.3678  0.1080 -0.0119
 5539TIP3    H138032   3.313   6.044   4.081 -1.7411  1.6731 -0.5136
 5539TIP3    H238033   3.356   6.062   4.225 -0.2849  2.8730 -1.0744
 5540TIP3   OH238034   0.070   3.603  14.609 -0.0284 -1.0378 -0.2451
 5540TIP3    H138035   0.004   3.578  14.546 -0.8498 -0.5751  0.4157
 5540TIP3    H238036   0.080   3.698  14.599  0.3975 -1.0731 -0.2076
 5541TIP3   OH238037   2.440   3.564  17.233  0.2225 -0.3718  0.5286
 5541TIP3    H138038   2.364   3.565  17.291 -0.1713  0.7227  0.0166
 5541TIP3    H238039   2.478   3.652  17.242  1.4509 -0.9133  0.8000
 5542TIP3   OH238040   5.540   4.917   1.400 -0.3233  0.5025  0.4694
 5542TIP3    H138041   5.460   4.868   1.384 -0.3996  0.4054  1.1344
 5542TIP3    H238042   5.519   5.007   1.374 -0.6681  0.4928  0.7218
 5543TIP3   OH238043   2.584   6.084   4.631  0.0904  0.1130 -0.6626
 5543TIP3    H138044   2.540   6.001   4.648 -0.5440  0.4880 -0.4312
 5543TIP3    H238045   2.634   6.068   4.551  0.3163 -0.6136 -0.3892
 5544TIP3   OH238046   5.207   3.821   0.274 -0.1937 -0.4388 -0.2585
 5544TIP3    H138047   5.126   3.789   0.314 -1.0566 -1.8118 -2.8052
 5544TIP3    H238048   5.274   3.758   0.301 -0.5003 -0.6632 -0.0225
 5545TIP3   OH238049   4.368   5.487   1.756  0.1390  0.7474 -0.1892
 5545TIP3    H138050   4.362   5.470   1.662 -1.4943 -0.7298  0.1373
 5545TIP3    H238051   4.294   5.544   1.775  0.4014  0.9560  0.2327
 5546TIP3   OH238052   0.044   4.572   4.429  0.1273 -0.4454 -0.0683
 5546TIP3    H138053   0.042   4.666   4.446  2.7217 -0.0348 -1.5079
 5546TIP3    H238054   0.110   4.538   4.489  0.5103 -1.0176 -0.7915
 5547TIP3   OH238055   6.531   0.735  12.988 -0.4507  0.6199  0.9928
 5547TIP3    H138056   6.602   0.757  12.928 -1.3112  1.2745  0.2060
 5547TIP3    H238057   6.551   0.784  13.068  1.1746 -0.9367  1.6052
 5548TIP3   OH238058   2.771   5.488  14.817 -0.3725  0.1391  0.7123
 5548TIP3    H138059   2.837   5.486  14.886 -1.0932  1.0892  1.4548
 5548TIP3    H238060   2.742   5.579  14.814  0.9800  0.5787 -2.1495
 5549TIP3   OH238061   6.404   5.330   4.342 -0.1787 -0.3271 -0.0229
 5549TIP3    H138062   6.370   5.311   4.429 -1.8508  0.7691 -0.3860
 5549TIP3    H238063   6.413   5.425   4.340 -1.0136 -0.2552 -1.3229
 5550TIP3   OH238064   3.722   3.410  12.130 -0.0889 -0.1297  0.4736
 5550TIP3    H138065   3.792   3.381  12.071  0.4378  0.2428  0.9014
 5550TIP3    H238066   3.643   3.369  12.096  0.0246  0.8837 -1.1053
 5551TIP3   OH238067   3.050   2.245   4.155  0.2519  0.6077  0.6761
 5551TIP3    H138068   3.140   2.210   4.157  0.1310  0.3105  2.4136
 5551TIP3    H238069   2.996   2.170   4.129  0.4958  0.8263 -0.5302
 5552TIP3   OH238070   5.991   5.400  16.228  0.2351 -0.2579 -0.8785
 5552TIP3    H138071   6.082   5.381  16.250  0.1088 -0.6332 -0.6889
 5552TIP3    H238072   5.948   5.416  16.312 -0.4669 -2.6169 -0.7108
 5553TIP3   OH238073   5.238   1.316   1.894  0.1191  0.5297 -0.0139
 5553TIP3    H138074   5.244   1.381   1.964  3.4322  0.8592 -0.4040
 5553TIP3    H238075   5.293   1.244   1.925 -0.5151 -0.4820 -1.1665
 5554TIP3   OH238076   0.543   5.469  15.561  0.2514 -0.1931  0.6573
 5554TIP3    H138077   0.578   5.416  15.489 -1.7061 -0.1765 -0.3504
 5554TIP3    H238078   0.563   5.418  15.640  1.8233 -0.5320  0.0872
 5555TIP3   OH238079   6.622   5.273  12.524  0.1811 -0.5005  0.2216
 5555TIP3    H138080   6.642   5.225  12.443  2.1452  0.5560  0.0006
 5555TIP3    H238081   6.590   5.206  12.584  0.1769 -1.5916 -0.9418
 5556TIP3   OH238082   6.637   1.759  11.090 -0.3359  0.3928  0.3454
 5556TIP3    H138083   6.685   1.750  11.172  0.5580  0.9263 -0.0983
 5556TIP3    H238084   6.546   1.740  11.113 -0.0669  0.3133  1.4074
 5557TIP3   OH238085   5.780   3.409   5.545 -0.3560 -0.1438 -0.4938
 5557TIP3    H138086   5.808   3.473   5.611 -2.4205  2.1209 -1.6502
 5557TIP3    H238087   5.689   3.390   5.568  0.0161 -2.2107 -0.5792
 5558TIP3   OH238088   0.842   6.660   3.149 -0.0243  0.2271  0.3407
 5558TIP3    H138089   0.872   6.722   3.216  0.6300  0.0308  0.2350
 5558TIP3    H238090   0.921   6.615   3.121 -0.5203 -0.8608  0.6175
 5559TIP3   OH238091   4.100   4.974  12.201  0.0980 -0.2138 -0.6752
 5559TIP3    H138092   4.167   4.994  12.266  0.9312 -1.8778 -0.9700
 5559TIP3    H238093   4.130   5.019  12.122 -0.0562  0.4573 -0.3602
 5560TIP3   OH238094   1.329   6.634  14.552 -0.4083 -0.4088  0.7053
 5560TIP3    H138095   1.244   6.677  14.548  0.0396  0.4218 -0.1829
 5560TIP3    H238096   1.340   6.610  14.644 -1.7239 -0.7922  0.7815
 5561TIP3   OH238097   3.190   0.795  15.423 -0.4305  0.0025  0.0261
 5561TIP3    H138098   3.225   0.729  15.362 -0.7827  1.2605 -1.5873
 5561TIP3    H238099   3.228   0.878  15.394  0.5363  0.5116  2.4248
 5562TIP3   OH238100   3.174   6.188   5.749 -0.0467  0.0889 -0.3646
 5562TIP3    H138101   3.227   6.182   5.670 -1.2249 -0.8533 -1.1142
 5562TIP3    H238102   3.237   6.176   5.821  0.5898 -2.7011 -1.2587
 5563TIP3   OH238103   2.339   5.262  10.585  0.6419 -0.0539  0.0271
 5563TIP3    H138104   2.397   5.333  10.557  0.0214 -0.5470 -2.8466
 5563TIP3    H238105   2.398   5.192  10.614  1.2879  0.9812  1.3328
 5564TIP3   OH238106   0.616   2.673   2.012 -0.5097  0.0036 -0.7122
 5564TIP3    H138107   0.676   2.746   2.001  0.4126 -0.5520  0.3948
 5564TIP3    H238108   0.673   2.596   2.022 -1.2430 -0.2604  2.6535
 5565TIP3   OH238109   6.747   3.823  15.172 -0.6978 -0.1500 -0.3136
 5565TIP3    H138110   6.840   3.839  15.153  0.1563 -1.0048  2.6550
 5565TIP3    H238111   6.702   3.847  15.091  2.1255 -0.0749 -2.0046
 5566TIP3   OH238112   5.501   2.126  11.028 -0.4874 -1.0237 -0.4416
 5566TIP3    H138113   5.471   2.057  10.967  0.0282 -0.1488 -1.7206
 5566TIP3    H238114   5.588   2.098  11.054  0.0404 -0.4876 -1.5766
 5567TIP3   OH238115   3.883   5.356  11.172  0.2569  0.8849 -0.4713
 5567TIP3    H138116   3.956   5.416  11.158  0.5053  0.4385 -1.1203
 5567TIP3    H238117   3.923   5.269  11.174  0.4552  0.8347  4.0457
 5568TIP3   OH238118   2.022   1.082   6.153  0.5951 -0.3519  0.2947
 5568TIP3    H138119   2.084   1.066   6.082 -0.8452 -2.6781 -0.5850
 5568TIP3    H238120   1.979   1.164   6.129 -1.2686 -2.0179 -2.7967
 5569TIP3   OH238121   4.375   1.657   1.104 -0.3913  0.5074  0.8613
 5569TIP3    H138122   4.287   1.693   1.097 -0.0548  1.6135  1.8350
 5569TIP3    H238123   4.394   1.621   1.018 -1.3264  1.3689  0.2760
 5570TIP3   OH238124   5.431   6.187   2.669  0.2760 -0.2565 -0.2648
 5570TIP3    H138125   5.384   6.107   2.644 -0.0222 -0.1735  0.0219
 5570TIP3    H238126   5.414   6.248   2.597  0.1829 -0.3232 -0.3008
 5571TIP3   OH238127   5.352   5.918  12.043  0.3535  0.4342  0.4715
 5571TIP3    H138128   5.290   5.894  11.974 -1.6145  1.6772  1.7167
 5571TIP3    H238129   5.398   5.994  12.009  0.4547  0.1552 -0.0324
 5572TIP3   OH238130   5.128   5.254  16.902  0.0247  0.2715 -0.4245
 5572TIP3    H138131   5.042   5.290  16.883 -0.7046 -0.1435  1.7647
 5572TIP3    H238132   5.182   5.330  16.923 -0.6066  0.3940  0.8957
 5573TIP3   OH238133   5.884   1.191  12.323 -0.5911 -0.8128 -0.3481
 5573TIP3    H138134   5.877   1.116  12.265 -0.8311 -0.0172 -1.3846
 5573TIP3    H238135   5.799   1.235  12.316 -1.5294 -1.9119  2.4028
 5574TIP3   OH238136   5.464   2.039   5.777  0.5071  0.7155  0.1071
 5574TIP3    H138137   5.482   2.130   5.752 -0.1032  0.6570 -0.5818
 5574TIP3    H238138   5.549   1.997   5.777  0.5587  0.6832 -2.0817
 5575TIP3   OH238139   3.532   5.543  16.459  0.1082 -0.3406  0.1005
 5575TIP3    H138140   3.540   5.479  16.530  0.0622 -1.5275 -0.9351
 5575TIP3    H238141   3.505   5.624  16.503  0.8553 -0.8291  1.5250
 5576TIP3   OH238142   5.951   3.852   4.165  0.1974 -0.2969 -0.6873
 5576TIP3    H138143   5.858   3.829   4.172  0.1703 -0.9958 -2.8263
 5576TIP3    H238144   5.996   3.787   4.219 -0.4860 -0.4346 -0.2756
 5577TIP3   OH238145   2.353   5.183   4.722  0.7304 -0.5626 -0.1503
 5577TIP3    H138146   2.359   5.273   4.754  1.2535 -0.4074 -0.6725
 5577TIP3    H238147   2.348   5.191   4.626  1.6470 -1.1216 -0.2553
 5578TIP3   OH238148   0.464   0.380   2.810 -0.5478 -0.1990 -0.0091
 5578TIP3    H138149   0.432   0.442   2.875 -1.8646 -0.4769 -0.3687
 5578TIP3    H238150   0.408   0.393   2.734  1.4896  0.7025 -1.4401
 5579TIP3   OH238151   2.506   4.700  15.118  0.1918 -0.5222  0.1217
 5579TIP3    H138152   2.500   4.724  15.025  0.6628 -2.6712 -0.5239
 5579TIP3    H238153   2.417   4.715  15.152 -0.0964 -0.0957 -0.7683
 5580TIP3   OH238154   1.848   2.184  12.269 -0.1979  0.1327  0.8222
 5580TIP3    H138155   1.885   2.250  12.328 -0.3907 -1.1769  2.4922
 5580TIP3    H238156   1.901   2.106  12.284 -0.6221 -0.4123 -0.3541
 5581TIP3   OH238157   5.663   3.144  15.800  0.0511 -0.3022  0.0601
 5581TIP3    H138158   5.614   3.066  15.827  1.0431 -0.4272  1.6224
 5581TIP3    H238159   5.734   3.109  15.746  0.7984 -0.5750  1.1786
 5582TIP3   OH238160   0.008   0.099  12.468  0.3239 -0.2076  0.3462
 5582TIP3    H138161  -0.085   0.117  12.481  0.2485  0.0199 -0.4642
 5582TIP3    H238162   0.037   0.061  12.551 -0.9946 -2.3444 -0.1182
 5583TIP3   OH238163   0.798   5.990   1.251  0.4030 -0.1391 -0.0862
 5583TIP3    H138164   0.862   5.996   1.321  1.8251 -3.2110 -0.9244
 5583TIP3    H238165   0.840   5.935   1.184 -3.0255 -2.3905 -0.7022
 5584TIP3   OH238166   1.247   2.227  14.130  0.3055 -0.3146 -0.1578
 5584TIP3    H138167   1.178   2.289  14.103  0.4936 -0.4645 -0.9948
 5584TIP3    H238168   1.199   2.153  14.168  0.0785  0.3575  0.9141
 5585TIP3   OH238169   0.510   4.553  14.653  0.2842 -0.4042 -0.0909
 5585TIP3    H138170   0.548   4.637  14.678  0.6678 -0.2595 -1.0940
 5585TIP3    H238171   0.586   4.497  14.633  0.1030 -1.5017  2.0276
 5586TIP3   OH238172   6.481   5.195   3.521 -0.0359  0.0688 -0.4468
 5586TIP3    H138173   6.531   5.181   3.602 -1.7423  1.6097  0.9570
 5586TIP3    H238174   6.390   5.201   3.550 -0.5023  2.9351 -2.1568
 5587TIP3   OH238175   4.752   3.042  13.724 -0.1511 -0.5333  0.7134
 5587TIP3    H138176   4.694   3.114  13.695 -0.5552 -0.2365  2.1689
 5587TIP3    H238177   4.699   2.963  13.711 -0.3575 -0.3975  0.7107
 5588TIP3   OH238178   0.243   3.441  12.040 -0.2059  0.8529 -0.0309
 5588TIP3    H138179   0.304   3.388  12.093 -0.1188  0.6721 -0.3097
 5588TIP3    H238180   0.200   3.498  12.104 -1.2221 -0.4176  0.4663
 5589TIP3   OH238181   0.318   6.083  13.364 -0.1649  0.3921  0.7177
 5589TIP3    H138182   0.233   6.048  13.338 -0.3344  0.4451  1.1820
 5589TIP3    H238183   0.307   6.178  13.361  0.2931  0.4286 -0.5387
 5590TIP3   OH238184   1.575   0.944   3.366  0.0863  0.0050  0.6481
 5590TIP3    H138185   1.604   0.996   3.441 -0.6228  1.4643 -0.0412
 5590TIP3    H238186   1.481   0.961   3.360  0.3950  1.4070 -1.5891
 5591TIP3   OH238187   2.477   2.819   6.290  0.1535  0.8175 -0.3885
 5591TIP3    H138188   2.560   2.782   6.259  0.2240  1.3283 -0.8096
 5591TIP3    H238189   2.489   2.829   6.384  0.8834  1.6906 -0.5706
 5592TIP3   OH238190   1.812   1.862  11.346  0.2007 -0.5194 -0.3174
 5592TIP3    H138191   1.877   1.930  11.366  1.4943 -1.3487 -1.5026
 5592TIP3    H238192   1.768   1.894  11.267 -1.7611  0.6137  1.1316
 5593TIP3   OH238193   0.064   5.388  13.104  0.0087 -0.3452  0.1539
 5593TIP3    H138194   0.049   5.442  13.182  0.6667 -0.5177  0.4105
 5593TIP3    H238195   0.158   5.397  13.087 -0.3241  0.6192 -1.3267
 5594TIP3   OH238196   3.083   6.539   5.947  0.2849 -0.4694 -0.2875
 5594TIP3    H138197   3.176   6.524   5.961  0.1072 -1.3621 -0.0067
 5594TIP3    H238198   3.045   6.452   5.944 -1.2186 -0.2385  4.2080
 5595TIP3   OH238199   5.147   0.001   4.797  0.1128  0.4687  0.5101
 5595TIP3    H138200   5.207  -0.034   4.731 -1.0412  0.5058 -0.5942
 5595TIP3    H238201   5.094  -0.073   4.823 -1.9058  1.1382 -1.3657
 5596TIP3   OH238202   6.167   3.275  11.255 -0.2623 -0.1937 -0.0668
 5596TIP3    H138203   6.080   3.281  11.295 -2.6490 -1.2620 -4.4845
 5596TIP3    H238204   6.193   3.184  11.268 -0.4163 -0.2164  0.0937
 5597TIP3   OH238205   6.137   3.600   5.355  0.0888  0.9709 -0.0659
 5597TIP3    H138206   6.095   3.573   5.274 -1.0637 -0.3966  0.9326
 5597TIP3    H238207   6.223   3.558   5.353 -1.1123 -1.7991  0.7858
 5598TIP3   OH238208   1.001   1.349  16.138 -0.6002 -0.2428 -0.6463
 5598TIP3    H138209   0.974   1.258  16.145  1.2233 -0.7634  0.2209
 5598TIP3    H238210   1.079   1.347  16.083  0.4961  0.5323  0.7899
 5599TIP3   OH238211   0.093   1.188   1.460  0.3013 -0.1505  0.1974
 5599TIP3    H138212   0.123   1.201   1.549  0.3464 -0.1150  0.1769
 5599TIP3    H238213   0.051   1.101   1.461 -0.0538  0.0195  0.3477
 5600TIP3   OH238214   4.314   1.725   5.180 -0.0596  0.2475  0.0109
 5600TIP3    H138215   4.222   1.731   5.207 -0.3073  2.4805 -1.0956
 5600TIP3    H238216   4.312   1.666   5.104 -0.6886  0.7444 -0.3722
 5601TIP3   OH238217   2.813   6.114   0.341 -0.1426 -0.0264 -0.3731
 5601TIP3    H138218   2.882   6.142   0.281  2.0455 -2.8005  0.6672
 5601TIP3    H238219   2.842   6.143   0.427 -0.7783 -0.3421 -0.0455
 5602TIP3   OH238220   3.138   0.989  15.826  0.1774  0.3354  0.0833
 5602TIP3    H138221   3.144   1.040  15.745  2.3682  0.1455  0.0532
 5602TIP3    H238222   3.080   0.916  15.804  0.3748  0.5365 -1.1917
 5603TIP3   OH238223   3.123   4.766   1.385 -0.0672 -0.0813 -0.4443
 5603TIP3    H138224   3.143   4.687   1.334 -0.9044 -1.6109  1.4767
 5603TIP3    H238225   3.144   4.743   1.475  1.1021  2.4555  0.0065
 5604TIP3   OH238226   6.658   3.496  12.659 -0.1030 -0.1724 -0.3702
 5604TIP3    H138227   6.690   3.425  12.604  5.0612  1.8197 -0.5017
 5604TIP3    H238228   6.594   3.542  12.604  0.3096 -1.7413 -2.2784
 5605TIP3   OH238229   1.009   5.363  14.367 -0.1475 -0.4837  0.0329
 5605TIP3    H138230   1.000   5.354  14.462 -0.2344  0.2515  0.0945
 5605TIP3    H238231   0.921   5.380  14.335  0.1238  1.0817  0.0321
 5606TIP3   OH238232   5.062   2.076   1.769  0.8677  0.2129 -0.6348
 5606TIP3    H138233   5.129   2.008   1.771 -0.1370 -0.7970  0.3066
 5606TIP3    H238234   5.060   2.106   1.678  2.4920  0.1932 -0.7003
 5607TIP3   OH238235   0.138   0.607  16.150 -0.3511  0.3348 -0.0661
 5607TIP3    H138236   0.209   0.542  16.145 -2.8214 -2.7397  1.0756
 5607TIP3    H238237   0.090   0.595  16.069 -0.9177  0.6395  0.2243
 5608TIP3   OH238238   0.742   2.854   4.996 -0.1369  0.3372  0.4274
 5608TIP3    H138239   0.757   2.793   5.069  0.7547 -1.1773 -0.9783
 5608TIP3    H238240   0.795   2.931   5.018 -0.9691  0.5224  2.0270
 5609TIP3   OH238241   2.385   5.425   3.754 -0.3516 -0.6540  0.3153
 5609TIP3    H138242   2.385   5.383   3.840  1.7641 -0.6636  0.3487
 5609TIP3    H238243   2.364   5.355   3.693 -0.6235 -0.9154  0.7053
 5610TIP3   OH238244   4.292   1.891  15.700 -0.5434 -0.1130  0.3037
 5610TIP3    H138245   4.267   1.983  15.704 -1.9930 -0.5112  3.0454
 5610TIP3    H238246   4.370   1.884  15.755 -0.5582 -0.5461  0.2799
 5611TIP3   OH238247   5.161   3.202   4.578  0.3585  0.6415 -0.2003
 5611TIP3    H138248   5.220   3.256   4.630  1.4394 -1.9152  1.3902
 5611TIP3    H238249   5.199   3.115   4.580 -1.4174 -0.2898 -2.4774
 5612TIP3   OH238250   2.049   5.348   6.484  0.1217  0.5710 -0.1726
 5612TIP3    H138251   2.117   5.405   6.449  1.0801  0.3335  1.2421
 5612TIP3    H238252   1.972   5.405   6.493  0.7212  1.3480  0.0984
 5613TIP3   OH238253   0.416   3.363   1.260  0.3530  0.0520  0.1982
 5613TIP3    H138254   0.377   3.286   1.218 -0.3784 -0.2992  1.4545
 5613TIP3    H238255   0.510   3.350   1.251  0.2496  0.7904 -2.6903
 5614TIP3   OH238256   6.389   3.732  15.766  0.6171  0.0352 -0.0273
 5614TIP3    H138257   6.454   3.737  15.836  0.4945 -1.6234  0.2381
 5614TIP3    H238258   6.333   3.808  15.779 -1.0661 -1.5951  3.3734
 5615TIP3   OH238259   6.469   2.929  12.110 -0.2467 -0.0010  1.1324
 5615TIP3    H138260   6.541   2.980  12.072 -0.4403  1.6614  2.8103
 5615TIP3    H238261   6.506   2.892  12.191 -0.7085 -0.8418  0.9641
 5616TIP3   OH238262   3.595   2.273   1.865 -0.3288 -0.8454 -0.6136
 5616TIP3    H138263   3.609   2.367   1.865 -0.4930 -0.8203  0.0717
 5616TIP3    H238264   3.620   2.244   1.953 -1.1434 -1.3078 -0.5216
 5617TIP3   OH238265   1.587   4.766  16.923  0.4045  0.0055  0.0294
 5617TIP3    H138266   1.556   4.688  16.970  2.4616 -0.0812  1.3715
 5617TIP3    H238267   1.658   4.800  16.978 -1.7880  4.1360  0.7045
 5618TIP3   OH238268   0.804   2.024  15.302  0.5785 -0.5690  0.2089
 5618TIP3    H138269   0.838   2.056  15.386  1.3086  1.4975 -0.8071
 5618TIP3    H238270   0.744   2.093  15.274 -1.4168 -2.2741  0.0360
 5619TIP3   OH238271   2.698   6.489   1.693 -0.2692 -0.4911 -0.0226
 5619TIP3    H138272   2.698   6.397   1.666 -2.2820 -0.5829  0.1471
 5619TIP3    H238273   2.779   6.524   1.656 -0.1910 -1.9699 -1.3800
 5620TIP3   OH238274   3.082   6.571   1.826  0.4657 -0.5206  0.0999
 5620TIP3    H138275   3.013   6.552   1.889 -1.6732  0.6049 -1.7375
 5620TIP3    H238276   3.054   6.527   1.745  2.9364 -1.6555 -0.2191
 5621TIP3   OH238277   3.308   2.248  15.542  0.2074  0.2543  0.8156
 5621TIP3    H138278   3.260   2.167  15.525  1.2020 -0.5186  1.5952
 5621TIP3    H238279   3.250   2.317  15.509 -0.1192 -0.8213 -1.0402
 5622TIP3   OH238280   1.530   5.212  13.902  0.2011 -0.2325  0.4072
 5622TIP3    H138281   1.504   5.239  13.990  0.0697 -1.2650  0.6904
 5622TIP3    H238282   1.603   5.271  13.880 -0.2350  0.5102  0.9056
 5623TIP3   OH238283   3.319   4.957   3.044 -0.2599  0.2505 -0.2457
 5623TIP3    H138284   3.373   4.998   2.975 -2.2076  1.2519 -1.2589
 5623TIP3    H238285   3.350   4.867   3.047  1.0222  0.6144 -1.2469
 5624TIP3   OH238286   2.390   4.522  14.066 -0.2448  0.1217 -0.7666
 5624TIP3    H138287   2.436   4.456  14.014 -2.5126  0.2707 -3.1834
 5624TIP3    H238288   2.321   4.554  14.008 -2.4108  1.0148  2.0693
 5625TIP3   OH238289   3.965   5.466  16.242  0.1883 -0.1849  0.1898
 5625TIP3    H138290   4.021   5.526  16.193 -0.5252  0.9117  0.6896
 5625TIP3    H238291   3.876   5.499  16.228 -0.1452 -0.6420  1.1319
 5626TIP3   OH238292   3.453   3.220   5.793  0.2374 -0.2729  0.4632
 5626TIP3    H138293   3.490   3.133   5.778  1.2303  0.4494 -1.8552
 5626TIP3    H238294   3.528   3.273   5.820 -0.2608 -0.0202  1.3696
 5627TIP3   OH238295   3.696   0.760  12.782  0.6175  0.3549  0.9578
 5627TIP3    H138296   3.640   0.740  12.707 -0.1227 -1.3406  1.9344
 5627TIP3    H238297   3.785   0.740  12.751  0.5546  1.4525 -0.0333
 5628TIP3   OH238298   4.668   3.306   0.651 -0.2300 -0.3001 -0.4698
 5628TIP3    H138299   4.624   3.330   0.732 -0.7496  0.4591 -0.9589
 5628TIP3    H238300   4.687   3.213   0.660 -1.3439 -0.4933  0.0228
 5629TIP3   OH238301   1.868   4.791   5.768  0.4868  0.5736  0.2915
 5629TIP3    H138302   1.836   4.724   5.829  0.7021  0.5338  0.3628
 5629TIP3    H238303   1.858   4.873   5.815 -1.6741  0.8449 -0.5395
 5630TIP3   OH238304   2.134   5.374  17.401 -0.0035  0.0191 -0.3322
 5630TIP3    H138305   2.046   5.401  17.429 -0.4807 -2.2354  0.5761
 5630TIP3    H238306   2.127   5.280  17.387  1.8705  0.0409 -1.9791
 5631TIP3   OH238307   6.109   3.474  11.797  0.2514  0.4173 -0.2092
 5631TIP3    H138308   6.106   3.539  11.727 -1.4343  1.4392  0.7559
 5631TIP3    H238309   6.145   3.395  11.755  0.6408  1.4169 -1.8439
 5632TIP3   OH238310   1.485   5.192  11.499  0.0194 -0.7659 -0.5007
 5632TIP3    H138311   1.562   5.219  11.550 -0.9785  1.2411  0.0587
 5632TIP3    H238312   1.429   5.148  11.563 -0.8093  0.9026 -0.0319
 5633TIP3   OH238313   2.233   2.972  16.547  0.3582 -0.1478  0.0387
 5633TIP3    H138314   2.172   2.899  16.562 -0.7925  0.2333 -2.3684
 5633TIP3    H238315   2.292   2.940  16.479  0.4492  0.8079 -0.3466
 5634TIP3   OH238316   0.102   2.015  12.365 -0.0833 -0.0143  0.3167
 5634TIP3    H138317   0.067   1.943  12.419 -1.3769  0.1248 -0.2907
 5634TIP3    H238318   0.130   2.081  12.429 -1.1134 -0.0682  0.8490
 5635TIP3   OH238319   1.477   2.699   4.871  0.1411 -0.5067  0.1959
 5635TIP3    H138320   1.556   2.697   4.816 -0.0255  1.6016 -0.1911
 5635TIP3    H238321   1.504   2.747   4.949 -0.5428 -0.5384  0.4577
 5636TIP3   OH238322   5.105   5.339  11.226 -0.0116 -0.4151  0.8674
 5636TIP3    H138323   5.117   5.338  11.131 -1.0563  0.0794  0.7179
 5636TIP3    H238324   5.191   5.361  11.261 -0.0444  1.2995 -0.0520
 5637TIP3   OH238325   1.103   3.511   1.143  0.1099  0.5966 -0.8750
 5637TIP3    H138326   1.176   3.540   1.088  1.2992 -0.9630 -0.2149
 5637TIP3    H238327   1.038   3.580   1.135  1.7552  2.1742 -1.3044
 5638TIP3   OH238328   4.619   2.032  13.387  0.3552  0.5615 -0.1083
 5638TIP3    H138329   4.586   2.116  13.353  0.9909  1.6008  1.7009
 5638TIP3    H238330   4.698   2.015  13.336  0.1873  1.0321 -0.5339
 5639TIP3   OH238331   3.488   3.563   2.162 -0.1452  0.1630 -0.0555
 5639TIP3    H138332   3.560   3.568   2.099  0.5910 -0.7853  0.6832
 5639TIP3    H238333   3.438   3.643   2.147  1.4462  1.1969 -0.1174
 5640TIP3   OH238334   2.799   3.698  12.906  0.0618  0.3473  0.1216
 5640TIP3    H138335   2.815   3.772  12.965  0.5021  0.2123  0.1751
 5640TIP3    H238336   2.837   3.725  12.823 -0.1143  0.3322  0.0363
 5641TIP3   OH238337   5.140   6.094  16.087  0.1732 -0.5382  0.3178
 5641TIP3    H138338   5.081   6.116  16.159 -0.1143  1.2892 -0.4337
 5641TIP3    H238339   5.116   6.154  16.017  1.8578 -0.8507 -0.5755
 5642TIP3   OH238340   4.834   2.403  13.048 -0.1364 -0.3482  0.4189
 5642TIP3    H138341   4.872   2.377  13.132 -0.4507 -1.8884  0.0993
 5642TIP3    H238342   4.889   2.360  12.983  0.6197  1.5083 -0.2308
 5643TIP3   OH238343   5.754   0.666   4.023  0.3318 -0.2143 -0.3363
 5643TIP3    H138344   5.810   0.669   4.101 -0.5325 -0.3950  0.3160
 5643TIP3    H238345   5.689   0.599   4.044  1.9867 -2.7105 -2.5637
 5644TIP3   OH238346   2.046   0.013   5.207 -0.6089  0.2571  0.3610
 5644TIP3    H138347   2.101  -0.040   5.149  1.1812  3.1570 -0.8030
 5644TIP3    H238348   2.078  -0.007   5.295 -0.6972 -1.2912  0.0737
 5645TIP3   OH238349   5.876   4.462   5.217  0.0839 -0.3987 -0.1581
 5645TIP3    H138350   5.827   4.383   5.236 -0.9047  0.0872 -0.6074
 5645TIP3    H238351   5.843   4.527   5.280 -0.8668  0.3072 -1.3353
 5646TIP3   OH238352   2.453   0.842  16.282 -0.3401 -0.2962 -0.0846
 5646TIP3    H138353   2.443   0.890  16.200 -2.0216 -0.9357 -0.2756
 5646TIP3    H238354   2.382   0.874  16.338 -1.9860 -2.9688 -0.4542
 5647TIP3   OH238355   1.627   4.830   3.111 -0.1301 -0.2085 -0.2377
 5647TIP3    H138356   1.590   4.783   3.185  0.9184  0.4097  0.7051
 5647TIP3    H238357   1.691   4.770   3.074 -0.6512 -0.5160 -0.6575
 5648TIP3   OH238358   5.786   3.810   3.671 -0.1578 -0.2243 -0.5058
 5648TIP3    H138359   5.799   3.783   3.763 -0.6850  2.8515  0.5895
 5648TIP3    H238360   5.871   3.796   3.630  0.5508 -0.1696  0.8864
 5649TIP3   OH238361   3.369   4.754  11.599  0.0993 -0.1036 -0.4369
 5649TIP3    H138362   3.297   4.729  11.656  1.0006 -3.7661 -0.6683
 5649TIP3    H238363   3.346   4.720  11.513  1.1941  0.5000 -1.0038
 5650TIP3   OH238364   6.692   0.531  13.607  0.1380 -0.3165  0.1594
 5650TIP3    H138365   6.675   0.437  13.597  0.2062 -0.2133 -1.0638
 5650TIP3    H238366   6.715   0.541  13.699 -0.2014 -1.4481  0.3870
 5651TIP3   OH238367   1.803   5.973   3.031  0.3191  0.3530 -0.1636
 5651TIP3    H138368   1.727   5.998   2.978  0.0676  0.5471  0.2880
 5651TIP3    H238369   1.770   5.906   3.091  0.1432  1.4867  1.0362
 5652TIP3   OH238370   2.241   5.322  13.349 -1.0043 -0.1103  0.7355
 5652TIP3    H138371   2.223   5.263  13.275 -0.8542  0.0419  0.5793
 5652TIP3    H238372   2.249   5.263  13.424 -0.6357 -0.3086  0.5415
 5653TIP3   OH238373   5.433   5.533   2.724  0.8720 -0.3091  0.0928
 5653TIP3    H138374   5.380   5.580   2.788  0.2979 -0.7189 -0.0725
 5653TIP3    H238375   5.514   5.512   2.770  1.0880  0.7353  0.2043
 5654TIP3   OH238376   1.430   4.111  15.253 -0.3242 -0.2574 -0.2266
 5654TIP3    H138377   1.433   4.082  15.162  0.7460  0.8259 -0.5825
 5654TIP3    H238378   1.425   4.207  15.246 -2.8455 -0.2605  0.8683
 5655TIP3   OH238379   3.820   0.304  16.946 -0.0839 -0.0987 -0.5464
 5655TIP3    H138380   3.894   0.305  17.006 -2.4692  1.9172  2.6747
 5655TIP3    H238381   3.765   0.231  16.976 -0.2948 -0.4697 -1.7645
 5656TIP3   OH238382   4.825   5.447  16.549 -0.5487 -0.5657  0.0517
 5656TIP3    H138383   4.899   5.495  16.513 -1.2553  0.4127 -0.1099
 5656TIP3    H238384   4.839   5.357  16.520 -0.1163 -0.1498 -1.0786
 5657TIP3   OH238385   6.364   6.721   3.003  0.7340 -0.5058  0.3581
 5657TIP3    H138386   6.403   6.807   2.989  1.4210 -1.0744 -1.6262
 5657TIP3    H238387   6.430   6.659   2.971  0.2419 -1.7866  1.7029
 5658TIP3   OH238388   5.820   3.279  16.062  0.2624 -0.6702 -0.3585
 5658TIP3    H138389   5.733   3.246  16.038 -0.5739  0.7510  0.5958
 5658TIP3    H238390   5.844   3.337  15.989 -0.7997  1.0141  0.5696
 5659TIP3   OH238391   3.897   5.555  15.263  0.4795  0.9842  0.3243
 5659TIP3    H138392   3.958   5.519  15.199  0.2940  1.1177  0.0687
 5659TIP3    H238393   3.817   5.572  15.213 -0.2662 -0.5495  0.9389
 5660TIP3   OH238394   2.324   0.674   2.902 -0.2530  0.4559  0.2962
 5660TIP3    H138395   2.308   0.580   2.890  0.0207  0.3973  0.3769
 5660TIP3    H238396   2.412   0.688   2.866 -0.7164  0.8876 -0.7058
 5661TIP3   OH238397   4.601   3.497  16.771 -0.3074  0.1979 -0.0649
 5661TIP3    H138398   4.514   3.535  16.787 -0.4853  0.2538 -1.0852
 5661TIP3    H238399   4.584   3.405  16.752 -0.1279  0.1851 -0.1628
 5662TIP3   OH238400   6.375   4.514  14.721  0.1634  0.1393 -0.5626
 5662TIP3    H138401   6.389   4.423  14.745 -0.4052  0.6796  2.1183
 5662TIP3    H238402   6.282   4.520  14.700  0.1023  0.1837 -0.2831
 5663TIP3   OH238403   3.622   3.076   3.018 -0.5977  0.4856  0.1188
 5663TIP3    H138404   3.586   3.046   3.102  0.2231 -0.2962  0.2038
 5663TIP3    H238405   3.587   3.165   3.008  0.3747  1.1245  1.9481
 5664TIP3   OH238406   2.100   4.469   2.832  0.0975 -0.2446 -0.3855
 5664TIP3    H138407   2.015   4.511   2.821 -1.0900 -2.7587 -1.6958
 5664TIP3    H238408   2.126   4.491   2.922 -3.0293 -1.2059  0.8870
 5665TIP3   OH238409   0.483   4.965  13.698 -0.1078 -0.2874  0.0013
 5665TIP3    H138410   0.437   4.917  13.767  0.4951  1.3183  1.6152
 5665TIP3    H238411   0.416   4.985  13.633 -0.2916 -3.5794 -0.9682
 5666TIP3   OH238412   4.303   0.107   0.374  0.2554  0.1283 -0.8797
 5666TIP3    H138413   4.254   0.029   0.348  0.8773 -1.1884  1.6440
 5666TIP3    H238414   4.259   0.179   0.328 -2.5575 -1.2520 -0.5421
 5667TIP3   OH238415   5.028   6.242  16.996  0.4324 -0.1138 -0.0627
 5667TIP3    H138416   5.000   6.226  16.906  1.5323 -0.3391 -0.3813
 5667TIP3    H238417   5.026   6.155  17.037  0.9655 -0.1890 -0.1860
 5668TIP3   OH238418   3.703   3.536   0.125  0.5169  0.6910 -0.1288
 5668TIP3    H138419   3.768   3.482   0.169  0.8188  0.4241 -0.8874
 5668TIP3    H238420   3.694   3.613   0.180  0.1501 -0.0756  0.9228
 5669TIP3   OH238421   5.848   4.535  14.916  1.2626 -0.5678  0.0854
 5669TIP3    H138422   5.909   4.463  14.928 -0.2951 -1.7844  1.1914
 5669TIP3    H238423   5.825   4.562  15.005  0.1975 -0.1805 -0.2841
 5670TIP3   OH238424   3.518   5.869   5.447  0.1739  0.4109  0.6276
 5670TIP3    H138425   3.464   5.946   5.461 -2.6959 -1.5985  1.6101
 5670TIP3    H238426   3.520   5.824   5.532 -2.3440 -2.9197 -0.8417
 5671TIP3   OH238427   1.417   3.113  17.114 -0.3266  0.2064  0.9694
 5671TIP3    H138428   1.343   3.092  17.170  0.8155 -0.1458  2.4001
 5671TIP3    H238429   1.433   3.206  17.128 -0.8510  0.4191  0.2063
 5672TIP3   OH238430   2.428   6.046  13.207 -0.9901  0.3120 -0.1511
 5672TIP3    H138431   2.424   5.950  13.211  0.8753  0.2175  0.1213
 5672TIP3    H238432   2.521   6.066  13.199 -1.2113  2.1777  1.3225
 5673TIP3   OH238433   6.039   1.573  12.102  0.2452 -0.3889 -0.3419
 5673TIP3    H138434   6.069   1.551  12.191  1.3731  1.1315 -0.3072
 5673TIP3    H238435   6.108   1.540  12.045  0.9012  1.0799 -0.4335
 5674TIP3   OH238436   3.447   2.367  14.762  0.1515  0.0306  0.2638
 5674TIP3    H138437   3.531   2.367  14.807  1.0760  0.1351 -1.3846
 5674TIP3    H238438   3.461   2.422  14.685 -0.7534 -1.7520 -1.2445
 5675TIP3   OH238439   6.500   1.213  11.516  0.2080 -0.5909  1.2520
 5675TIP3    H138440   6.490   1.118  11.519 -1.0321 -0.5395 -0.1409
 5675TIP3    H238441   6.570   1.227  11.451  0.3510 -0.5544  1.4145
 5676TIP3   OH238442   1.403   0.589   6.188 -0.0237  0.3360  0.2339
 5676TIP3    H138443   1.375   0.518   6.131 -0.3811  1.5583 -1.1848
 5676TIP3    H238444   1.484   0.558   6.228 -0.2420 -0.9062 -0.2487
 5677TIP3   OH238445   2.865   4.802   4.959  0.2634  0.1123  0.0896
 5677TIP3    H138446   2.925   4.770   5.027 -0.7855 -0.5957  0.6994
 5677TIP3    H238447   2.809   4.865   5.004  0.3225  0.5172 -0.4002
 5678TIP3   OH238448   2.476   0.282   1.513 -0.4876 -0.1692 -0.1208
 5678TIP3    H138449   2.473   0.197   1.470 -2.7592  0.1711 -0.7828
 5678TIP3    H238450   2.415   0.336   1.463  2.3890  2.5165 -0.9817
 5679TIP3   OH238451   1.775   6.742   3.815  0.3860  0.3150  0.2332
 5679TIP3    H138452   1.829   6.813   3.848 -0.0192  0.3828  0.7551
 5679TIP3    H238453   1.720   6.716   3.889 -1.4582  1.3382 -0.6854
 5680TIP3   OH238454   5.125   3.124  14.025  0.2532  0.1856  0.0258
 5680TIP3    H138455   5.086   3.188  13.965 -0.9623 -0.0676  0.5083
 5680TIP3    H238456   5.060   3.053  14.029  0.9672 -0.4457  0.5431
 5681TIP3   OH238457   6.444   2.524   1.096  0.8873  0.1342  0.1439
 5681TIP3    H138458   6.447   2.545   1.002 -0.2486 -0.0100  0.0607
 5681TIP3    H238459   6.425   2.608   1.138 -2.2866 -0.3343 -0.0828
 5682TIP3   OH238460   3.834   4.941  12.129 -0.3153  0.1383  0.4631
 5682TIP3    H138461   3.790   4.952  12.213 -1.4756 -1.5867  0.1351
 5682TIP3    H238462   3.925   4.965  12.146 -0.5317 -0.1865  2.2215
 5683TIP3   OH238463   4.739   4.931  12.790  0.0485  0.1211  0.1322
 5683TIP3    H138464   4.647   4.915  12.769 -0.2700  1.1628  0.6681
 5683TIP3    H238465   4.757   5.017  12.752  0.9262 -0.2555 -0.3273
 5684TIP3   OH238466   4.008   5.143  10.753 -0.0949  0.1013  0.3378
 5684TIP3    H138467   3.921   5.178  10.769 -0.4322 -0.9014  0.7370
 5684TIP3    H238468   4.047   5.204  10.690 -1.2027  0.3642 -0.1159
 5685TIP3   OH238469   1.088   5.421   2.404  0.1141 -0.0983 -0.2759
 5685TIP3    H138470   1.113   5.484   2.472  1.5386 -0.7992 -0.1038
 5685TIP3    H238471   1.067   5.341   2.452  0.4457 -0.3893 -0.6111
 5686TIP3   OH238472   3.429   1.672  14.947 -0.1796  0.1391 -0.0269
 5686TIP3    H138473   3.360   1.642  15.006 -0.3389  1.3787  0.4388
 5686TIP3    H238474   3.385   1.683  14.863 -0.2230 -0.4696 -0.0832
 5687TIP3   OH238475   0.360   4.701  16.497  0.1552 -0.2556 -0.9549
 5687TIP3    H138476   0.387   4.615  16.530 -0.8465 -0.2846 -0.1380
 5687TIP3    H238477   0.354   4.756  16.576 -0.8175  0.0969 -1.2548
 5688TIP3   OH238478   2.862   2.883   2.170  0.3173  0.1707 -0.4333
 5688TIP3    H138479   2.914   2.838   2.102 -1.2681 -0.2054 -1.4490
 5688TIP3    H238480   2.912   2.869   2.251  2.2350  0.5794 -1.4819
 5689TIP3   OH238481   0.285   0.882  16.682  0.0716  0.0926  0.1395
 5689TIP3    H138482   0.294   0.920  16.770 -1.2401  0.6318  0.0527
 5689TIP3    H238483   0.304   0.954  16.623 -0.4600  0.1061 -0.0192
 5690TIP3   OH238484   5.745   3.398  13.128 -0.1339  0.5164 -0.2937
 5690TIP3    H138485   5.777   3.480  13.167 -0.3543  0.2950  0.3654
 5690TIP3    H238486   5.824   3.356  13.093  0.0172  0.8839 -0.4091
 5691TIP3   OH238487   4.174   6.714   1.064  0.5055  0.9084  0.4414
 5691TIP3    H138488   4.135   6.700   0.978 -1.0140  0.9510  1.0869
 5691TIP3    H238489   4.207   6.804   1.061  1.8226  0.4215 -0.5681
 5692TIP3   OH238490   3.724   3.000  13.644 -0.4022 -0.3811 -0.0477
 5692TIP3    H138491   3.677   3.040  13.571  0.6903 -2.3469 -1.9424
 5692TIP3    H238492   3.814   3.031  13.636 -0.6599  1.1101  1.8685
 5693TIP3   OH238493   2.289   2.739   0.224  0.5962  0.2746 -0.0632
 5693TIP3    H138494   2.272   2.657   0.272  0.2449  0.7920  0.7267
 5693TIP3    H238495   2.301   2.712   0.133 -1.0064 -0.5109 -0.0730
 5694TIP3   OH238496   4.630   5.022  13.630  0.1225 -0.8412  0.5099
 5694TIP3    H138497   4.589   5.016  13.717 -1.2552  0.0602 -0.0345
 5694TIP3    H238498   4.721   5.043  13.648 -0.1757 -0.4865  1.7478
 5695TIP3   OH238499   4.065   0.603  14.446 -0.1894 -0.0374  0.2148
 5695TIP3    H138500   4.067   0.586  14.540 -0.8986  0.8278  0.3960
 5695TIP3    H238501   3.989   0.554  14.414 -1.4043  1.5485  0.5144
 5696TIP3   OH238502   4.900   5.183   5.085 -0.2734 -0.4604  0.6516
 5696TIP3    H138503   4.876   5.100   5.045  1.3513 -0.2053 -1.0128
 5696TIP3    H238504   4.885   5.248   5.016  0.2897  0.3565  1.2712
 5697TIP3   OH238505   2.519   6.723  15.691 -0.0247 -0.1593  0.2220
 5697TIP3    H138506   2.540   6.697  15.602 -0.2634 -0.9523  0.3805
 5697TIP3    H238507   2.596   6.698  15.742  1.5142  3.2494 -0.2036
 5698TIP3   OH238508   6.734   2.475   1.142  0.0008 -0.2781 -0.0072
 5698TIP3    H138509   6.820   2.445   1.112 -0.1869 -0.4654 -0.3783
 5698TIP3    H238510   6.736   2.570   1.131 -0.4358 -0.4265 -1.6812
 5699TIP3   OH238511   0.470   2.018  15.112  0.1681  0.3985 -0.2094
 5699TIP3    H138512   0.475   2.071  15.032  1.3989 -0.4133 -0.7006
 5699TIP3    H238513   0.558   2.025  15.150 -0.3007  0.4749  0.8829
 5700TIP3   OH238514   2.242   3.611   0.010 -0.4089 -0.2988 -0.2829
 5700TIP3    H138515   2.266   3.594   0.101 -1.4002 -0.1220  0.0276
 5700TIP3    H238516   2.146   3.612   0.011 -0.5045  2.9538 -0.6615
 5701TIP3   OH238517   2.654   2.465   5.639 -0.5078  0.1162  0.1130
 5701TIP3    H138518   2.676   2.394   5.579  0.7527 -0.2314  0.9546
 5701TIP3    H238519   2.659   2.425   5.726  2.3926  1.6794  0.7882
 5702TIP3   OH238520   4.237   4.060  15.374  0.8793  1.1608 -0.2928
 5702TIP3    H138521   4.264   3.969  15.384 -0.2673  0.8080 -0.3050
 5702TIP3    H238522   4.194   4.064  15.288  0.1711  1.5162  0.0672
 5703TIP3   OH238523   1.915   4.351   1.420  0.1669 -0.1706 -0.1182
 5703TIP3    H138524   1.945   4.442   1.421  0.6729 -0.3029 -1.4577
 5703TIP3    H238525   1.906   4.330   1.327 -0.4186 -1.3424  0.1877
 5704TIP3   OH238526   4.022   3.126   0.979  0.4044  0.2625  0.1017
 5704TIP3    H138527   3.979   3.200   0.937 -0.3417 -0.5462 -0.6039
 5704TIP3    H238528   4.063   3.162   1.057 -1.1314  1.1580  0.5213
 5705TIP3   OH238529   1.571   4.060  12.332  0.3673 -0.0697  0.1578
 5705TIP3    H138530   1.517   4.139  12.335  1.6897  0.8823 -0.4610
 5705TIP3    H238531   1.542   4.009  12.408  1.5487  2.4001  2.4527
 5706TIP3   OH238532   0.429   2.315   3.812  0.4119  0.4503 -0.0317
 5706TIP3    H138533   0.468   2.279   3.732  0.3921 -0.4132  0.3389
 5706TIP3    H238534   0.504   2.351   3.860  0.3232  1.7095 -0.7983
 5707TIP3   OH238535   4.542   5.755  15.812  0.3951 -0.1056 -0.0730
 5707TIP3    H138536   4.510   5.824  15.870  0.3723 -0.5830  0.4975
 5707TIP3    H238537   4.610   5.797  15.760 -1.2485  0.9850 -1.4387
 5708TIP3   OH238538   5.973   3.583   0.065  0.1557 -0.5725 -0.2356
 5708TIP3    H138539   6.047   3.634   0.030 -0.3572  1.2234  1.1148
 5708TIP3    H238540   5.928   3.550  -0.013  0.9320  0.4608 -1.1622
 5709TIP3   OH238541   4.282   1.250  10.600 -0.4613 -0.1079  0.0982
 5709TIP3    H138542   4.232   1.182  10.556  0.9738  0.2465 -2.2556
 5709TIP3    H238543   4.366   1.209  10.621 -0.9285 -0.1158  2.1546
 5710TIP3   OH238544   5.539   2.212   0.178  0.7994 -0.1060 -0.7892
 5710TIP3    H138545   5.465   2.160   0.212  1.1871  0.9508  1.8522
 5710TIP3    H238546   5.578   2.155   0.111 -1.0614 -1.6079 -0.7104
 5711TIP3   OH238547   5.849   6.154   4.734 -0.4912  0.6405  0.5221
 5711TIP3    H138548   5.934   6.170   4.693 -2.4336  1.7610 -3.6122
 5711TIP3    H238549   5.870   6.123   4.822  4.1191  1.5984  0.0035
 5712TIP3   OH238550   1.035   6.598  13.439  0.2594 -0.4866  0.3191
 5712TIP3    H138551   1.116   6.572  13.482  1.0198 -0.5035 -1.0402
 5712TIP3    H238552   1.061   6.670  13.381 -0.8073 -0.1357  0.2545
 5713TIP3   OH238553   1.209   6.003  11.225 -0.4902  0.3536 -0.4693
 5713TIP3    H138554   1.193   6.085  11.179 -2.1020  0.6974  0.6347
 5713TIP3    H238555   1.155   5.939  11.179  1.2450 -0.2888 -1.7298
 5714TIP3   OH238556   3.382   1.204  11.263  0.3520  0.3177 -0.1422
 5714TIP3    H138557   3.377   1.197  11.168 -1.1758 -0.8864 -0.0059
 5714TIP3    H238558   3.297   1.238  11.290 -0.2222 -1.7765  0.9387
 5715TIP3   OH238559   0.997   2.816  13.534  0.3106  0.4895 -0.4106
 5715TIP3    H138560   0.906   2.836  13.510  0.1458  2.2081  1.3924
 5715TIP3    H238561   1.003   2.721  13.527 -1.5100  0.3723 -0.9659
 5716TIP3   OH238562   1.302   1.722  15.856 -0.0631 -0.2609  0.0211
 5716TIP3    H138563   1.386   1.743  15.896 -0.2447 -0.9606  0.8135
 5716TIP3    H238564   1.299   1.773  15.776  1.1608 -0.3054 -0.0584
 5717TIP3   OH238565   3.589   4.598  12.258  0.6010 -1.0240  0.2088
 5717TIP3    H138566   3.576   4.674  12.314 -0.1954 -0.2383 -0.9958
 5717TIP3    H238567   3.566   4.523  12.314  1.1865 -0.3825  1.3398
 5718TIP3   OH238568   4.277   4.788   5.427 -0.3868  0.0491  0.4615
 5718TIP3    H138569   4.273   4.836   5.510 -0.7909  0.4096  0.2373
 5718TIP3    H238570   4.303   4.699   5.452  1.4619  0.6409  0.7714
 5719TIP3   OH238571   1.516   2.834   1.615  0.6020  0.2792  0.2821
 5719TIP3    H138572   1.537   2.927   1.604  1.0649  0.0712 -0.7257
 5719TIP3    H238573   1.594   2.788   1.583  0.9396 -0.4652  2.0534
 5720TIP3   OH238574   2.221   0.617   5.708 -0.1931  0.1625  0.1135
 5720TIP3    H138575   2.286   0.549   5.690 -0.8811 -0.3434 -0.4954
 5720TIP3    H238576   2.243   0.648   5.796 -0.4410 -1.5032  0.8035
 5721TIP3   OH238577   0.629   5.112  13.018 -0.7543 -0.2333 -0.2071
 5721TIP3    H138578   0.539   5.085  13.000 -0.7200  0.0562 -0.8295
 5721TIP3    H238579   0.682   5.066  12.953 -0.6124  0.7025 -0.7716
 5722TIP3   OH238580   1.794   3.760  15.395 -0.5876 -0.3445 -0.4641
 5722TIP3    H138581   1.839   3.843  15.412 -2.1500  0.2634  1.0270
 5722TIP3    H238582   1.846   3.718  15.326  0.8938  1.3399 -0.4476
 5723TIP3   OH238583   5.689   3.703   4.193 -0.4854 -0.3300  0.1117
 5723TIP3    H138584   5.708   3.620   4.237 -0.7761 -1.9916 -2.6861
 5723TIP3    H238585   5.595   3.700   4.175 -0.4326  0.4611 -0.3599
 5724TIP3   OH238586   4.534   4.223   6.467 -0.2693  0.4775  0.0760
 5724TIP3    H138587   4.538   4.315   6.494  0.4937  0.2389  0.8116
 5724TIP3    H238588   4.474   4.182   6.529  0.1417  0.2853  0.3503
 5725TIP3   OH238589   5.103   3.900  16.883 -0.1011  0.1634  0.2777
 5725TIP3    H138590   5.092   3.844  16.806  1.0918 -0.6393  0.6535
 5725TIP3    H238591   5.072   3.986  16.855  1.2829  0.1546 -1.4735
 5726TIP3   OH238592   5.590   3.430   3.857 -0.4775 -0.0844 -0.2133
 5726TIP3    H138593   5.626   3.342   3.860 -0.8326 -0.2045  1.3900
 5726TIP3    H238594   5.502   3.422   3.893 -0.5864  0.8899 -0.2251
 5727TIP3   OH238595   6.063   6.710   1.132  0.9967 -0.3089 -0.5489
 5727TIP3    H138596   5.974   6.745   1.138  1.4551  1.0730 -1.4246
 5727TIP3    H238597   6.070   6.649   1.205 -0.5031 -0.0740 -0.1787
 5728TIP3   OH238598   6.747   2.070  11.670 -0.1432 -0.3717  0.0630
 5728TIP3    H138599   6.816   2.133  11.692 -0.6218 -0.7972  3.3184
 5728TIP3    H238600   6.790   1.985  11.674 -0.7407 -0.6393  2.0969
 5729TIP3   OH238601   4.053   5.182  11.396  0.3026  0.4657  0.2841
 5729TIP3    H138602   4.036   5.240  11.470 -2.3082 -1.2062  1.1340
 5729TIP3    H238603   4.005   5.102  11.417  1.2177 -0.8675 -2.2708
 5730TIP3   OH238604   0.657   0.137   5.607  0.4037  0.1263  0.6634
 5730TIP3    H138605   0.628   0.087   5.684  0.9467 -0.4128  0.5172
 5730TIP3    H238606   0.713   0.205   5.643 -0.9527  1.1462  0.9459
 5731TIP3   OH238607   4.808   4.661   1.546 -0.4840  0.3997 -0.0660
 5731TIP3    H138608   4.739   4.718   1.510 -0.3887  1.3500  1.1834
 5731TIP3    H238609   4.795   4.665   1.641 -0.5803 -1.8454  0.0706
 5732TIP3   OH238610   0.637   2.362  16.073 -0.6588  0.4753  0.1792
 5732TIP3    H138611   0.682   2.423  16.132 -0.3490  0.0402  0.3967
 5732TIP3    H238612   0.698   2.352  15.999 -0.3337 -0.2163  0.5349
 5733TIP3   OH238613   6.421   6.405   3.162  0.2814 -0.3816  0.5804
 5733TIP3    H138614   6.358   6.377   3.228 -2.1510  1.5836 -0.7562
 5733TIP3    H238615   6.479   6.466   3.209  0.2419 -1.0091  1.4702
 5734TIP3   OH238616   4.079   1.054   5.252  0.0121 -0.1688  0.3271
 5734TIP3    H138617   3.994   1.092   5.275 -0.7542 -2.7496  2.3455
 5734TIP3    H238618   4.083   1.058   5.157 -2.1352  0.5272  0.2131
 5735TIP3   OH238619   1.950   0.366  16.658 -0.6646  0.2298  0.1415
 5735TIP3    H138620   2.038   0.403  16.668 -0.7494  0.2609  0.8429
 5735TIP3    H238621   1.961   0.272  16.672 -0.6237  0.1227 -0.5595
 5736TIP3   OH238622   6.458   6.697   0.516  0.3125  0.0794 -0.1846
 5736TIP3    H138623   6.405   6.688   0.595 -0.4084  0.8532 -0.5704
 5736TIP3    H238624   6.454   6.790   0.495 -0.5066 -0.3041 -1.8270
 5737TIP3   OH238625   4.332   0.827   5.010 -0.0851  0.0257  0.4783
 5737TIP3    H138626   4.412   0.876   5.030 -0.5871  0.6304  1.0624
 5737TIP3    H238627   4.357   0.770   4.937  0.4522  1.3572 -0.4307
 5738TIP3   OH238628   0.774   5.236  12.723 -0.6535  0.3093  0.3187
 5738TIP3    H138629   0.730   5.312  12.687 -1.0552 -0.6094 -1.2035
 5738TIP3    H238630   0.810   5.190  12.647 -1.7061 -1.8077  1.0346
 5739TIP3   OH238631   2.499   5.424  10.817 -0.4401 -0.1125  0.0578
 5739TIP3    H138632   2.558   5.349  10.825  0.1600  0.4643  1.4492
 5739TIP3    H238633   2.516   5.459  10.729  1.0649 -0.1591  0.3058
 5740TIP3   OH238634   0.290   0.366   2.570 -0.1742  0.4075  0.0450
 5740TIP3    H138635   0.274   0.453   2.533  0.6282  1.2010  1.5097
 5740TIP3    H238636   0.344   0.322   2.504  0.4983  1.4827 -0.1526
 5741TIP3   OH238637   4.540   5.632  11.495 -0.6794 -1.0037 -0.5649
 5741TIP3    H138638   4.569   5.626  11.586 -0.5034  1.9648 -0.3326
 5741TIP3    H238639   4.612   5.595  11.444 -0.0193 -1.1178  0.4318
 5742TIP3   OH238640   4.036   0.948   3.226  0.1840 -0.0165  0.1107
 5742TIP3    H138641   4.109   0.888   3.241 -1.6503 -2.2478  0.6713
 5742TIP3    H238642   3.995   0.957   3.311 -1.1089 -0.1030 -0.4862
 5743TIP3   OH238643   5.788   0.864  14.305  0.0252 -0.1468 -0.2846
 5743TIP3    H138644   5.862   0.825  14.259 -0.6569 -1.4769 -0.2946
 5743TIP3    H238645   5.827   0.912  14.377  1.0274  0.9147 -1.4831
 5744TIP3   OH238646   5.891   5.660   3.875 -0.2728  0.7009  0.6566
 5744TIP3    H138647   5.804   5.695   3.896  0.4627  1.7679  2.1321
 5744TIP3    H238648   5.910   5.694   3.787 -1.1886  0.7580  0.4727
 5745TIP3   OH238649   0.749   4.881  11.531 -0.7073 -0.0531 -0.2626
 5745TIP3    H138650   0.659   4.882  11.563 -0.4951 -1.4796  0.4597
 5745TIP3    H238651   0.758   4.796  11.487  0.2014  0.1938 -0.5784
 5746TIP3   OH238652   1.984   6.336   0.659 -0.0358 -0.0234  0.0611
 5746TIP3    H138653   1.986   6.244   0.686 -0.2315  0.5180  2.1234
 5746TIP3    H238654   2.051   6.378   0.714  0.0550  1.0614 -0.8592
 5747TIP3   OH238655   5.412   2.074   5.370 -0.0276 -0.3654  0.9521
 5747TIP3    H138656   5.325   2.037   5.356 -0.8991  1.8154  0.0085
 5747TIP3    H238657   5.398   2.148   5.429  0.5563  1.8903 -1.4957
 5748TIP3   OH238658   1.035   2.902   2.832  0.4587  0.7318 -0.3018
 5748TIP3    H138659   0.980   2.824   2.822 -3.9244  3.4779 -0.3541
 5748TIP3    H238660   1.107   2.889   2.770 -0.1057 -3.1186 -0.3884
 5749TIP3   OH238661   1.981   5.514   6.097  0.4510  0.2042 -0.4842
 5749TIP3    H138662   2.013   5.564   6.171 -0.6313  1.7956 -1.0262
 5749TIP3    H238663   1.996   5.571   6.021 -1.1970 -0.0824 -1.0698
 5750TIP3   OH238664   3.089   6.359  16.310 -0.0385  0.7264  0.0593
 5750TIP3    H138665   3.125   6.363  16.221  0.3264  2.0881  0.2430
 5750TIP3    H238666   3.164   6.337  16.365 -0.0760  0.7442  0.1171
 5751TIP3   OH238667   4.785   3.051   5.323 -0.2835  0.0280  0.1129
 5751TIP3    H138668   4.738   2.998   5.258 -1.2625  0.5453  0.3842
 5751TIP3    H238669   4.717   3.102   5.366  0.8069  3.2893 -1.7043
 5752TIP3   OH238670   4.695   5.876  11.711 -0.6165 -0.1963 -0.3817
 5752TIP3    H138671   4.740   5.819  11.648 -0.4670  0.1043 -0.5487
 5752TIP3    H238672   4.629   5.820  11.751  0.2387 -0.7977  0.2443
 5753TIP3   OH238673   3.752   3.477  15.923 -0.0040 -0.3854 -0.4131
 5753TIP3    H138674   3.779   3.559  15.965  1.0930 -0.8428 -0.1751
 5753TIP3    H238675   3.657   3.484  15.914 -0.1807  0.0559  1.4370
 5754TIP3   OH238676   3.946   2.268  12.376  0.1936  0.2629 -0.2861
 5754TIP3    H138677   3.959   2.357  12.344  1.0340 -0.2323 -1.3955
 5754TIP3    H238678   3.965   2.212  12.300 -1.8270 -0.8206 -0.0714
 5755TIP3   OH238679   4.351   2.995   4.742  0.3798 -0.2094 -0.2807
 5755TIP3    H138680   4.354   2.947   4.825  0.4957  1.1617  0.5553
 5755TIP3    H238681   4.279   3.057   4.753  2.2900  2.0937  0.0629
 5756TIP3   OH238682   1.120   5.830  14.124 -0.0920 -0.0339 -0.2930
 5756TIP3    H138683   1.051   5.766  14.140 -0.3000 -0.8106 -3.4543
 5756TIP3    H238684   1.200   5.788  14.157 -0.8657  0.2871  2.1431
 5757TIP3   OH238685   5.185   4.977  16.517  0.0945 -0.2456 -0.1045
 5757TIP3    H138686   5.236   4.931  16.584  0.0611  0.6053  0.5161
 5757TIP3    H238687   5.228   4.954  16.434  0.5384 -0.7707  0.2641
 5758TIP3   OH238688   3.808   1.893  13.408  0.2727  0.1050 -0.0728
 5758TIP3    H138689   3.787   1.800  13.403  0.3477  0.0813  0.0551
 5758TIP3    H238690   3.728   1.934  13.441 -1.0580  0.5602 -3.4486
 5759TIP3   OH238691   0.535   1.476  15.926 -0.0406 -0.8079 -0.8411
 5759TIP3    H138692   0.544   1.558  15.975  0.1633 -0.8989 -0.7216
 5759TIP3    H238693   0.452   1.484  15.879  0.1485 -0.3934 -1.0988
 5760TIP3   OH238694   1.760   2.423   5.882 -0.2072  0.0216 -0.5269
 5760TIP3    H138695   1.676   2.390   5.851 -0.6087  2.5964 -2.6245
 5760TIP3    H238696   1.825   2.381   5.825  0.0862 -2.3196  1.3905
 5761TIP3   OH238697   3.212   5.809  12.737  0.2903 -0.0610 -0.0345
 5761TIP3    H138698   3.199   5.847  12.824 -1.7780 -1.0296  0.1348
 5761TIP3    H238699   3.141   5.746  12.727  0.4346  0.0511 -2.4642
 5762TIP3   OH238700   1.950   3.491   2.982 -0.0791 -0.2419 -0.5664
 5762TIP3    H138701   1.895   3.472   3.058  1.4338 -1.3721  0.3145
 5762TIP3    H238702   2.002   3.567   3.008 -1.1930  0.8430 -1.4062
 5763TIP3   OH238703   6.291   0.051   1.263  0.1883  0.2986 -0.0360
 5763TIP3    H138704   6.206   0.036   1.222  0.3751  0.3547 -0.4501
 5763TIP3    H238705   6.327   0.126   1.217  0.6036  0.0711 -0.0875
 5764TIP3   OH238706   6.011   4.759  12.740 -0.1645 -0.7573 -0.3661
 5764TIP3    H138707   5.940   4.750  12.804 -0.3515 -0.0954 -0.4719
 5764TIP3    H238708   5.979   4.825  12.679  1.3166  1.0222  0.6738
 5765TIP3   OH238709   4.596   2.221  14.535 -0.2320 -0.7522 -0.6739
 5765TIP3    H138710   4.611   2.132  14.568 -0.9040 -1.5181 -2.3017
 5765TIP3    H238711   4.511   2.216  14.491  0.6903  0.0858 -2.6999
 5766TIP3   OH238712   2.144   6.749  15.003  0.2864 -0.2293 -0.1555
 5766TIP3    H138713   2.078   6.787  15.061  0.7863 -0.7628  0.7950
 5766TIP3    H238714   2.105   6.667  14.972  0.7806 -0.9495  1.0440
 5767TIP3   OH238715   0.194   4.640  14.606  0.3196  0.0920  0.1433
 5767TIP3    H138716   0.181   4.557  14.560  0.4586  0.0246  0.2246
 5767TIP3    H238717   0.115   4.652  14.657  0.1002  0.2398 -0.2269
 5768TIP3   OH238718   2.152   3.984  12.585 -0.1772  0.5439 -0.4263
 5768TIP3    H138719   2.242   4.016  12.585  0.1607 -0.2273  1.7150
 5768TIP3    H238720   2.158   3.896  12.548  0.0481  0.2984  0.1827
 5769TIP3   OH238721   1.088   4.024  14.678  0.3845  0.3566  0.3083
 5769TIP3    H138722   1.182   4.032  14.691  0.2814  1.1038  0.6880
 5769TIP3    H238723   1.057   3.973  14.753  0.4514  0.3541  0.3340
 5770TIP3   OH238724   1.656   5.436  13.826 -0.1276 -0.1007 -0.5697
 5770TIP3    H138725   1.732   5.403  13.777  1.2654 -0.0788  1.4552
 5770TIP3    H238726   1.683   5.524  13.854  0.3546 -1.1216  2.5569
 5771TIP3   OH238727   6.649   2.535   4.530 -0.3215 -0.0470  0.2228
 5771TIP3    H138728   6.697   2.577   4.602  1.5352  1.1350 -1.5953
 5771TIP3    H238729   6.604   2.608   4.486  1.9213  0.0058 -2.2285
 5772TIP3   OH238730   0.521   3.152  12.007 -0.3187  0.5237 -1.2441
 5772TIP3    H138731   0.518   3.140  12.102  1.5564 -0.2246 -1.2448
 5772TIP3    H238732   0.483   3.072  11.971  0.2087  0.2204 -1.1307
 5773TIP3   OH238733   6.541   2.765  15.050 -0.2329 -0.0692 -0.3893
 5773TIP3    H138734   6.448   2.754  15.032 -0.3693 -0.0192  0.2377
 5773TIP3    H238735   6.567   2.683  15.091 -0.1217  0.1086 -0.1001
 5774TIP3   OH238736   4.163   4.688   3.586 -0.1530  0.3199 -0.0257
 5774TIP3    H138737   4.194   4.700   3.496  0.7109  1.1354  0.3621
 5774TIP3    H238738   4.075   4.727   3.586 -0.6527 -0.7352 -0.7815
 5775TIP3   OH238739   0.460   3.172  12.594 -0.2321 -0.2818 -0.1101
 5775TIP3    H138740   0.527   3.173  12.525 -1.1247 -0.7569 -1.0027
 5775TIP3    H238741   0.446   3.265  12.615 -0.3233 -0.0982 -0.9448
 5776TIP3   OH238742   0.575   1.601  13.724  0.3239  0.2933 -0.4056
 5776TIP3    H138743   0.590   1.694  13.742 -0.6393  0.2513  0.7425
 5776TIP3    H238744   0.557   1.563  13.810 -0.5361 -0.7218 -1.0183
 5777TIP3   OH238745   4.069   0.969   0.657  0.1702 -0.3741  0.1114
 5777TIP3    H138746   4.118   0.888   0.644 -0.6183 -0.8492  0.0132
 5777TIP3    H238747   4.136   1.037   0.666  0.8328 -0.9803 -0.1667
 5778TIP3   OH238748   3.497   3.047   1.311 -0.1039  0.0969  0.0247
 5778TIP3    H138749   3.540   2.986   1.371 -2.2490  1.1339  2.8538
 5778TIP3    H238750   3.562   3.116   1.297  0.3583  0.0172  1.5204
 5779TIP3   OH238751   3.410   4.416   0.874  0.8095  0.1834 -0.1167
 5779TIP3    H138752   3.339   4.446   0.816  0.3429  0.1467  0.4298
 5779TIP3    H238753   3.383   4.329   0.903  0.7878  0.4097  0.5608
 5780TIP3   OH238754   1.259   4.865  16.993  0.2489  1.0731 -0.1251
 5780TIP3    H138755   1.286   4.882  16.903  1.8584  1.6125  0.4124
 5780TIP3    H238756   1.201   4.789  16.987  0.1502  1.2348 -1.6239
 5781TIP3   OH238757   5.989   5.221  16.583  0.4583 -0.2588 -0.0793
 5781TIP3    H138758   5.994   5.178  16.498 -0.0885 -1.3376  0.4144
 5781TIP3    H238759   6.024   5.156  16.645  0.8460  0.5014  0.5249
 5782TIP3   OH238760   1.057   5.064  16.915 -0.2673 -1.1877  0.0526
 5782TIP3    H138761   1.010   5.113  16.983 -0.1279 -0.5701 -0.2899
 5782TIP3    H238762   1.129   5.023  16.962  0.8508  0.6319  0.0091
 5783TIP3   OH238763   5.531   0.363   2.231 -0.9137  0.9773  0.0666
 5783TIP3    H138764   5.483   0.420   2.172 -1.3646  0.9025  0.3530
 5783TIP3    H238765   5.467   0.338   2.298  0.0134  2.4590  1.5920
 5784TIP3   OH238766   2.895   3.218  13.640 -0.3400  0.7785  0.2042
 5784TIP3    H138767   2.899   3.187  13.730 -4.2741  1.0037  0.6416
 5784TIP3    H238768   2.857   3.145  13.591  0.1362  1.2608 -0.9265
 5785TIP3   OH238769   2.654   0.356  15.207 -0.3586  0.8232 -0.5515
 5785TIP3    H138770   2.625   0.314  15.126 -0.4392  0.6232 -0.4203
 5785TIP3    H238771   2.572   0.381  15.251 -0.3171  0.8443 -0.4860
 5786TIP3   OH238772   5.339   6.409  16.010 -0.0616 -0.4203 -0.3379
 5786TIP3    H138773   5.403   6.361  16.063 -1.9219 -2.4786  0.1688
 5786TIP3    H238774   5.324   6.490  16.060  1.1489 -0.4887  0.1873
 5787TIP3   OH238775   0.819   0.509   0.188  0.7923  0.5539  0.4329
 5787TIP3    H138776   0.747   0.449   0.169  0.5315  1.0972 -0.3407
 5787TIP3    H238777   0.800   0.587   0.136  0.0115  2.1753  2.9626
 5788TIP3   OH238778   1.305   2.896   0.971  0.0877 -0.0753  0.1446
 5788TIP3    H138779   1.325   2.938   0.887  1.5823 -0.7416  0.1220
 5788TIP3    H238780   1.355   2.946   1.035 -1.2741  0.6105  0.7151
 5789TIP3   OH238781   0.257   0.843   3.044  0.3834 -0.0814 -0.1508
 5789TIP3    H138782   0.281   0.889   2.964 -2.0121 -0.2063 -1.0147
 5789TIP3    H238783   0.319   0.875   3.110  1.2297  1.4301 -1.6101
 5790TIP3   OH238784   1.002   6.604   6.101 -0.7836 -0.7633 -0.5552
 5790TIP3    H138785   0.977   6.577   6.189  1.2656  2.5585  1.2594
 5790TIP3    H238786   1.090   6.568   6.089  0.7102  2.2016  0.6509
 5791TIP3   OH238787   0.539   5.736   2.723  0.1556  0.1143  0.3171
 5791TIP3    H138788   0.580   5.763   2.641 -1.3397  1.3268 -0.0588
 5791TIP3    H238789   0.521   5.818   2.769  0.8631 -0.5411  1.8224
 5792TIP3   OH238790   3.670   5.773   1.322  0.4856 -0.0571 -0.4090
 5792TIP3    H138791   3.741   5.832   1.297  1.8173 -1.3384  0.2192
 5792TIP3    H238792   3.624   5.819   1.392  1.8109  0.0719  0.4128
 5793TIP3   OH238793   3.059   6.447   4.770 -0.2239 -0.0524  0.1460
 5793TIP3    H138794   3.051   6.510   4.842  0.7462 -0.8386  0.9656
 5793TIP3    H238795   3.136   6.395   4.792  0.4958  0.1293 -1.8259
 5794TIP3   OH238796   0.473   4.546   2.727  0.1487  0.1540  0.1499
 5794TIP3    H138797   0.496   4.601   2.652  1.8341  0.0444  0.5307
 5794TIP3    H238798   0.482   4.603   2.803 -1.0992  0.1430  0.3178
 5795TIP3   OH238799   4.584   4.442  16.895 -0.4047  0.1926  0.1234
 5795TIP3    H138800   4.661   4.481  16.854 -0.6543 -0.3634 -0.9105
 5795TIP3    H238801   4.617   4.363  16.937 -0.3681  0.0720 -0.1300
 5796TIP3   OH238802   3.505   5.581  12.215 -0.8580 -0.2335  0.1348
 5796TIP3    H138803   3.473   5.576  12.125 -2.8412 -1.1722  0.8227
 5796TIP3    H238804   3.441   5.634  12.261  0.1513  0.2706  1.0015
 5797TIP3   OH238805   3.478   1.456  14.361  0.1225 -0.1233  0.3238
 5797TIP3    H138806   3.468   1.507  14.280 -1.7129 -0.6201  0.2080
 5797TIP3    H238807   3.491   1.521  14.429  2.1874  0.2966 -0.3772
 5798TIP3   OH238808   1.199   2.206   0.942  0.2385  0.4073 -0.4842
 5798TIP3    H138809   1.214   2.128   0.996 -2.6442  0.4556  0.6000
 5798TIP3    H238810   1.242   2.277   0.989 -0.3883  0.0721  0.6398
 5799TIP3   OH238811   4.565   5.080  15.016  0.0625 -0.2269 -0.3666
 5799TIP3    H138812   4.544   5.124  14.934  0.1162 -0.8148 -0.6960
 5799TIP3    H238813   4.651   5.116  15.040 -0.6192  1.0708  0.2243
 5800TIP3   OH238814   5.152   5.958   1.418 -0.3726 -0.2451 -0.1195
 5800TIP3    H138815   5.112   5.871   1.428  1.0840 -1.3653 -2.8877
 5800TIP3    H238816   5.244   5.944   1.437 -0.4401  1.2789  1.6049
 5801TIP3   OH238817   2.770   4.802  12.061 -0.4548 -0.0687 -0.3047
 5801TIP3    H138818   2.717   4.788  12.139 -0.9377  1.7771 -0.2561
 5801TIP3    H238819   2.761   4.721  12.011 -2.3358 -0.2711  0.2875
 5802TIP3   OH238820   3.107   2.707  16.007 -0.5253 -0.1968  0.2464
 5802TIP3    H138821   3.108   2.797  16.039  1.7818 -0.4325  1.0467
 5802TIP3    H238822   3.166   2.708  15.932 -1.1611 -0.8764 -0.2721
 5803TIP3   OH238823   0.081   3.293  14.805 -0.4072  0.0687 -0.1767
 5803TIP3    H138824   0.062   3.338  14.887 -0.4345  0.4652 -0.3974
 5803TIP3    H238825   0.100   3.203  14.831  2.6254  0.8211  0.6211
 5804TIP3   OH238826   3.833   2.879  16.846  0.6075  0.0558 -0.1494
 5804TIP3    H138827   3.853   2.809  16.783  1.3893  1.0605 -1.0646
 5804TIP3    H238828   3.738   2.886  16.844  0.6549  1.3409 -2.7506
 5805TIP3   OH238829   5.138   4.240   3.906  0.4526  0.2754  0.0973
 5805TIP3    H138830   5.049   4.262   3.934 -0.1082 -0.9968 -0.5668
 5805TIP3    H238831   5.151   4.289   3.826 -0.0848 -0.3515 -0.3891
 5806TIP3   OH238832   6.480   0.139  12.451  0.5589  0.1367 -0.4220
 5806TIP3    H138833   6.476   0.187  12.369 -0.5071 -0.8558 -0.9795
 5806TIP3    H238834   6.459   0.048  12.427 -0.7338 -0.0042  1.0579
 5807TIP3   OH238835   5.399   4.992  17.268 -0.4853  0.1100 -0.2358
 5807TIP3    H138836   5.411   5.083  17.242  1.1196 -0.7011 -2.7106
 5807TIP3    H238837   5.304   4.984  17.284 -0.6227  2.2183  0.2185
 5808TIP3   OH238838   0.541   4.755  14.879  0.2964  0.3232 -0.3402
 5808TIP3    H138839   0.486   4.800  14.816  2.0538  2.3748 -0.5417
 5808TIP3    H238840   0.512   4.664  14.876 -1.7470  0.9475 -1.7777
 5809TIP3   OH238841   4.556   3.291   3.955 -0.2065 -0.7241 -0.1322
 5809TIP3    H138842   4.622   3.238   3.910 -1.1444 -1.0257 -1.2060
 5809TIP3    H238843   4.478   3.284   3.900 -1.0525 -0.1262  0.9436
 5810TIP3   OH238844   4.027   4.534   0.207 -0.7179 -0.1480 -0.3969
 5810TIP3    H138845   4.098   4.591   0.236 -1.5343  0.1128  1.1709
 5810TIP3    H238846   3.969   4.527   0.282 -1.9783 -0.9677 -1.3996
 5811TIP3   OH238847   6.436   3.569   3.192 -0.1372 -0.9457  0.9889
 5811TIP3    H138848   6.391   3.639   3.144 -0.7631 -0.9588  1.5386
 5811TIP3    H238849   6.526   3.570   3.158 -0.1225  0.1579  1.0242
 5812TIP3   OH238850   4.501   5.835   4.098  0.2813 -0.3912  0.1382
 5812TIP3    H138851   4.593   5.824   4.076  0.2558  1.7088 -1.2942
 5812TIP3    H238852   4.455   5.774   4.040  0.7011 -0.3267 -0.2714
 5813TIP3   OH238853   0.578   0.836  11.887 -0.2106 -0.1497  0.6404
 5813TIP3    H138854   0.655   0.863  11.837 -0.5368  0.7180  0.5947
 5813TIP3    H238855   0.553   0.752  11.849  0.7413 -0.4648  0.6860
 5814TIP3   OH238856   3.036   4.226   3.172  0.2576  0.3158  0.0698
 5814TIP3    H138857   3.008   4.134   3.175 -1.8083  0.9192  0.8067
 5814TIP3    H238858   3.131   4.222   3.164  0.1017 -1.8965 -1.7854
 5815TIP3   OH238859   3.253   5.020  11.538  0.1823 -0.5491  0.1342
 5815TIP3    H138860   3.297   5.098  11.505  2.5812 -1.0451  1.8477
 5815TIP3    H238861   3.304   4.947  11.504 -1.5802 -1.3796 -0.8314
 5816TIP3   OH238862   6.156   3.780   6.424 -0.2861  0.0956  0.4294
 5816TIP3    H138863   6.186   3.689   6.429 -0.8543 -0.1379 -0.2375
 5816TIP3    H238864   6.064   3.777   6.448 -0.0726  0.6501  1.3699
 5817TIP3   OH238865   4.880   3.009  13.138  0.1241  0.2184  0.1100
 5817TIP3    H138866   4.909   2.942  13.076 -1.0260 -0.2582  0.0816
 5817TIP3    H238867   4.862   3.086  13.084 -0.2321  0.0091 -0.0705
 5818TIP3   OH238868   6.500   5.961   1.717  0.3064  0.1620 -0.0365
 5818TIP3    H138869   6.547   5.963   1.633  0.0493 -1.1700 -0.2393
 5818TIP3    H238870   6.542   6.028   1.770  2.2003 -0.7100 -0.3580
 5819TIP3   OH238871   4.969   0.457   0.611  0.0241 -0.1035  0.4750
 5819TIP3    H138872   5.006   0.370   0.626 -0.1787 -0.0575  1.3031
 5819TIP3    H238873   5.044   0.513   0.593  0.1805 -0.3922  0.2185
 5820TIP3   OH238874   0.639   0.056   2.067  0.6910 -0.2087 -0.6799
 5820TIP3    H138875   0.732   0.064   2.043  0.4817  0.5079 -1.2632
 5820TIP3    H238876   0.599   0.138   2.038  0.0577 -0.1022  0.4518
 5821TIP3   OH238877   5.967   0.315  10.722  0.2357 -0.4826 -0.2015
 5821TIP3    H138878   6.050   0.330  10.678  0.3116  0.9035  0.3414
 5821TIP3    H238879   5.986   0.250  10.789  0.9028 -0.1015 -0.0184
 5822TIP3   OH238880   0.774   1.162   0.041 -0.7814 -0.3482 -0.4650
 5822TIP3    H138881   0.724   1.103   0.096  0.7330 -0.1614  1.2150
 5822TIP3    H238882   0.742   1.249   0.064 -0.2555 -0.2815  0.0603
 5823TIP3   OH238883   5.114   5.819   6.355 -0.4188 -0.3213  0.1937
 5823TIP3    H138884   5.162   5.740   6.329  0.0353  0.5909 -1.9541
 5823TIP3    H238885   5.022   5.796   6.340 -0.3910 -0.8231  0.7358
 5824TIP3   OH238886   1.248   5.925   4.312  0.1336 -0.1479 -0.5066
 5824TIP3    H138887   1.197   5.905   4.233 -0.0606 -0.6652 -0.2496
 5824TIP3    H238888   1.186   5.971   4.369  0.5758  1.2203 -1.0927
 5825TIP3   OH238889   6.419   5.502  14.229 -0.2452 -0.8802  0.3165
 5825TIP3    H138890   6.452   5.441  14.295  0.5899 -1.3639 -0.5279
 5825TIP3    H238891   6.488   5.506  14.163 -1.1289 -0.5396 -0.6183
 5826TIP3   OH238892   6.536   4.947   1.891  0.0017  0.1035  0.0516
 5826TIP3    H138893   6.500   4.907   1.811 -0.9780  0.9528  0.0485
 5826TIP3    H238894   6.590   5.019   1.860 -0.9050  0.8507  0.1489
 5827TIP3   OH238895   1.497   5.531   3.661 -0.1386  0.1747 -0.4882
 5827TIP3    H138896   1.434   5.475   3.616  1.5132 -0.7138 -1.8246
 5827TIP3    H238897   1.489   5.507   3.753 -2.1380  0.5377 -0.5126
 5828TIP3   OH238898   2.940   2.732  17.190 -0.0961 -0.0754  0.0587
 5828TIP3    H138899   2.884   2.674  17.138  0.4707 -0.8905  0.3315
 5828TIP3    H238900   2.972   2.797  17.128  0.8806 -1.2644 -0.7426
 5829TIP3   OH238901   1.175   4.337  14.092  0.0441 -0.2679 -0.1404
 5829TIP3    H138902   1.117   4.293  14.154  1.0441 -0.6003  0.5927
 5829TIP3    H238903   1.263   4.314  14.122  0.6067  1.8518 -0.0174
 5830TIP3   OH238904   0.829   3.565   0.635  0.4579 -0.5583 -0.3777
 5830TIP3    H138905   0.874   3.522   0.708 -0.7751  0.3638  0.9841
 5830TIP3    H238906   0.830   3.658   0.658 -3.0490 -0.5622  0.3260
 5831TIP3   OH238907   2.549   1.979   3.715 -0.6425  0.2455 -0.8535
 5831TIP3    H138908   2.563   1.889   3.686 -0.4342  0.3538 -1.0888
 5831TIP3    H238909   2.634   2.020   3.707 -0.4898  0.1921  0.2329
 5832TIP3   OH238910   1.755   1.766   2.452 -0.4233 -0.2295  0.8525
 5832TIP3    H138911   1.819   1.719   2.505 -1.3923 -0.8179  1.5103
 5832TIP3    H238912   1.802   1.784   2.370  0.0777 -2.0409  0.7040
 5833TIP3   OH238913   3.843   5.982   5.325 -0.4701  0.4138  0.6380
 5833TIP3    H138914   3.857   5.968   5.419  2.5222 -0.5419  0.1578
 5833TIP3    H238915   3.799   6.066   5.319  0.3749  1.0758  2.8524
 5834TIP3   OH238916   6.655   3.746   0.491 -0.1546 -0.1187 -0.4302
 5834TIP3    H138917   6.676   3.679   0.426  0.8631 -1.2619  0.9903
 5834TIP3    H238918   6.637   3.696   0.571  2.4228  1.2991  1.1648
 5835TIP3   OH238919   0.685   3.506   2.419 -0.0999 -0.0306 -0.1464
 5835TIP3    H138920   0.616   3.447   2.389  0.4365  0.3885 -2.4181
 5835TIP3    H238921   0.764   3.473   2.376  0.6358  0.9296  0.4548
 5836TIP3   OH238922   5.885   2.365   1.378  0.0486 -0.1596 -0.3203
 5836TIP3    H138923   5.848   2.442   1.335  0.1913  0.7446  1.1159
 5836TIP3    H238924   5.838   2.359   1.461 -0.6715 -2.2364 -0.8215
 5837TIP3   OH238925   4.470   5.381  12.325 -0.3252 -0.2861 -0.0679
 5837TIP3    H138926   4.471   5.340  12.411 -0.4058 -0.5628 -0.1974
 5837TIP3    H238927   4.377   5.387  12.303 -0.2901 -0.5813 -0.3072
 5838TIP3   OH238928   0.387   3.476   5.636 -0.6945 -0.2098  0.0206
 5838TIP3    H138929   0.365   3.439   5.550  2.2360 -0.9459 -0.5216
 5838TIP3    H238930   0.309   3.458   5.690 -1.5285 -2.3183 -1.6925
 5839TIP3   OH238931   3.874   2.236   4.989  0.0026 -0.4008  0.0338
 5839TIP3    H138932   3.957   2.283   4.998  0.5823 -1.2943 -0.3928
 5839TIP3    H238933   3.855   2.238   4.895 -0.9040  0.5064  0.2192
 5840TIP3   OH238934   4.356   2.349   1.536  0.0621  0.2568  0.2132
 5840TIP3    H138935   4.294   2.364   1.607 -0.4519 -0.7998  0.0043
 5840TIP3    H238936   4.442   2.350   1.579 -0.3031 -1.4735  1.0760
 5841TIP3   OH238937   6.282   4.312  15.014  0.0688 -0.1320 -0.1108
 5841TIP3    H138938   6.362   4.352  15.051  0.6537 -1.7091  0.4224
 5841TIP3    H238939   6.307   4.285  14.926 -0.6766  1.6716 -0.9094
 5842TIP3   OH238940   4.671   5.366   2.511 -0.2450  0.2209 -0.0970
 5842TIP3    H138941   4.680   5.302   2.441 -2.7208 -0.3435  0.0301
 5842TIP3    H238942   4.582   5.355   2.544  0.5878  0.9414  2.7089
 5843TIP3   OH238943   4.013   0.653  12.119 -0.3341  0.7317 -0.3021
 5843TIP3    H138944   3.966   0.733  12.098 -0.6538  0.5338 -0.3456
 5843TIP3    H238945   3.962   0.612  12.189 -0.8841 -0.0761 -1.1503
 5844TIP3   OH238946   1.299   0.378   3.926 -0.2240  0.0390 -0.0952
 5844TIP3    H138947   1.270   0.425   4.005 -0.9221 -0.1213 -0.2570
 5844TIP3    H238948   1.394   0.373   3.936 -0.4100 -1.2787  1.4656
 5845TIP3   OH238949   1.551   1.282  15.903  0.1047 -0.0573  0.0141
 5845TIP3    H138950   1.577   1.323  15.821 -0.1653  0.2686  0.0847
 5845TIP3    H238951   1.455   1.284  15.901  0.0975 -0.0456  0.3379
 5846TIP3   OH238952   0.477   3.503   4.484 -0.6627  0.1554  0.2377
 5846TIP3    H138953   0.399   3.543   4.523 -1.1045  1.8592 -2.1546
 5846TIP3    H238954   0.465   3.515   4.390  1.6038 -1.2987 -0.3155
 5847TIP3   OH238955   5.578   3.896   1.189 -0.0143  0.3540  0.4416
 5847TIP3    H138956   5.627   3.967   1.229  0.9673 -0.1095  0.0785
 5847TIP3    H238957   5.502   3.939   1.148  1.0318  1.3209 -0.5446
 5848TIP3   OH238958   3.117   4.386   4.328 -0.1591 -0.0253 -0.0304
 5848TIP3    H138959   3.155   4.354   4.409  0.0099  0.2669  0.0084
 5848TIP3    H238960   3.025   4.405   4.349 -0.5433 -1.4716 -0.3210
 5849TIP3   OH238961   2.085   0.052   3.761  0.3633 -0.2041 -0.0796
 5849TIP3    H138962   2.172   0.014   3.772  0.6429  0.6929  0.9926
 5849TIP3    H238963   2.030   0.004   3.823  0.3315 -0.0619  0.0030
 5850TIP3   OH238964   4.995   0.997  13.849  0.6860 -0.1462  0.3903
 5850TIP3    H138965   5.042   1.077  13.874 -0.0136 -0.1938  1.9855
 5850TIP3    H238966   5.065   0.936  13.824  1.6176 -0.4085  3.2744
 5851TIP3   OH238967   5.852   4.794  16.628  0.8795  0.6609 -0.4489
 5851TIP3    H138968   5.795   4.719  16.639  0.7563  1.1253  3.9382
 5851TIP3    H238969   5.793   4.869  16.622  1.0454  0.6774 -2.8746
 5852TIP3   OH238970   3.542   4.924   1.374  0.3414 -0.1707  0.1408
 5852TIP3    H138971   3.529   4.853   1.437  0.5636 -1.5745 -1.3016
 5852TIP3    H238972   3.632   4.953   1.389 -0.3697  1.2448  2.0718
 5853TIP3   OH238973   4.501   4.580   3.067 -0.6164 -0.3066  0.3216
 5853TIP3    H138974   4.517   4.520   2.995 -0.3748 -0.6285  0.6377
 5853TIP3    H238975   4.588   4.595   3.104 -0.8040 -0.5524  0.8682
 5854TIP3   OH238976   3.470   5.384  12.839  0.0044  0.0022  0.0097
 5854TIP3    H138977   3.509   5.384  12.752  1.1611 -2.5049  0.4292
 5854TIP3    H238978   3.539   5.415  12.897  0.2587 -1.1297  0.3418
 5855TIP3   OH238979   3.733   5.740  11.609 -0.1640 -0.5389 -1.0642
 5855TIP3    H138980   3.783   5.659  11.597  1.3091  0.1706 -0.0480
 5855TIP3    H238981   3.655   5.712  11.657  0.3889 -1.3637 -0.6061
 5856TIP3   OH238982   3.934   1.568  17.363 -0.4441  0.5854  0.0246
 5856TIP3    H138983   3.890   1.553  17.446  1.8605 -0.6765  1.0953
 5856TIP3    H238984   3.933   1.483  17.319  1.2686  0.3713  0.3112
 5857TIP3   OH238985   3.928   2.451   2.765  0.1809  0.3044  0.3318
 5857TIP3    H138986   3.895   2.446   2.855 -1.6423  1.0908 -0.2596
 5857TIP3    H238987   3.970   2.366   2.752 -2.7401 -1.3491  0.7647
 5858TIP3   OH238988   4.656   4.270  11.900 -0.4727  0.0707 -0.2388
 5858TIP3    H138989   4.632   4.199  11.840 -2.7913 -0.7246  1.4634
 5858TIP3    H238990   4.607   4.345  11.869  0.9332  0.6297 -1.2331
 5859TIP3   OH238991   0.136   4.962  15.043  0.6961 -0.0177  0.0123
 5859TIP3    H138992   0.106   4.973  15.133  0.7858  1.6241 -0.1259
 5859TIP3    H238993   0.055   4.956  14.991  0.6447 -1.1543  0.2041
 5860TIP3   OH238994   5.681   2.480  14.387  0.0216 -0.0609  0.6837
 5860TIP3    H138995   5.684   2.573  14.409 -0.5056  0.3606 -0.9089
 5860TIP3    H238996   5.634   2.440  14.461 -1.3609  1.2235  0.5613
 5861TIP3   OH238997   0.188   4.705   2.910 -0.1061  0.6401  0.4020
 5861TIP3    H138998   0.274   4.728   2.876  0.8418 -4.6085 -1.6291
 5861TIP3    H238999   0.133   4.695   2.832 -1.4729  0.1894  1.3730
 5862TIP3   OH239000   3.956   0.094   4.083  0.1986  0.6297  0.4404
 5862TIP3    H139001   3.998   0.137   4.008  0.3579  1.1005  0.7919
 5862TIP3    H239002   4.024   0.087   4.149 -0.6020  2.8578  1.6164
 5863TIP3   OH239003   3.279   6.076   0.571  0.2054 -0.5763  0.6177
 5863TIP3    H139004   3.356   6.052   0.622  1.4992 -1.4762 -1.6570
 5863TIP3    H239005   3.261   6.000   0.516 -0.5542  0.6745 -0.9582
 5864TIP3   OH239006   5.691   6.642   1.239  0.2205 -0.1463 -0.0852
 5864TIP3    H139007   5.697   6.738   1.237  2.1503 -0.1670  1.2917
 5864TIP3    H239008   5.602   6.624   1.269 -0.1196  1.2204 -0.2156
 5865TIP3   OH239009   1.649   6.596  16.385 -0.1224  0.1649  0.1462
 5865TIP3    H139010   1.630   6.579  16.293 -1.9816 -0.3821  0.5729
 5865TIP3    H239011   1.706   6.523  16.412 -0.3399 -0.1934 -0.3494
 5866TIP3   OH239012   3.651   4.581   0.855 -0.1245 -0.1871  0.3014
 5866TIP3    H139013   3.588   4.511   0.872 -0.3126  0.0998  0.8119
 5866TIP3    H239014   3.610   4.659   0.893 -0.3248  0.3856 -1.0426
 5867TIP3   OH239015   6.468   2.906   3.552 -0.1099 -0.1954  0.3463
 5867TIP3    H139016   6.427   2.931   3.635 -1.2783 -1.4026  0.1678
 5867TIP3    H239017   6.443   2.974   3.491 -0.3858 -0.0162  0.6575
 5868TIP3   OH239018   1.190   4.339   1.780  0.0691 -0.2343 -0.0830
 5868TIP3    H139019   1.117   4.278   1.780 -0.1535 -0.1397 -2.9969
 5868TIP3    H239020   1.240   4.317   1.701  1.9786  1.0961  0.6613
 5869TIP3   OH239021   5.870   2.290   0.068 -0.3024 -0.2637 -0.1785
 5869TIP3    H139022   5.844   2.323  -0.017  1.0847 -2.3153 -1.5105
 5869TIP3    H239023   5.856   2.195   0.062  0.6536 -0.5576  1.5403
 5870TIP3   OH239024   0.705   0.713   1.454  0.5637 -0.0923  0.6372
 5870TIP3    H139025   0.636   0.769   1.421  1.4753  0.1932 -0.8870
 5870TIP3    H239026   0.673   0.624   1.439  1.4240 -0.0215 -2.3558
 5871TIP3   OH239027   4.772   0.858  14.304 -0.1598  0.1016  0.8156
 5871TIP3    H139028   4.784   0.763  14.303 -0.0918  0.1071  0.1886
 5871TIP3    H239029   4.708   0.875  14.373 -0.1025 -0.3930  0.9877
 5872TIP3   OH239030   5.505   5.981  13.896 -1.1019 -0.1498  0.0250
 5872TIP3    H139031   5.528   5.978  13.803 -0.1308 -0.5473  0.2589
 5872TIP3    H239032   5.579   6.027  13.937 -0.2433 -2.2119  0.9224
 5873TIP3   OH239033   0.179   2.910   0.588 -0.2865  0.1939  0.4875
 5873TIP3    H139034   0.087   2.935   0.596 -0.6293 -0.5650 -0.8622
 5873TIP3    H239035   0.221   2.987   0.550 -0.5347  0.2320  0.2842
 5874TIP3   OH239036   4.891   5.594   2.045 -0.1073  0.2081 -0.3366
 5874TIP3    H139037   4.975   5.615   2.004  0.8541 -0.1775  1.3379
 5874TIP3    H239038   4.827   5.650   2.000  1.2412  1.4573 -0.7699
 5875TIP3   OH239039   5.878   1.086  13.881 -0.0940 -0.3266 -0.4637
 5875TIP3    H139040   5.837   1.123  13.803 -1.1233 -1.4563 -0.4957
 5875TIP3    H239041   5.971   1.105  13.871  0.0769 -2.0280 -2.8918
 5876TIP3   OH239042   0.714   0.522   3.604  0.2652 -0.5873  1.1597
 5876TIP3    H139043   0.681   0.482   3.524 -0.7725  0.6428  0.9431
 5876TIP3    H239044   0.796   0.564   3.578  0.3711 -0.9162  0.9530
 5877TIP3   OH239045   4.835   6.427   2.520  0.0646  0.1552  0.2788
 5877TIP3    H139046   4.878   6.423   2.435  0.0625  1.4612  0.1984
 5877TIP3    H239047   4.891   6.375   2.578  1.9722  2.0525  0.2488
 5878TIP3   OH239048   4.596   3.763  12.998 -0.0848  0.4642  0.1787
 5878TIP3    H139049   4.562   3.840  12.952  0.5243  1.7221  1.6891
 5878TIP3    H239050   4.576   3.689  12.941  1.1650  1.9487 -2.3711
 5879TIP3   OH239051   0.337   2.261   2.190 -0.2734  0.2584 -0.3334
 5879TIP3    H139052   0.360   2.296   2.104 -1.2327  0.4282 -0.5337
 5879TIP3    H239053   0.360   2.168   2.185  2.6618  0.8515  0.3294
 5880TIP3   OH239054   4.473   4.316  13.121 -0.5733 -0.1993 -0.4426
 5880TIP3    H139055   4.411   4.378  13.083  1.1097  2.2675  0.5680
 5880TIP3    H239056   4.427   4.281  13.198 -0.9809  1.1182 -0.0545
 5881TIP3   OH239057   2.457   5.849   0.740 -0.9483  0.1660 -0.8110
 5881TIP3    H139058   2.537   5.882   0.781 -0.1776 -2.4467 -0.0127
 5881TIP3    H239059   2.487   5.793   0.669 -2.0371 -0.8781 -0.4920
 5882TIP3   OH239060   3.922   0.280   5.811 -0.2576  0.3433 -0.4972
 5882TIP3    H139061   3.932   0.311   5.901 -0.1713  1.6072 -0.9219
 5882TIP3    H239062   3.860   0.207   5.817  0.9537 -0.6502  0.7797
 5883TIP3   OH239063   4.663   6.351   1.974  0.1698  0.1728  0.4374
 5883TIP3    H139064   4.625   6.438   1.967  0.8052  0.3451 -1.4064
 5883TIP3    H239065   4.745   6.363   2.022  0.3540  0.6283  0.0103
 5884TIP3   OH239066   4.777   3.350   1.848  0.5502 -0.3505  0.5074
 5884TIP3    H139067   4.774   3.445   1.836  0.6894 -0.4207 -0.1358
 5884TIP3    H239068   4.717   3.333   1.921 -0.3573  0.1199 -0.1038
 5885TIP3   OH239069   6.443   0.986   3.186  0.9021 -0.1747 -0.5004
 5885TIP3    H139070   6.428   0.903   3.232 -0.4123 -0.6355 -1.6759
 5885TIP3    H239071   6.442   1.052   3.256 -3.3095 -0.5740  0.0720
 5886TIP3   OH239072   1.438   2.288   4.696 -0.2767 -0.0622 -0.4951
 5886TIP3    H139073   1.446   2.227   4.769  1.5814 -0.4722 -0.9884
 5886TIP3    H239074   1.360   2.340   4.716 -1.6935 -2.3092  0.1347
 5887TIP3   OH239075   4.465   2.984   4.490 -0.1779  0.0818 -0.3442
 5887TIP3    H139076   4.471   2.971   4.585  0.9902 -0.9152 -0.5295
 5887TIP3    H239077   4.396   3.050   4.479 -1.4927 -0.9815  1.1064
 5888TIP3   OH239078   0.578   2.459  10.737 -0.4484  0.6333  0.1975
 5888TIP3    H139079   0.535   2.544  10.749 -0.0745  0.9617 -0.7103
 5888TIP3    H239080   0.631   2.470  10.658 -0.5223 -0.4995 -0.0247
 5889TIP3   OH239081   5.754   0.846  16.646 -0.3348  0.2080 -0.2480
 5889TIP3    H139082   5.763   0.809  16.734 -1.4556 -0.4395 -0.3892
 5889TIP3    H239083   5.816   0.918  16.644 -1.7320  1.5777  1.8044
 5890TIP3   OH239084   1.668   4.429   5.134  0.2507  0.4887  0.0633
 5890TIP3    H139085   1.727   4.369   5.180 -1.5092 -0.1622  1.6305
 5890TIP3    H239086   1.683   4.514   5.176 -0.6387  0.1002  1.2207
 5891TIP3   OH239087   6.136   0.524   5.363 -0.3345 -0.0307 -0.0530
 5891TIP3    H139088   6.097   0.606   5.332 -0.4972 -0.0133  0.1997
 5891TIP3    H239089   6.137   0.468   5.285  1.8303  0.9586 -0.8245
 5892TIP3   OH239090   0.772   1.202   1.773  0.1736 -0.2808  0.4038
 5892TIP3    H139091   0.753   1.293   1.750  1.1497 -0.2234 -0.2266
 5892TIP3    H239092   0.785   1.203   1.868 -1.9693 -0.1700  0.7517
 5893TIP3   OH239093   6.275   3.382  13.548 -0.2704 -0.2106  0.3939
 5893TIP3    H139094   6.197   3.353  13.500 -0.2680 -1.5870  1.1535
 5893TIP3    H239095   6.347   3.369  13.487 -0.6554  1.5894 -0.5110
 5894TIP3   OH239096   4.194   3.151  11.879  0.5138  0.1811  0.6129
 5894TIP3    H139097   4.270   3.186  11.832  0.9775  0.7571  1.7391
 5894TIP3    H239098   4.231   3.117  11.961 -0.5627  1.5487  1.7210
 5895TIP3   OH239099   5.189   1.173   3.045 -0.5852 -0.8131  0.1595
 5895TIP3    H139100   5.120   1.108   3.060 -2.1330  0.0577 -2.4518
 5895TIP3    H239101   5.147   1.257   3.067  0.0392 -0.3739 -0.2857
 5896TIP3   OH239102   5.571   1.164  17.224  0.2318  0.3333 -0.2802
 5896TIP3    H139103   5.664   1.156  17.245  0.1647 -0.4664 -0.2681
 5896TIP3    H239104   5.562   1.252  17.188  0.7974  0.8002  0.7049
 5897TIP3   OH239105   3.287   2.534  13.043 -0.1692 -0.5678  0.2361
 5897TIP3    H139106   3.355   2.485  13.089 -0.3983 -0.4565  0.6999
 5897TIP3    H239107   3.317   2.538  12.952  1.1339  0.6880  0.6857
 5898TIP3   OH239108   0.099   2.651  13.017 -0.5959  0.1904 -0.4207
 5898TIP3    H139109   0.135   2.675  12.931  0.5132 -0.3349 -0.1280
 5898TIP3    H239110   0.104   2.556  13.019  0.7789  0.2479  0.7698
 5899TIP3   OH239111   5.054   6.075  14.234 -0.2512 -0.3384  0.2072
 5899TIP3    H139112   5.007   6.052  14.314 -0.1533 -2.0110 -0.1677
 5899TIP3    H239113   4.985   6.088  14.169 -0.3089  0.5130  0.4271
 5900TIP3   OH239114   2.095   2.356  11.314  0.3980 -0.3136  0.3940
 5900TIP3    H139115   2.011   2.341  11.271  0.3540 -0.6425  0.5882
 5900TIP3    H239116   2.103   2.284  11.377  0.4155  0.2033  1.0048
 5901TIP3   OH239117   4.181   6.070  13.291 -0.0406 -0.6511 -0.0742
 5901TIP3    H139118   4.248   6.071  13.222 -0.3979 -0.0525 -0.4202
 5901TIP3    H239119   4.227   6.040  13.369  0.7639  0.2529 -0.1835
 5902TIP3   OH239120   3.578   0.558  16.166  0.1038 -0.5175 -0.1541
 5902TIP3    H139121   3.496   0.507  16.161 -0.3721  0.2843 -0.7004
 5902TIP3    H239122   3.549   0.649  16.170  0.9864 -0.0032 -3.0348
 5903TIP3   OH239123   6.752   6.239   0.049  0.2875  0.4421 -0.2083
 5903TIP3    H139124   6.845   6.217   0.045  0.2388 -0.1926  1.2617
 5903TIP3    H239125   6.749   6.319   0.102 -0.0650 -0.2667  0.8853
 5904TIP3   OH239126   5.585   0.922   2.770  0.1367 -0.4580 -0.0720
 5904TIP3    H139127   5.658   0.890   2.822  0.1695 -1.5624 -0.7720
 5904TIP3    H239128   5.546   0.990   2.824  0.7292 -0.9372  0.9960
 5905TIP3   OH239129   4.977   5.784  15.277  0.3335 -0.4680 -0.0147
 5905TIP3    H139130   4.978   5.723  15.203 -0.0449  0.8820 -1.1859
 5905TIP3    H239131   4.885   5.805  15.289  0.5600  0.9387 -0.5751
 5906TIP3   OH239132   3.252   6.715   1.394 -0.1702  0.2119  0.5564
 5906TIP3    H139133   3.288   6.627   1.381 -1.8296 -0.5056  0.5033
 5906TIP3    H239134   3.328   6.770   1.411  0.7781 -1.6872  3.1665
 5907TIP3   OH239135   3.089   3.236  13.242 -0.9308 -0.2294 -0.3975
 5907TIP3    H139136   3.015   3.195  13.196 -1.9397  2.1186 -1.0551
 5907TIP3    H239137   3.128   3.293  13.176  0.0223  0.3303  0.6276
 5908TIP3   OH239138   5.628   5.145  12.221  0.6360  0.3729  0.3103
 5908TIP3    H139139   5.568   5.108  12.286  0.6850  1.4296  0.9823
 5908TIP3    H239140   5.643   5.073  12.159 -2.3316  0.4559 -0.6419
 5909TIP3   OH239141   1.340   4.808  15.758 -0.3777  0.1600  0.3107
 5909TIP3    H139142   1.307   4.744  15.821  0.5679  0.1355  0.7966
 5909TIP3    H239143   1.327   4.766  15.673  0.8372 -0.9786  0.6533
 5910TIP3   OH239144   2.566   1.634  17.226 -0.3303  0.4295  0.3489
 5910TIP3    H139145   2.481   1.593  17.211 -0.2699  0.0247  1.0812
 5910TIP3    H239146   2.622   1.598  17.158 -1.4517  2.9896 -2.1238
 5911TIP3   OH239147   2.845   4.187  15.006 -0.0672  0.0105  0.2442
 5911TIP3    H139148   2.865   4.253  14.940  0.4132 -0.9400 -0.5939
 5911TIP3    H239149   2.899   4.112  14.982 -0.8201 -0.8017  0.9968
 5912TIP3   OH239150   4.928   1.524   3.717 -0.3903 -0.7465  0.2394
 5912TIP3    H139151   5.006   1.489   3.674  0.1755 -0.3264  0.9115
 5912TIP3    H239152   4.934   1.493   3.807 -0.3547  0.3296  0.6155
 5913TIP3   OH239153   0.744   2.709  13.238 -0.0847  0.8253 -0.0036
 5913TIP3    H139154   0.743   2.698  13.334  0.9284  0.4214 -0.0227
 5913TIP3    H239155   0.711   2.626  13.204 -2.7657  1.8067  0.0022
 5914TIP3   OH239156   3.932   1.261   0.347 -0.0741  0.0059 -0.0468
 5914TIP3    H139157   3.914   1.195   0.280 -1.3765  0.0966  0.1808
 5914TIP3    H239158   3.877   1.335   0.324 -1.4369 -0.3811  1.7116
 5915TIP3   OH239159   1.149   0.119  15.040 -0.2477 -0.1440  0.2660
 5915TIP3    H139160   1.091   0.192  15.019  0.2985  0.6440  1.3973
 5915TIP3    H239161   1.188   0.094  14.957 -1.8731 -0.4229 -0.4665
 5916TIP3   OH239162   4.142   2.490   5.757  0.2512 -0.0230  0.3341
 5916TIP3    H139163   4.236   2.502   5.750  0.2715 -0.8855 -1.7410
 5916TIP3    H239164   4.129   2.396   5.742 -0.8838 -0.1278  1.7207
 5917TIP3   OH239165   3.190   1.730  16.683 -0.0272  0.2707 -0.0527
 5917TIP3    H139166   3.201   1.797  16.615 -2.4866  1.4251  0.5787
 5917TIP3    H239167   3.097   1.710  16.683  0.4659 -2.3191  0.6264
 5918TIP3   OH239168   3.211   5.473   5.085 -0.4226 -0.1780  0.2466
 5918TIP3    H139169   3.123   5.506   5.065 -0.9129 -1.2756  0.5427
 5918TIP3    H239170   3.217   5.479   5.181  0.3038  1.0378  0.1479
 5919TIP3   OH239171   0.293   0.495  12.044 -0.2076  0.3446  0.3581
 5919TIP3    H139172   0.273   0.521  11.953 -0.8213 -1.9947 -0.2411
 5919TIP3    H239173   0.369   0.548  12.068 -0.3216  1.3582 -1.3545
 5920TIP3   OH239174   5.250   0.954  11.105 -0.7238  0.3665 -0.2849
 5920TIP3    H139175   5.281   1.038  11.138  1.2145  0.3174 -1.7910
 5920TIP3    H239176   5.182   0.977  11.042 -0.6846  0.7588 -0.1888
 5921TIP3   OH239177   5.782   3.621   6.404 -0.1152 -0.2121 -0.1566
 5921TIP3    H139178   5.818   3.694   6.354  1.5777  1.4437  3.1252
 5921TIP3    H239179   5.698   3.654   6.437 -0.0776 -0.3229  0.0546
 5922TIP3   OH239180   5.678   3.757   2.773  0.0036 -0.0359 -0.3212
 5922TIP3    H139181   5.647   3.746   2.684  0.0691  3.3169 -0.8957
 5922TIP3    H239182   5.773   3.744   2.767 -0.2256 -1.9507 -0.2518
 5923TIP3   OH239183   4.928   1.854   0.108  0.3888  0.3249 -0.0304
 5923TIP3    H139184   4.865   1.851   0.035  0.2955  1.4814 -0.0182
 5923TIP3    H239185   4.959   1.764   0.117 -1.1637 -0.2457 -0.1224
 5924TIP3   OH239186   6.538   3.280  16.811  0.2813 -0.2041  0.6950
 5924TIP3    H139187   6.590   3.204  16.837  2.4367  1.3323  1.0547
 5924TIP3    H239188   6.593   3.356  16.830 -0.9854  1.3928 -1.4563
 5925TIP3   OH239189   3.528   2.449  16.935 -0.4024  0.2560 -0.0627
 5925TIP3    H139190   3.544   2.429  17.027  1.1416  0.6017 -0.2345
 5925TIP3    H239191   3.603   2.413  16.889 -0.9193  0.5122 -1.1440
 5926TIP3   OH239192   3.012   0.221  16.016  0.1102  0.1972 -1.0240
 5926TIP3    H139193   2.921   0.234  15.991 -0.1456 -1.9716 -1.3779
 5926TIP3    H239194   3.013   0.136  16.060  1.7888  0.6887 -0.0110
 5927TIP3   OH239195   4.468   5.031  14.516  0.7831  0.3854 -0.5703
 5927TIP3    H139196   4.476   5.126  14.508  1.6287  0.2865 -1.1383
 5927TIP3    H239197   4.454   5.001  14.426 -1.1330  0.0821 -0.2137
 5928TIP3   OH239198   2.562   5.780  15.804 -0.0328  0.7534  0.3143
 5928TIP3    H139199   2.472   5.756  15.827 -0.1320 -0.3002 -1.0573
 5928TIP3    H239200   2.610   5.697  15.805  0.4158  0.9666 -1.1543
 5929TIP3   OH239201   4.282   4.691  12.439  0.0831  0.0454  0.2370
 5929TIP3    H139202   4.303   4.782  12.417  0.6356  0.0606  0.7978
 5929TIP3    H239203   4.348   4.639  12.393  0.0658 -0.0429  0.3123
 5930TIP3   OH239204   3.456   5.021  16.587  0.2068 -0.2883  0.1577
 5930TIP3    H139205   3.480   5.030  16.680 -0.7819 -0.8275  0.4838
 5930TIP3    H239206   3.394   5.092  16.572 -1.3687 -1.5162  0.5487
 5931TIP3   OH239207   2.463   0.161   2.015  0.5038 -0.5767  0.4077
 5931TIP3    H139208   2.544   0.110   2.026  1.2848  0.2192 -1.3035
 5931TIP3    H239209   2.464   0.188   1.923 -2.0490 -1.0844  0.1646
 5932TIP3   OH239210   2.408   2.600   5.105  0.8833  0.5235  0.1383
 5932TIP3    H139211   2.391   2.532   5.039 -0.0098  0.5456  0.3345
 5932TIP3    H239212   2.356   2.575   5.180  1.5291  0.7607  0.6799
 5933TIP3   OH239213   1.927   2.386   0.894 -0.0579 -0.0384 -0.6331
 5933TIP3    H139214   1.957   2.473   0.922 -1.0881  0.1716 -0.1490
 5933TIP3    H239215   1.972   2.326   0.953  0.5632  0.1642 -0.8871
 5934TIP3   OH239216   1.327   4.346  14.414  0.1600  0.1830 -0.2821
 5934TIP3    H139217   1.294   4.422  14.365 -0.6874 -1.6490 -2.7662
 5934TIP3    H239218   1.418   4.367  14.432  0.3911  1.1499 -2.3213
 5935TIP3   OH239219   6.307   4.626  14.004 -0.5765 -0.2799 -0.5567
 5935TIP3    H139220   6.390   4.623  14.053 -0.8092  2.7467  0.2648
 5935TIP3    H239221   6.318   4.701  13.944 -1.5700 -1.8208 -2.8205
 5936TIP3   OH239222   3.014   3.269   3.068 -0.0418  0.1570 -0.1578
 5936TIP3    H139223   3.057   3.279   3.152  1.0157  3.2730 -0.9449
 5936TIP3    H239224   3.080   3.227   3.012 -0.1805 -0.4589  0.1317
 5937TIP3   OH239225   4.826   1.835   0.961  0.0724  0.0861 -0.4268
 5937TIP3    H139226   4.861   1.920   0.987 -0.2817  0.3464 -0.7869
 5937TIP3    H239227   4.888   1.771   0.996  0.8367  0.5292 -0.9680
 5938TIP3   OH239228   5.508   5.464  14.766  0.6953 -0.8606  0.0463
 5938TIP3    H139229   5.553   5.388  14.730  1.0034 -0.2348 -0.9133
 5938TIP3    H239230   5.571   5.502  14.829  1.8605  0.4037 -1.7759
 5939TIP3   OH239231   6.670   4.539   2.133  0.0027 -0.0854  0.1793
 5939TIP3    H139232   6.592   4.570   2.178  0.3414  0.0539  0.6833
 5939TIP3    H239233   6.658   4.444   2.126 -0.1962 -0.0685  0.2869
 5940TIP3   OH239234   1.740   2.691  11.956  0.2625 -0.7797 -0.3598
 5940TIP3    H139235   1.788   2.610  11.938  0.4899 -0.8391  0.4724
 5940TIP3    H239236   1.776   2.755  11.895  0.1291 -1.2930 -0.9779
 5941TIP3   OH239237   0.779   6.052   0.858 -0.1171  0.8403  0.3245
 5941TIP3    H139238   0.726   5.974   0.872 -1.8691  1.7347 -0.9870
 5941TIP3    H239239   0.864   6.019   0.830 -0.6367 -0.5875  0.3692
 5942TIP3   OH239240   3.641   5.120  15.862 -0.0371  0.0277  0.1510
 5942TIP3    H139241   3.575   5.138  15.795 -0.7942  1.1667  1.1571
 5942TIP3    H239242   3.691   5.201  15.868  0.4707 -0.3052  0.4764
 5943TIP3   OH239243   4.728   5.783   1.928 -0.0103 -0.1795  0.5238
 5943TIP3    H139244   4.633   5.783   1.935 -0.1307  1.2418 -0.5806
 5943TIP3    H239245   4.751   5.875   1.910  1.6467 -0.3147  1.7107
 5944TIP3   OH239246   4.510   0.772   3.145  0.0154  0.2741 -0.2001
 5944TIP3    H139247   4.558   0.826   3.081 -0.6544 -0.9124 -1.7746
 5944TIP3    H239248   4.567   0.769   3.221  1.2633  1.0312 -1.0588
 5945TIP3   OH239249   4.144   4.597   1.527 -0.4072  0.1392  0.4313
 5945TIP3    H139250   4.238   4.617   1.528 -0.3867  0.0663  0.0531
 5945TIP3    H239251   4.136   4.522   1.467 -0.7025  0.1270  0.4862
 5946TIP3   OH239252   4.194   1.351   1.028  0.1476 -0.5185 -0.1471
 5946TIP3    H139253   4.105   1.358   0.994 -0.2768  3.4301  1.2853
 5946TIP3    H239254   4.245   1.412   0.974  1.7832 -1.9191 -0.2537
 5947TIP3   OH239255   1.792   5.652   2.769 -0.9286 -0.0504  0.5123
 5947TIP3    H139256   1.713   5.694   2.802 -0.1414  1.2979  0.7660
 5947TIP3    H239257   1.864   5.708   2.800  0.1041 -1.0484  0.0071
 5948TIP3   OH239258   6.420   1.695  11.248  0.4323 -0.7326  0.9735
 5948TIP3    H139259   6.361   1.644  11.192  1.4465 -1.1282  0.2390
 5948TIP3    H239260   6.441   1.636  11.321  2.1972 -1.7125 -0.2538
 5949TIP3   OH239261   0.723   3.921  15.358  0.2622  0.4336 -0.0910
 5949TIP3    H139262   0.649   3.963  15.315 -2.1220 -1.3176  1.9789
 5949TIP3    H239263   0.775   3.993  15.394 -2.4759  1.7700  1.5135
 5950TIP3   OH239264   1.657   5.664  15.063  0.6774 -0.1768  0.1301
 5950TIP3    H139265   1.633   5.601  14.994 -0.3401  0.4040 -0.0701
 5950TIP3    H239266   1.724   5.619  15.115 -0.5731 -1.7517  0.4532
 5951TIP3   OH239267   2.305   3.068  17.269  1.0125 -0.2112 -0.6365
 5951TIP3    H139268   2.311   3.088  17.176 -0.0840 -0.0336 -0.6859
 5951TIP3    H239269   2.308   3.153  17.312  1.4350 -0.2882 -0.5079
 5952TIP3   OH239270   4.346   6.032  11.041  0.1050  0.1560  0.3527
 5952TIP3    H139271   4.407   6.103  11.021 -2.2190  1.5822 -2.1599
 5952TIP3    H239272   4.347   5.976  10.964 -0.1078 -1.1250  1.2338
 5953TIP3   OH239273   3.507   2.001  16.248  0.4274  0.2838  0.2152
 5953TIP3    H139274   3.453   1.990  16.171  0.0439  0.9729  0.3744
 5953TIP3    H239275   3.578   2.058  16.219  0.2853  0.5398  0.3671
 5954TIP3   OH239276   6.071   4.433  16.131 -0.7888  0.4082 -0.0618
 5954TIP3    H139277   6.095   4.443  16.223 -0.8108  0.4133 -0.0568
 5954TIP3    H239278   6.047   4.521  16.103 -0.6585  0.4304 -0.1076
 5955TIP3   OH239279   4.189   3.259  15.696  0.1506  0.2477  0.0766
 5955TIP3    H139280   4.240   3.256  15.777 -0.5233 -2.1039  0.4790
 5955TIP3    H239281   4.099   3.241  15.724  0.1642 -2.3616 -1.3393
 5956TIP3   OH239282   2.017   5.345   3.206 -0.1274  0.5024  0.4204
 5956TIP3    H139283   2.080   5.417   3.207  1.0470 -0.4861  1.6643
 5956TIP3    H239284   2.016   5.313   3.296 -0.8219 -0.8619 -0.0460
 5957TIP3   OH239285   2.745   5.374  14.557 -0.3189 -0.1401 -0.4399
 5957TIP3    H139286   2.796   5.295  14.576 -1.9222 -1.0157  0.4392
 5957TIP3    H239287   2.714   5.404  14.642 -0.3282  1.0354 -0.8374
 5958TIP3   OH239288   2.945   5.988  12.344 -0.7985  0.2035  0.1127
 5958TIP3    H139289   2.880   5.928  12.379 -0.5772 -0.1506 -0.0763
 5958TIP3    H239290   2.921   5.999  12.252  0.4928 -1.4415 -0.4789
 5959TIP3   OH239291   6.495   5.205  15.039  0.1203 -0.7249  0.5822
 5959TIP3    H139292   6.518   5.113  15.027 -0.8622 -0.7814 -1.2658
 5959TIP3    H239293   6.399   5.204  15.043  0.1065  0.2321  0.4976
 5960TIP3   OH239294   4.605   1.407   0.967 -0.3441 -0.6997  0.0801
 5960TIP3    H139295   4.606   1.500   0.944 -0.9158  0.7066  4.7097
 5960TIP3    H239296   4.530   1.398   1.026  0.9527 -3.6210  1.4617
 5961TIP3   OH239297   4.622   1.203  12.477 -0.4048 -0.3277 -0.7234
 5961TIP3    H139298   4.682   1.255  12.423  1.3645 -0.2555  1.1429
 5961TIP3    H239299   4.672   1.123  12.497 -0.7556 -0.1345  1.1350
 5962TIP3   OH239300   2.818   2.726  14.955 -0.1966  0.5117 -0.5669
 5962TIP3    H139301   2.900   2.697  14.916 -0.6543 -3.1709  0.8324
 5962TIP3    H239302   2.761   2.742  14.879  0.7110 -0.5999 -1.5421
 5963TIP3   OH239303   1.212   6.243   0.906  0.6032  0.1325  0.0649
 5963TIP3    H139304   1.180   6.173   0.963  1.6252 -1.0796 -0.7815
 5963TIP3    H239305   1.256   6.197   0.834  1.3487  1.6570 -0.5035
 5964TIP3   OH239306   3.785   1.836   2.868 -0.0399  0.1772  0.0343
 5964TIP3    H139307   3.733   1.820   2.947 -0.8219  0.4017 -0.4272
 5964TIP3    H239308   3.774   1.756   2.816 -1.1799  0.8150 -0.7455
 5965TIP3   OH239309   2.775   3.361  14.088 -0.2865 -0.2966  0.6611
 5965TIP3    H139310   2.697   3.416  14.080  0.8109  1.2412  0.0335
 5965TIP3    H239311   2.763   3.316  14.172 -2.1245 -0.5967  0.2969
 5966TIP3   OH239312   2.788   6.199  13.895  0.6302 -0.3909 -0.3695
 5966TIP3    H139313   2.863   6.147  13.923  2.0937  1.6825 -0.1984
 5966TIP3    H239314   2.742   6.220  13.976 -0.2192 -1.6995 -0.4780
 5967TIP3   OH239315   3.745   1.688   2.053  0.3760 -0.1992  0.5518
 5967TIP3    H139316   3.758   1.606   2.006  0.6958  0.0459  0.1997
 5967TIP3    H239317   3.695   1.665   2.131 -0.2205 -0.6098  0.0526
 5968TIP3   OH239318   1.943   0.829   3.647 -0.9624  0.3495  0.5308
 5968TIP3    H139319   1.932   0.914   3.604 -1.5627  0.0709  0.1299
 5968TIP3    H239320   1.911   0.843   3.736 -1.8785  0.3174  0.2138
 5969TIP3   OH239321   6.402   2.423   2.061  0.5908  0.2546  0.1854
 5969TIP3    H139322   6.346   2.430   1.983 -0.1985  2.8975  0.8853
 5969TIP3    H239323   6.484   2.385   2.029  0.5230  1.8662 -2.0938
 5970TIP3   OH239324   0.353   2.191   5.056  0.1121 -0.9078  0.4964
 5970TIP3    H139325   0.258   2.182   5.063  0.0402 -0.3311  0.3399
 5970TIP3    H239326   0.387   2.104   5.077 -0.4498 -1.1255  0.5296
 5971TIP3   OH239327   1.410   4.384   6.517  0.1086 -0.2020 -0.2514
 5971TIP3    H139328   1.491   4.426   6.548 -0.6844  0.3723  1.1353
 5971TIP3    H239329   1.341   4.448   6.537 -0.5900 -0.2172 -2.3811
 5972TIP3   OH239330   1.918   1.832  14.354 -0.7857  0.2390 -0.2632
 5972TIP3    H139331   1.885   1.829  14.444 -0.2661  0.3702 -0.0616
 5972TIP3    H239332   1.850   1.788  14.303 -0.9193 -0.1734  0.2481
 5973TIP3   OH239333   5.212   5.849  16.241 -0.1308  1.0590 -0.5340
 5973TIP3    H139334   5.192   5.930  16.195 -0.8439  1.9407  1.2463
 5973TIP3    H239335   5.258   5.876  16.320  0.8658 -0.3975 -0.5685
 5974TIP3   OH239336   5.872   1.714   2.786 -0.7828  0.0482 -0.5372
 5974TIP3    H139337   5.781   1.735   2.809 -0.1950  0.7007  1.3902
 5974TIP3    H239338   5.871   1.705   2.690 -2.7969  0.3594 -0.5954
 5975TIP3   OH239339   4.841   1.870  14.052 -0.4740  0.2006  0.4657
 5975TIP3    H139340   4.754   1.878  14.013  0.4809  0.5517 -1.7558
 5975TIP3    H239341   4.899   1.913  13.989  1.8117 -3.3186 -0.0895
 5976TIP3   OH239342   1.468   0.914   4.860 -0.0328  0.2280  0.4332
 5976TIP3    H139343   1.459   0.879   4.949 -0.0657  0.3056  0.4611
 5976TIP3    H239344   1.524   0.851   4.815  0.3689  0.4327  0.6411
 5977TIP3   OH239345   3.647   6.315   5.577  0.4184 -0.3035  0.0730
 5977TIP3    H139346   3.562   6.275   5.596 -1.5140  2.7030 -1.4052
 5977TIP3    H239347   3.676   6.272   5.496  0.6987 -1.8373  0.9606
 5978TIP3   OH239348   4.592   4.378   0.456 -0.1125 -0.4555  0.0949
 5978TIP3    H139349   4.535   4.309   0.422 -0.0769  0.2676 -1.4908
 5978TIP3    H239350   4.567   4.456   0.408  1.7397  0.0460 -0.1325
 5979TIP3   OH239351   4.262   4.721   4.441  0.3116 -0.3439 -0.1985
 5979TIP3    H139352   4.255   4.696   4.349 -2.1482  0.2083 -0.2068
 5979TIP3    H239353   4.329   4.663   4.477  1.5336 -0.3642 -2.3797
 5980TIP3   OH239354   3.522   5.955  14.840  0.5626  0.2200 -0.9162
 5980TIP3    H139355   3.454   5.903  14.796  0.2391  1.2279 -1.6537
 5980TIP3    H239356   3.582   5.981  14.770  1.7317 -0.6531 -0.2676
 5981TIP3   OH239357   4.303   4.265  10.890  0.2039 -0.0470  0.4114
 5981TIP3    H139358   4.247   4.334  10.926  0.7842 -0.0254  1.3162
 5981TIP3    H239359   4.343   4.304  10.813 -1.7033 -0.3698 -0.8045
 5982TIP3   OH239360   3.532   5.388   0.074  0.5452  0.2472  0.0855
 5982TIP3    H139361   3.544   5.360  -0.016 -0.8289  2.5528 -0.9185
 5982TIP3    H239362   3.482   5.318   0.115 -0.9916  0.2213 -1.6939
 5983TIP3   OH239363   4.177   5.127  11.979  0.0749 -0.2718 -0.3233
 5983TIP3    H139364   4.113   5.104  11.912 -0.7002  0.2793  0.2089
 5983TIP3    H239365   4.226   5.200  11.942  1.4868 -1.6988 -1.3777
 5984TIP3   OH239366   6.661   4.843  14.534  0.2886 -0.2684 -0.1861
 5984TIP3    H139367   6.696   4.798  14.611 -0.6394 -0.0445  0.3855
 5984TIP3    H239368   6.572   4.811  14.526  0.0601  0.4338 -0.5907
 5985TIP3   OH239369   0.867   3.258  13.192  0.1795  0.2027  0.1099
 5985TIP3    H139370   0.838   3.349  13.199 -0.9734 -0.2387  1.8907
 5985TIP3    H239371   0.790   3.211  13.162  1.3754  0.0350 -3.0821
 5986TIP3   OH239372   2.210   5.040   4.949  0.1127  0.2242  0.1002
 5986TIP3    H139373   2.235   4.968   5.007 -0.5232 -0.2795 -0.2398
 5986TIP3    H239374   2.292   5.068   4.909  0.7310  1.2244  1.9288
 5987TIP3   OH239375   6.650   5.712  16.258 -0.2059  0.2423  0.3219
 5987TIP3    H139376   6.712   5.731  16.328 -0.8373 -0.8361  1.1979
 5987TIP3    H239377   6.648   5.617  16.252  1.0537  0.2814 -2.2899
 5988TIP3   OH239378   4.784   1.189   6.317 -0.6542  0.5375  0.6239
 5988TIP3    H139379   4.793   1.156   6.406  2.0982  1.8830  0.9336
 5988TIP3    H239380   4.715   1.256   6.323 -0.2626  0.8506  1.8288
 5989TIP3   OH239381   6.649   5.525   3.739 -0.8166  0.0673 -0.3910
 5989TIP3    H139382   6.738   5.506   3.710 -0.1876  0.5403  1.1295
 5989TIP3    H239383   6.621   5.445   3.784 -1.7918 -0.6687 -2.1716
 5990TIP3   OH239384   0.259   1.371   1.625  0.4198  0.0893 -0.1012
 5990TIP3    H139385   0.221   1.400   1.542  1.1756  0.9817 -0.1492
 5990TIP3    H239386   0.183   1.347   1.679 -0.0746 -0.6463 -1.0877
 5991TIP3   OH239387   3.131   4.677  17.191  0.0791  0.0966 -0.0603
 5991TIP3    H139388   3.125   4.611  17.122  0.7340 -0.1904  0.1463
 5991TIP3    H239389   3.209   4.653  17.241 -0.7993 -0.1392  1.2510
 5992TIP3   OH239390   4.777   0.920   1.992  0.3145 -0.1130  0.1069
 5992TIP3    H139391   4.839   0.953   2.057 -1.2065  0.9515  1.1092
 5992TIP3    H239392   4.750   0.834   2.026  0.9223 -0.3860 -0.1057
 5993TIP3   OH239393   6.297   1.076  14.449 -0.6651  0.0917  0.2055
 5993TIP3    H139394   6.234   1.022  14.498 -2.2358  2.2327  0.6890
 5993TIP3    H239395   6.368   1.092  14.511 -0.0322 -1.5265 -0.0255
 5994TIP3   OH239396   3.554   4.500  16.395  0.2734 -0.1122  0.6059
 5994TIP3    H139397   3.624   4.523  16.333  0.7090  0.9388  1.4691
 5994TIP3    H239398   3.588   4.523  16.481 -1.1091  0.3621  1.0576
 5995TIP3   OH239399   3.130   2.450   5.821  0.0988  0.1000  0.5103
 5995TIP3    H139400   3.086   2.531   5.844 -0.9337 -0.7435  1.6223
 5995TIP3    H239401   3.208   2.448   5.877 -0.3833 -0.1256  1.1792
 5996TIP3   OH239402   4.210   5.077  16.666  0.7242 -0.1678 -0.0643
 5996TIP3    H139403   4.286   5.046  16.618 -0.0750 -1.3391 -0.6262
 5996TIP3    H239404   4.138   5.070  16.604  0.0180  0.1794  0.6951
 5997TIP3   OH239405   4.678   2.495  10.857 -0.2619  0.0892 -0.3208
 5997TIP3    H139406   4.617   2.561  10.824  0.4312  0.5752 -0.6845
 5997TIP3    H239407   4.763   2.540  10.857  0.0662 -0.5127  0.3292
 5998TIP3   OH239408   0.572   1.842   2.780 -0.2484 -0.2519 -0.1718
 5998TIP3    H139409   0.612   1.926   2.802 -1.7681  0.0141  1.8402
 5998TIP3    H239410   0.568   1.842   2.685  0.1299  1.7833 -0.2300
 5999TIP3   OH239411   5.189   6.302   6.104  0.5392  0.1001 -0.4467
 5999TIP3    H139412   5.216   6.386   6.141  2.3697  0.3111 -2.0914
 5999TIP3    H239413   5.097   6.313   6.083  0.3205  1.1016  0.8910
 6000TIP3   OH239414   1.677   6.132   0.744  0.1186 -0.1607 -0.0153
 6000TIP3    H139415   1.642   6.221   0.752  1.6008  0.3216  2.0108
 6000TIP3    H239416   1.680   6.100   0.835  2.1198 -1.2494 -0.4237
 6001TIP3   OH239417   5.853   1.956  16.743 -0.2979  0.1248  0.4352
 6001TIP3    H139418   5.912   1.994  16.678  1.3381 -1.4172  0.9208
 6001TIP3    H239419   5.766   1.964  16.704  0.3908  1.0908 -1.0155
 6002TIP3   OH239420   6.500   2.837  17.196 -0.4541  0.6296 -0.1717
 6002TIP3    H139421   6.560   2.815  17.125  1.6033  4.1356  0.2526
 6002TIP3    H239422   6.555   2.844  17.273 -1.4360  3.1835  0.4029
 6003TIP3   OH239423   6.540   6.580  15.477  0.2474  0.4735  0.3571
 6003TIP3    H139424   6.561   6.567  15.384 -0.8431  1.0003  0.0129
 6003TIP3    H239425   6.523   6.492  15.510  0.1194  0.3301 -0.0798
 6004TIP3   OH239426   0.410   4.836   2.789 -0.2166  0.2541  0.0068
 6004TIP3    H139427   0.380   4.924   2.812 -1.0454  0.1598 -0.6641
 6004TIP3    H239428   0.504   4.845   2.775 -0.5432  1.3670 -1.6006
 6005TIP3   OH239429   0.508   6.361   0.964  0.0470 -0.4141  0.1563
 6005TIP3    H139430   0.586   6.406   0.996 -1.0984  0.4393  1.9825
 6005TIP3    H239431   0.467   6.423   0.905 -0.4229  0.1184  1.0151
 6006TIP3   OH239432   0.898   4.259  12.927 -0.4675 -0.1752 -0.5377
 6006TIP3    H139433   0.870   4.337  12.975 -0.2916 -0.4640  0.0478
 6006TIP3    H239434   0.821   4.202  12.926 -0.0332 -0.8321  0.7891
 6007TIP3   OH239435   0.381   5.117  16.362  0.5641 -0.1878 -0.2235
 6007TIP3    H139436   0.472   5.092  16.344  0.7694  0.9815 -0.9780
 6007TIP3    H239437   0.345   5.043  16.411  0.3865 -3.0478 -4.2308
 6008TIP3   OH239438   4.170   2.305  15.407 -0.5769  0.4519 -0.1564
 6008TIP3    H139439   4.169   2.315  15.311 -0.6677 -0.8773 -0.3152
 6008TIP3    H239440   4.077   2.300  15.431 -0.5501  0.5472 -0.0329
 6009TIP3   OH239441   5.908   6.192  17.129 -0.2155  0.1189  0.3669
 6009TIP3    H139442   5.842   6.245  17.175 -0.6067 -0.9619  1.1156
 6009TIP3    H239443   5.877   6.102  17.141  1.9690 -0.5277  1.7237
 6010TIP3   OH239444   2.116   5.570   5.852 -0.2184  0.0312  0.0068
 6010TIP3    H139445   2.082   5.650   5.813 -0.3995  0.3540  0.7974
 6010TIP3    H239446   2.176   5.600   5.920 -0.3620 -0.4997  0.3742
 6011TIP3   OH239447   3.359   6.149  15.033  0.1137  0.0526 -0.9435
 6011TIP3    H139448   3.291   6.091  15.068 -0.4497  1.6333  0.8204
 6011TIP3    H239449   3.429   6.091  15.006  0.0190 -1.4608  1.6856
 6012TIP3   OH239450   1.321   2.155  17.341 -0.0707  0.3069 -0.4045
 6012TIP3    H139451   1.377   2.232  17.332  1.0799 -0.4435  0.0953
 6012TIP3    H239452   1.280   2.145  17.255 -0.3025  1.5107 -0.4522
 6013TIP3   OH239453   3.787   3.476   3.404 -0.1600 -0.0016 -0.5030
 6013TIP3    H139454   3.828   3.490   3.490  0.6256 -3.7011 -0.1120
 6013TIP3    H239455   3.855   3.435   3.351 -1.1454  0.6805 -2.3985
 6014TIP3   OH239456   6.535   4.285   2.117 -0.5511  0.1386  0.4758
 6014TIP3    H139457   6.490   4.284   2.201 -0.7091  0.1610  0.3925
 6014TIP3    H239458   6.624   4.256   2.136 -0.6094  0.0670  0.6373
 6015TIP3   OH239459   0.679   0.337  14.232 -0.1463 -0.0092  0.0341
 6015TIP3    H139460   0.586   0.323  14.213 -0.3483  3.1100 -2.1540
 6015TIP3    H239461   0.679   0.380  14.318 -0.5850 -0.9192  0.5077
 6016TIP3   OH239462   6.447   2.082   1.374  0.7999  0.5350  0.1744
 6016TIP3    H139463   6.380   2.072   1.441 -1.1182 -0.6492 -1.7927
 6016TIP3    H239464   6.500   2.002   1.380  0.3009  0.1831 -0.0487
 6017TIP3   OH239465   2.451   3.658   3.223  0.5112  0.1710  0.3252
 6017TIP3    H139466   2.398   3.619   3.293 -0.5288 -1.1664 -1.1324
 6017TIP3    H239467   2.464   3.587   3.161  1.5177  1.2915 -0.7938
 6018TIP3   OH239468   4.169   6.255   3.720  0.2558  0.0269 -0.4224
 6018TIP3    H139469   4.156   6.203   3.799 -0.2883  0.1856 -0.3998
 6018TIP3    H239470   4.081   6.262   3.682  0.6104 -0.6296 -1.4067
 6019TIP3   OH239471   3.759   4.650  15.911 -0.1360  0.0217 -0.0723
 6019TIP3    H139472   3.747   4.703  15.832  1.5316 -0.5290 -0.7400
 6019TIP3    H239473   3.689   4.584  15.906 -1.6401  1.5285  0.2863
 6020TIP3   OH239474   4.607   4.093  13.599  0.2401  0.2833 -0.8028
 6020TIP3    H139475   4.534   4.117  13.542 -0.9018 -0.0632  0.4685
 6020TIP3    H239476   4.629   4.174  13.645 -1.2796 -0.2197  0.9066
 6021TIP3   OH239477   1.884   1.772  17.351  0.4248 -0.4265  0.2094
 6021TIP3    H139478   1.850   1.855  17.383 -0.2180 -0.1078 -1.1969
 6021TIP3    H239479   1.919   1.792  17.264  1.2591 -1.4154  0.2932
 6022TIP3   OH239480   3.038   1.017   4.180  0.8437  0.0427  0.3138
 6022TIP3    H139481   3.054   0.928   4.211 -0.4135 -0.3217 -0.0229
 6022TIP3    H239482   3.124   1.060   4.186  1.9153 -1.7016 -1.2531
 6023TIP3   OH239483   5.469   0.396   1.444  0.3738  0.8899 -0.2954
 6023TIP3    H139484   5.495   0.304   1.436  0.6010  1.0322 -1.3646
 6023TIP3    H239485   5.373   0.393   1.452  0.2460  0.5990 -1.6168
 6024TIP3   OH239486   6.568   5.374   2.517 -0.3366 -0.1593  0.2940
 6024TIP3    H139487   6.562   5.349   2.424 -3.0145  0.8763  0.1133
 6024TIP3    H239488   6.632   5.445   2.518 -0.4110 -0.0526 -0.7930
 6025TIP3   OH239489   1.129   6.421  16.378  0.1875  0.0161 -0.4069
 6025TIP3    H139490   1.155   6.372  16.455  0.9228  1.7410  0.4902
 6025TIP3    H239491   1.189   6.495  16.374 -0.9015  0.9004 -1.6637
 6026TIP3   OH239492   6.734   6.122  14.403  0.0988 -0.4735  0.1133
 6026TIP3    H139493   6.691   6.166  14.477  3.3278  0.7235  1.4814
 6026TIP3    H239494   6.679   6.144  14.328 -1.9357  0.4412  1.7299
 6027TIP3   OH239495   5.719   2.743   4.425  0.3778  0.4094 -0.3083
 6027TIP3    H139496   5.686   2.802   4.357 -1.4278 -1.1006 -0.8539
 6027TIP3    H239497   5.654   2.673   4.429  0.2899  0.5085  3.1585
 6028TIP3   OH239498   2.623   6.464  13.064  0.0864 -0.1527 -0.0018
 6028TIP3    H139499   2.535   6.492  13.084  0.6196  1.3167  0.3589
 6028TIP3    H239500   2.680   6.521  13.115  1.2367 -2.1287  1.0644
 6029TIP3   OH239501   3.705   4.993  12.352 -1.0428 -0.4406 -0.1147
 6029TIP3    H139502   3.625   4.952  12.383  0.1426 -1.4455  1.8030
 6029TIP3    H239503   3.711   5.075  12.400 -1.3575  0.0586 -0.9164
 6030TIP3   OH239504   0.794   2.945  15.584  0.2971 -0.3199 -0.3001
 6030TIP3    H139505   0.850   2.899  15.522  0.9158  4.5425 -3.9090
 6030TIP3    H239506   0.720   2.976  15.531 -1.3174  0.7463  2.3823
 6031TIP3   OH239507   2.393   0.137  10.364  0.4591 -0.4768  0.1332
 6031TIP3    H139508   2.335   0.110  10.435 -2.0656 -2.5292 -2.5183
 6031TIP3    H239509   2.479   0.147  10.407 -1.1122 -0.3736  3.6449
 6032TIP3   OH239510   6.246   2.007   4.513 -0.4438  0.3160  0.3283
 6032TIP3    H139511   6.257   1.934   4.573  2.3384 -0.2153 -0.6454
 6032TIP3    H239512   6.180   1.978   4.451  0.3040 -1.2412  0.2225
 6033TIP3   OH239513   0.571   6.434   4.180  0.0341 -0.2643 -0.1948
 6033TIP3    H139514   0.551   6.525   4.155  0.1552 -0.7124 -2.0734
 6033TIP3    H239515   0.663   6.422   4.154  0.1057 -0.8368  0.3095
 6034TIP3   OH239516   4.243   1.947  13.393 -0.1645 -0.2785  0.5583
 6034TIP3    H139517   4.224   1.863  13.436 -0.7627  0.5656  2.0013
 6034TIP3    H239518   4.194   1.943  13.311  0.2629 -1.5622  0.3355
 6035TIP3   OH239519   0.663   1.337   2.989 -0.8066  0.3173 -0.0681
 6035TIP3    H139520   0.664   1.432   2.983  2.4044  0.5598  1.5517
 6035TIP3    H239521   0.641   1.306   2.902 -0.7774  2.5764 -0.9164
 6036TIP3   OH239522   2.470   1.122   0.810 -0.3498 -0.2417  0.6560
 6036TIP3    H139523   2.545   1.163   0.854 -0.3671 -0.0435  0.5031
 6036TIP3    H239524   2.496   1.117   0.719 -0.3325 -0.6129  0.6818
 6037TIP3   OH239525   5.352   4.027  11.214 -0.3042  0.5550  0.3204
 6037TIP3    H139526   5.271   4.072  11.193 -0.7016 -0.0287  0.5586
 6037TIP3    H239527   5.401   4.025  11.132 -1.2618 -0.5496 -0.2544
 6038TIP3   OH239528   5.449   4.829   3.075 -0.3788  0.6081 -0.2002
 6038TIP3    H139529   5.419   4.769   3.143  2.4173 -1.1700 -0.3696
 6038TIP3    H239530   5.426   4.916   3.108 -0.0212 -0.2337  2.5497
 6039TIP3   OH239531   4.218   0.033  14.905 -0.1495  0.4308 -0.1422
 6039TIP3    H139532   4.276   0.068  14.973  1.3473 -0.9761 -0.6440
 6039TIP3    H239533   4.144  -0.004  14.953  0.2722  0.5746  0.6372
 6040TIP3   OH239534   2.487   5.428   0.673  0.5448 -0.2589  0.1729
 6040TIP3    H139535   2.425   5.429   0.600  0.7531 -1.7664 -0.0511
 6040TIP3    H239536   2.564   5.383   0.638  0.6706 -0.9418  1.2986
 6041TIP3   OH239537   4.848   3.592   5.973 -0.2633 -0.5071  0.7711
 6041TIP3    H139538   4.847   3.684   5.946  1.9900 -0.9459 -1.0736
 6041TIP3    H239539   4.771   3.554   5.930 -0.7228  0.3002  0.8431
 6042TIP3   OH239540   0.424   5.582  14.237 -0.0751 -0.1824  0.0411
 6042TIP3    H139541   0.387   5.670  14.246  0.3033 -0.0099 -0.0864
 6042TIP3    H239542   0.348   5.524  14.238 -0.3824  0.1977 -0.5989
 6043TIP3   OH239543   2.404   4.669  13.281  0.5989  0.1532  0.2675
 6043TIP3    H139544   2.473   4.701  13.338 -0.6903  1.0505  1.4015
 6043TIP3    H239545   2.335   4.641  13.342 -0.5292  0.4692 -0.8425
 6044TIP3   OH239546   1.900   6.009  11.427  0.0192 -0.1949  0.0343
 6044TIP3    H139547   1.888   6.059  11.347 -0.5618  0.7831  0.7097
 6044TIP3    H239548   1.905   6.075  11.496 -0.8878 -1.0480  0.9566
 6045TIP3   OH239549   2.453   4.459   2.716 -0.1954  0.5378  0.0355
 6045TIP3    H139550   2.416   4.534   2.762 -1.8025  0.0440 -0.3910
 6045TIP3    H239551   2.547   4.462   2.737 -0.3853  2.0762  0.8175
 6046TIP3   OH239552   5.010   4.506   4.544  0.4619 -0.5674 -0.0790
 6046TIP3    H139553   5.050   4.435   4.493  0.3498  0.0179 -1.0046
 6046TIP3    H239554   5.078   4.532   4.606  0.7441 -1.0329 -0.1845
 6047TIP3   OH239555   1.591   3.513  14.139  0.3582 -0.7563 -0.1185
 6047TIP3    H139556   1.622   3.491  14.227  1.9554  0.1875 -0.3982
 6047TIP3    H239557   1.503   3.549  14.153 -0.0756 -2.1059  0.8875
 6048TIP3   OH239558   4.355   5.398   5.443  0.1037  0.3240  0.0861
 6048TIP3    H139559   4.376   5.443   5.361  0.7185 -1.6948 -0.9274
 6048TIP3    H239560   4.404   5.316   5.439 -2.3562 -1.3249  0.9866
 6049TIP3   OH239561   0.692   1.160   1.403  0.5714 -0.7233 -0.0788
 6049TIP3    H139562   0.653   1.216   1.469 -0.1618 -0.2409 -0.8953
 6049TIP3    H239563   0.714   1.079   1.450 -0.2228 -0.5123  0.6801
 6050TIP3   OH239564   1.406   4.970   3.010 -0.1231  0.1811 -0.0542
 6050TIP3    H139565   1.486   4.924   3.033 -0.6564  0.4274  2.5418
 6050TIP3    H239566   1.335   4.911   3.037 -0.8393  0.6956 -0.7415
 6051TIP3   OH239567   4.676   5.602   3.707  0.1933  0.1193 -0.3800
 6051TIP3    H139568   4.593   5.556   3.718  0.7273 -0.8733 -0.3789
 6051TIP3    H239569   4.651   5.694   3.692 -0.8464  0.0358  0.7108
 6052TIP3   OH239570   1.233   5.202   0.519  0.1464 -0.6205  0.5476
 6052TIP3    H139571   1.190   5.161   0.594 -0.1660 -0.6278  0.3662
 6052TIP3    H239572   1.182   5.282   0.503  0.3325 -0.5162  0.4689
 6053TIP3   OH239573   1.950   3.836  12.726  0.7925  0.1271 -0.7067
 6053TIP3    H139574   2.010   3.907  12.702 -1.5292  2.5872  0.2129
 6053TIP3    H239575   1.898   3.820  12.648  0.0023  0.8933 -0.3532
 6054TIP3   OH239576   1.627   2.262  12.893 -0.4309 -0.0142  0.5748
 6054TIP3    H139577   1.598   2.235  12.980 -1.0713 -0.8170  0.1251
 6054TIP3    H239578   1.633   2.181  12.844 -0.9642  0.5148 -0.3917
 6055TIP3   OH239579   4.445   5.479   3.722 -0.1259 -0.3915  0.0905
 6055TIP3    H139580   4.457   5.391   3.686  0.5440 -0.5572  0.6906
 6055TIP3    H239581   4.377   5.518   3.667  0.2208 -0.9507 -0.7570
 6056TIP3   OH239582   4.987   6.164   0.968 -0.2920 -0.2735  0.2550
 6056TIP3    H139583   5.065   6.153   0.914 -0.7014 -2.9405  0.0734
 6056TIP3    H239584   5.014   6.134   1.055 -1.1429 -1.4910  0.1222
 6057TIP3   OH239585   6.337   2.724   4.479 -0.4894  0.5497 -0.0385
 6057TIP3    H139586   6.430   2.739   4.461 -0.5396  1.2161  0.2268
 6057TIP3    H239587   6.334   2.640   4.525 -0.2652 -0.7319 -2.2188
 6058TIP3   OH239588   3.030   1.011  14.697  0.6713 -0.5064  0.5509
 6058TIP3    H139589   3.086   1.023  14.774  1.0537  0.9092  0.0979
 6058TIP3    H239590   3.091   1.016  14.622  0.0294  0.7169  0.0678
 6059TIP3   OH239591   4.938   1.875   6.575  0.2826 -0.9798  0.2453
 6059TIP3    H139592   5.023   1.872   6.620  0.1885 -0.5403  0.4573
 6059TIP3    H239593   4.934   1.963   6.538 -0.8172 -0.3730  1.7064
 6060TIP3   OH239594   6.232   4.618   2.020  0.0319 -0.4899  0.3493
 6060TIP3    H139595   6.185   4.702   2.019  0.1893 -0.3083 -2.8939
 6060TIP3    H239596   6.164   4.552   2.029 -0.6367 -0.1150 -1.4625
 6061TIP3   OH239597   2.913   1.743  10.471  0.0452 -0.0610  0.5137
 6061TIP3    H139598   2.925   1.710  10.560 -0.8796  1.8029  1.3849
 6061TIP3    H239599   2.818   1.751  10.462  0.1537  0.1390 -0.5101
 6062TIP3   OH239600   2.283   6.339   5.049 -0.4708  0.2459 -0.3845
 6062TIP3    H139601   2.231   6.346   5.130 -0.4621 -2.4757 -0.0373
 6062TIP3    H239602   2.267   6.249   5.019  3.5483 -0.5970 -0.5622
 6063TIP3   OH239603   5.708   0.649  13.469  0.5035 -0.5097  0.0792
 6063TIP3    H139604   5.692   0.603  13.552 -0.6683 -2.4108 -1.1384
 6063TIP3    H239605   5.724   0.740  13.495 -1.2305 -0.7532  2.3069
 6064TIP3   OH239606   3.192   1.950  12.874  0.1651  0.2736 -0.1633
 6064TIP3    H139607   3.132   1.941  12.949 -0.4178  1.1344 -0.5148
 6064TIP3    H239608   3.151   2.015  12.818  1.0439  0.2877 -0.8109
 6065TIP3   OH239609   1.112   1.931  14.497  0.6070 -0.0985 -0.5576
 6065TIP3    H139610   1.108   1.907  14.590  1.4576 -0.3554 -0.5774
 6065TIP3    H239611   1.089   1.851  14.450  2.6222 -0.6922 -0.6053
 6066TIP3   OH239612   5.533   6.038   3.733 -0.4793 -0.4016 -0.3932
 6066TIP3    H139613   5.487   6.069   3.654 -2.5242 -1.9712  0.0826
 6066TIP3    H239614   5.539   5.943   3.721 -1.3879 -0.7616  1.5540
 6067TIP3   OH239615   4.296   3.075  15.013  0.0734  0.2706  0.2170
 6067TIP3    H139616   4.374   3.119  14.981 -0.9817  0.7981 -1.8280
 6067TIP3    H239617   4.313   2.982  14.998  0.9138  0.2379  1.2760
 6068TIP3   OH239618   0.762   4.966  11.017 -0.3160  0.2095 -0.2592
 6068TIP3    H139619   0.783   5.002  11.103 -0.0162 -0.4254 -0.0597
 6068TIP3    H239620   0.713   5.036  10.974 -2.5775 -0.3091  1.2944
 6069TIP3   OH239621   4.850   6.751   1.876 -0.4292 -0.2488  0.1292
 6069TIP3    H139622   4.813   6.749   1.964  2.0196  0.4784  1.2623
 6069TIP3    H239623   4.911   6.678   1.873  1.0758  0.9679 -0.1822
 6070TIP3   OH239624   0.340   4.197   3.009  0.0310  0.4177 -0.4606
 6070TIP3    H139625   0.312   4.262   2.944  2.2278  2.2366  0.2801
 6070TIP3    H239626   0.312   4.113   2.972 -0.7422  1.5605 -2.6692
 6071TIP3   OH239627   2.382   4.710  14.472  0.6237 -0.0939  0.1373
 6071TIP3    H139628   2.431   4.722  14.391  1.5362 -0.5601  0.6034
 6071TIP3    H239629   2.368   4.616  14.478 -0.5629  0.0489 -0.1066
 6072TIP3   OH239630   3.651   4.781  13.850  0.2968  0.2530  0.6328
 6072TIP3    H139631   3.561   4.811  13.836  0.1473 -1.0110 -1.5973
 6072TIP3    H239632   3.701   4.861  13.863 -1.0974  0.9966  1.6837
 6073TIP3   OH239633   5.768   1.401   6.821  0.5666 -0.5618 -0.2612
 6073TIP3    H139634   5.827   1.354   6.761  1.5224  0.7599 -0.3969
 6073TIP3    H239635   5.770   1.492   6.790  0.0880 -0.1001  1.0253
 6074TIP3   OH239636   3.647   0.082  15.578 -0.2979  1.0854 -0.3049
 6074TIP3    H139637   3.659   0.043  15.492  2.2757  1.2751 -0.1080
 6074TIP3    H239638   3.709   0.036  15.635 -2.5884  0.3002  1.7389
 6075TIP3   OH239639   1.544   2.733   0.607 -0.4721 -0.1105  0.2125
 6075TIP3    H139640   1.600   2.733   0.684 -0.6061 -2.1897  0.3578
 6075TIP3    H239641   1.597   2.773   0.539  0.4813 -0.2899  0.8320
 6076TIP3   OH239642   5.419   1.109   2.943  0.0610 -0.3290 -0.1644
 6076TIP3    H139643   5.335   1.124   2.987  0.7067 -1.1939  1.4512
 6076TIP3    H239644   5.477   1.077   3.012  1.9174  0.8184 -1.1120
 6077TIP3   OH239645   1.941   5.395  13.178  0.0364  0.2427 -0.2357
 6077TIP3    H139646   1.921   5.324  13.239 -2.4538  0.3334 -0.8368
 6077TIP3    H239647   1.963   5.352  13.096 -2.1481  0.0629 -0.8008
 6078TIP3   OH239648   2.469   5.606  16.013  0.1706  0.7461  0.0424
 6078TIP3    H139649   2.496   5.515  16.019  2.1893  1.2032 -0.9467
 6078TIP3    H239650   2.541   5.655  16.054 -1.2796  1.8703  1.3770
 6079TIP3   OH239651   2.914   0.956  12.091 -0.0682 -0.2703  0.6010
 6079TIP3    H139652   2.976   0.889  12.065 -0.4711  0.0145 -1.2027
 6079TIP3    H239653   2.829   0.913  12.089 -0.1400 -0.1629  1.1806
 6080TIP3   OH239654   2.742   2.765  12.862  0.0295 -0.4086  0.4653
 6080TIP3    H139655   2.763   2.779  12.955  1.3344  0.6131  0.0460
 6080TIP3    H239656   2.651   2.794  12.853  0.0589 -0.0182  1.3258
 6081TIP3   OH239657   6.176   2.466  17.180 -0.3893 -0.4512  0.2945
 6081TIP3    H139658   6.252   2.520  17.159  0.0540 -1.3308 -0.4144
 6081TIP3    H239659   6.209   2.376  17.179 -1.4136 -0.8420  0.0715
 6082TIP3   OH239660   3.965   4.739   1.242 -0.3211 -0.1566 -0.9194
 6082TIP3    H139661   4.009   4.783   1.169  0.7153 -1.6710 -1.2690
 6082TIP3    H239662   4.023   4.667   1.265 -0.6627  0.2186  1.3866
 6083TIP3   OH239663   0.446   2.836  14.371  0.4994  0.3249 -0.7968
 6083TIP3    H139664   0.491   2.770  14.425 -1.6380  0.5025  1.3721
 6083TIP3    H239665   0.452   2.801  14.282 -1.9035 -3.8007  0.3826
 6084TIP3   OH239666   3.713   6.667  16.123 -0.0458 -0.2427 -0.1915
 6084TIP3    H139667   3.780   6.598  16.129  0.0931 -0.2141 -1.2365
 6084TIP3    H239668   3.631   6.619  16.110  0.2171 -0.2170 -2.2631
 6085TIP3   OH239669   6.405   6.178  12.532  0.6929 -0.2283 -0.1230
 6085TIP3    H139670   6.396   6.133  12.616  0.7590 -1.7997 -0.9360
 6085TIP3    H239671   6.374   6.267  12.550  0.3925 -0.6182  1.4785
 6086TIP3   OH239672   0.029   1.386  14.120  0.5579 -0.3558 -0.1309
 6086TIP3    H139673  -0.049   1.338  14.091 -1.2601  1.2776  1.7536
 6086TIP3    H239674   0.067   1.421  14.039  0.6591 -2.9334 -1.3119
 6087TIP3   OH239675   5.688   0.393   0.172  0.2585  0.0779  0.8522
 6087TIP3    H139676   5.657   0.405   0.262  1.6729  0.9853  1.2692
 6087TIP3    H239677   5.738   0.473   0.154  1.6076 -0.9194 -0.0403
 6088TIP3   OH239678   3.760   6.119  13.040 -0.1044 -0.2303 -0.0581
 6088TIP3    H139679   3.827   6.185  13.061 -0.4413 -0.4994  2.1581
 6088TIP3    H239680   3.800   6.036  13.067 -0.3701 -0.7130 -1.1320
 6089TIP3   OH239681   6.723   2.570  15.241 -0.8451 -0.5779  0.5892
 6089TIP3    H139682   6.693   2.488  15.200 -1.3366 -0.8059  1.3701
 6089TIP3    H239683   6.676   2.573  15.325 -1.0031  0.6169  0.4772
 6090TIP3   OH239684   6.579   4.809   2.866  0.0896  0.4772  0.4494
 6090TIP3    H139685   6.530   4.774   2.940 -3.5151  0.8130 -1.5635
 6090TIP3    H239686   6.649   4.745   2.851 -0.6766 -0.9439  2.4660
 6091TIP3   OH239687   6.572   5.674  12.432  0.3657  0.1165  0.7238
 6091TIP3    H139688   6.656   5.628  12.432 -0.2544 -1.0935 -0.5279
 6091TIP3    H239689   6.594   5.763  12.403  1.2606 -0.0896  0.7287
 6092TIP3   OH239690   4.164   1.566  15.169 -0.0559  0.5677 -0.3375
 6092TIP3    H139691   4.227   1.637  15.161  1.8007 -1.1302 -1.6737
 6092TIP3    H239692   4.110   1.573  15.090  0.5434  0.1364 -0.7935
 6093TIP3   OH239693   4.264   2.130   0.196  0.4873 -0.3211 -0.1745
 6093TIP3    H139694   4.286   2.202   0.137  0.1422  1.1080  1.3583
 6093TIP3    H239695   4.242   2.057   0.138 -2.1477  1.6707 -1.9157
 6094TIP3   OH239696   3.247   5.058   0.996  0.5235  0.5400 -0.4135
 6094TIP3    H139697   3.212   5.120   1.060 -1.0716  0.3095 -1.0155
 6094TIP3    H239698   3.293   4.993   1.049 -1.1898  0.0757  0.5815
 6095TIP3   OH239699   0.596   4.181   3.350  0.5074 -0.5136 -0.0528
 6095TIP3    H139700   0.673   4.162   3.297 -0.4823 -0.9113 -1.4011
 6095TIP3    H239701   0.536   4.225   3.290  0.4067  1.5855  1.4820
 6096TIP3   OH239702   5.068   5.662   4.009  0.1946  0.1983 -0.0915
 6096TIP3    H139703   5.047   5.589   3.949  2.4625  0.7275 -1.6630
 6096TIP3    H239704   5.067   5.739   3.953  2.0700  0.7595  0.5907
 6097TIP3   OH239705   2.479   2.703   2.660 -0.1821 -0.3152  0.1324
 6097TIP3    H139706   2.500   2.738   2.574  0.9296  0.1295  0.5711
 6097TIP3    H239707   2.455   2.611   2.643 -2.1497  0.3330 -0.8912
 6098TIP3   OH239708   1.014   6.431  14.001 -0.0338  0.2546  0.3701
 6098TIP3    H139709   1.094   6.383  13.984 -0.3700 -0.7150  1.4213
 6098TIP3    H239710   1.036   6.491  14.072  0.1351  1.0234 -0.3173
 6099TIP3   OH239711   6.727   6.308  16.222  0.0197 -0.6282  0.0431
 6099TIP3    H139712   6.801   6.360  16.191  0.2805  0.2538  2.0064
 6099TIP3    H239713   6.652   6.341  16.173  0.4885  0.3450 -0.0456
 6100TIP3   OH239714   4.391   3.335  16.941 -0.0176  0.1298  0.7156
 6100TIP3    H139715   4.315   3.278  16.942 -1.6902  2.2159  0.0289
 6100TIP3    H239716   4.380   3.392  17.017  0.8591  0.4883  0.5940
 6101TIP3   OH239717   4.618   1.075   5.638  0.1068 -0.3746  0.1944
 6101TIP3    H139718   4.672   1.086   5.560 -0.2284 -1.6814 -0.2479
 6101TIP3    H239719   4.545   1.136   5.626  1.8831  2.1652  1.2605
 6102TIP3   OH239720   6.336   4.113   3.081  0.5195  0.0908  0.1427
 6102TIP3    H139721   6.318   4.199   3.119  0.2294  0.4689 -0.8102
 6102TIP3    H239722   6.287   4.113   2.999 -0.7994 -1.6039  0.8667
 6103TIP3   OH239723   5.456   1.019  17.001  0.1432 -0.1629  0.6012
 6103TIP3    H139724   5.471   1.036  17.094 -1.5515 -0.2282  0.9126
 6103TIP3    H239725   5.364   0.992  16.995 -0.0259  0.6185 -1.1930
 6104TIP3   OH239726   3.652   0.694   0.921  0.7133  0.2905  0.0825
 6104TIP3    H139727   3.705   0.668   0.997 -0.2177 -0.6098  0.4541
 6104TIP3    H239728   3.697   0.654   0.846  0.9868  0.1774  0.3057
 6105TIP3   OH239729   3.318   2.204  13.399  0.4379  0.6492 -0.4884
 6105TIP3    H139730   3.390   2.142  13.408 -1.2231 -1.0981  2.3505
 6105TIP3    H239731   3.339   2.273  13.462 -0.3316  0.1041  0.3904
 6106TIP3   OH239732   1.032   4.865   0.024  0.1483  0.0926  0.5115
 6106TIP3    H139733   1.069   4.862   0.113  0.0886 -0.3443  0.5212
 6106TIP3    H239734   0.963   4.932   0.030  0.1852  0.1104  0.7769
 6107TIP3   OH239735   5.858   5.888   2.737  0.2519 -0.6146 -0.2218
 6107TIP3    H139736   5.797   5.935   2.679  1.6740  1.4755 -0.1429
 6107TIP3    H239737   5.815   5.888   2.822  0.1791  0.5511 -0.2389
 6108TIP3   OH239738   5.002   4.608  16.221 -0.1542  0.2155 -0.1621
 6108TIP3    H139739   4.938   4.537  16.222 -0.6026  0.6255  1.1433
 6108TIP3    H239740   4.951   4.687  16.208  0.4508  0.2635 -2.9348
 6109TIP3   OH239741   5.891   5.307   4.763  0.0990 -0.4001 -0.1039
 6109TIP3    H139742   5.920   5.391   4.799  0.5320 -1.2192  1.5740
 6109TIP3    H239743   5.846   5.330   4.682  2.5147  1.2433 -1.1142
 6110TIP3   OH239744   1.971   5.900   1.639 -0.1271  0.6705  0.5844
 6110TIP3    H139745   2.010   5.979   1.677  0.8037  0.9625 -0.8691
 6110TIP3    H239746   2.039   5.866   1.581 -0.9844 -0.5037  0.2346
 6111TIP3   OH239747   6.243   3.082  15.815  0.1673 -0.4140  0.1454
 6111TIP3    H139748   6.310   3.151  15.813  0.3932 -0.6430 -0.5711
 6111TIP3    H239749   6.288   3.005  15.781 -0.7523 -0.3088 -1.4096
 6112TIP3   OH239750   1.620   4.697  11.960  0.3380 -0.5457 -0.3468
 6112TIP3    H139751   1.564   4.761  12.004 -0.2727 -0.2621 -1.4822
 6112TIP3    H239752   1.663   4.649  12.031 -0.9989 -0.4656  0.5595
 6113TIP3   OH239753   2.632   1.737   4.383 -0.0831  0.3588 -0.4005
 6113TIP3    H139754   2.682   1.692   4.315  1.1489  0.7186  0.2522
 6113TIP3    H239755   2.595   1.667   4.436  0.6851  0.0970 -0.2055
 6114TIP3   OH239756   2.750   6.017   0.026 -0.4694 -0.0922 -0.0055
 6114TIP3    H139757   2.710   5.945  -0.022 -0.1948  0.7074 -1.4968
 6114TIP3    H239758   2.677   6.074   0.050 -0.4210  0.7312 -1.6405
 6115TIP3   OH239759   0.337   3.715   1.316  0.0979 -0.3767  0.3575
 6115TIP3    H139760   0.409   3.730   1.377  0.7566 -0.1372 -0.4623
 6115TIP3    H239761   0.269   3.674   1.369  1.0447 -1.1273  1.0375
 6116TIP3   OH239762   1.700   2.958   1.933  0.3459  0.6691  0.1298
 6116TIP3    H139763   1.643   2.948   1.857 -0.5811 -0.9601  0.9856
 6116TIP3    H239764   1.703   2.871   1.972  0.8025  1.4622  1.9569
 6117TIP3   OH239765   1.791   4.334  16.555  0.2591  0.4038  0.1008
 6117TIP3    H139766   1.884   4.332  16.533  0.5115  2.0114  0.8607
 6117TIP3    H239767   1.759   4.414  16.514 -0.5043  0.5074  0.8696
 6118TIP3   OH239768   1.382   3.464  14.988 -0.3042 -0.0592  0.4643
 6118TIP3    H139769   1.309   3.469  15.050 -0.5213  1.3227  0.1425
 6118TIP3    H239770   1.340   3.467  14.902  0.1370  1.9727  0.2714
 6119TIP3   OH239771   5.743   5.906   2.295 -0.1567 -0.4883  0.0024
 6119TIP3    H139772   5.684   5.930   2.366  2.6986 -0.1612  2.4416
 6119TIP3    H239773   5.801   5.840   2.333  3.7760  2.1923 -0.7065
 6120TIP3   OH239774   2.874   2.801   5.087 -0.2289 -0.2425  0.1316
 6120TIP3    H139775   2.923   2.880   5.064 -0.8244  0.1445  0.1727
 6120TIP3    H239776   2.874   2.800   5.182  1.1505 -1.1665  0.1505
 6121TIP3   OH239777   6.707   0.280   2.910 -0.4959  0.0935  0.0446
 6121TIP3    H139778   6.676   0.359   2.866 -1.1932 -1.2992 -2.1244
 6121TIP3    H239779   6.629   0.241   2.948 -0.4814 -0.4935 -0.5123
 6122TIP3   OH239780   0.051   4.979  11.068 -0.1273  0.1211 -0.6292
 6122TIP3    H139781   0.100   4.945  11.143 -0.1957  1.0021 -0.1630
 6122TIP3    H239782  -0.026   4.924  11.063 -0.2738  0.2385  0.1562
 6123TIP3   OH239783   3.210   4.585   0.725  0.5042  0.0246 -0.1781
 6123TIP3    H139784   3.125   4.607   0.688 -0.8291 -0.4177  2.4127
 6123TIP3    H239785   3.218   4.642   0.802  2.1286 -0.6111  0.1556
 6124TIP3   OH239786   3.046   3.048  11.447 -0.0797  0.0881 -0.0909
 6124TIP3    H139787   3.063   3.012  11.534  0.0547 -0.7466 -0.4497
 6124TIP3    H239788   3.133   3.061  11.409 -0.0270 -3.1991 -1.5289
 6125TIP3   OH239789   1.120   4.830   0.279 -0.3708 -0.3531 -0.0764
 6125TIP3    H139790   1.124   4.893   0.350  0.2249 -0.5461  0.0622
 6125TIP3    H239791   1.062   4.761   0.312 -0.5692 -0.1563 -0.0109
 6126TIP3   OH239792   0.538   6.588  14.990 -0.1398  0.3444  0.1084
 6126TIP3    H139793   0.574   6.556  15.073 -0.3903  0.6159  0.3229
 6126TIP3    H239794   0.596   6.659  14.964 -1.1571  1.5581  1.0419
 6127TIP3   OH239795   6.503   5.967  14.832  0.2536 -0.2395  0.6748
 6127TIP3    H139796   6.473   5.938  14.746  1.1999  1.1253 -0.1683
 6127TIP3    H239797   6.428   6.012  14.870  0.1112 -0.0320  0.1537
 6128TIP3   OH239798   4.415   0.523  10.865 -0.6936 -0.2848  0.0353
 6128TIP3    H139799   4.354   0.511  10.792 -1.1702 -1.0649  0.5460
 6128TIP3    H239800   4.498   0.489  10.832 -0.5590  0.6372 -0.6071
 6129TIP3   OH239801   5.153   2.462  13.951  0.3661 -0.2689 -0.2852
 6129TIP3    H139802   5.199   2.509  13.881  0.3806 -0.8467 -0.6772
 6129TIP3    H239803   5.158   2.370  13.924 -0.3681 -0.4094  0.0544
 6130TIP3   OH239804   6.549   0.477   5.172  0.1382 -0.5194  0.6759
 6130TIP3    H139805   6.643   0.486   5.157 -0.3375  2.9222 -1.0935
 6130TIP3    H239806   6.522   0.408   5.111  1.4304 -1.2758  0.9262
 6131TIP3   OH239807   3.470   4.549   3.463 -0.3770 -0.0420 -0.4218
 6131TIP3    H139808   3.383   4.586   3.479  0.0182  1.1190 -0.8382
 6131TIP3    H239809   3.521   4.576   3.539 -0.5689 -1.3746  0.1904
 6132TIP3   OH239810   3.751   1.419   4.836  0.2060 -0.1663  0.1238
 6132TIP3    H139811   3.835   1.441   4.796 -0.0353 -0.2356 -0.4230
 6132TIP3    H239812   3.753   1.323   4.845 -0.3201 -0.3035 -1.0473
 6133TIP3   OH239813   5.908   0.223   2.645  0.0072 -0.1639 -0.0038
 6133TIP3    H139814   5.865   0.138   2.647  1.0531 -0.7439 -1.1912
 6133TIP3    H239815   5.918   0.246   2.738 -0.5521 -1.1847  0.3313
 6134TIP3   OH239816   1.104   4.202  16.668  0.2848 -0.1309  0.3925
 6134TIP3    H139817   1.048   4.280  16.665  2.1130  1.2391  0.1248
 6134TIP3    H239818   1.162   4.217  16.743  1.8811 -0.2931 -0.7410
 6135TIP3   OH239819   2.006   5.801  13.695 -0.1176 -0.6793 -0.2546
 6135TIP3    H139820   2.047   5.851  13.766 -1.7021  0.2952  0.0379
 6135TIP3    H239821   2.018   5.856  13.617  0.4088 -1.0888 -0.4651
 6136TIP3   OH239822   6.529   0.455  12.923 -0.5637 -0.4221 -0.0030
 6136TIP3    H139823   6.518   0.539  12.966 -1.8220 -0.2859 -0.5487
 6136TIP3    H239824   6.615   0.460  12.881  0.2579 -0.1842  1.5952
 6137TIP3   OH239825   3.020   6.497   1.286 -0.7733  0.1309 -0.3185
 6137TIP3    H139826   3.003   6.519   1.194  0.8505  1.0408 -0.4392
 6137TIP3    H239827   3.114   6.479   1.290 -1.3696 -3.5353  0.5083
 6138TIP3   OH239828   3.125   3.464   6.333  0.5683  0.0990 -0.5251
 6138TIP3    H139829   3.098   3.535   6.391 -0.3025 -0.2163 -0.5152
 6138TIP3    H239830   3.122   3.502   6.245  2.1863  0.6631 -0.3547
 6139TIP3   OH239831   4.052   2.924   2.927  0.3478 -0.6102  0.4467
 6139TIP3    H139832   3.969   2.938   2.881  0.5826  0.0031  0.1915
 6139TIP3    H239833   4.118   2.964   2.870  0.8443 -1.2343  0.5698
 6140TIP3   OH239834   1.207   2.159   6.085 -0.2252 -0.3085 -0.1650
 6140TIP3    H139835   1.203   2.252   6.063 -1.3427 -0.3053 -0.0037
 6140TIP3    H239836   1.139   2.119   6.031  1.2078 -1.2858 -1.3406
 6141TIP3   OH239837   4.379   0.307  15.011 -0.4985 -0.5055 -0.4747
 6141TIP3    H139838   4.382   0.292  14.917  0.8984 -1.0713 -0.3507
 6141TIP3    H239839   4.419   0.394  15.023  1.2888 -1.3276 -0.2372
 6142TIP3   OH239840   6.343   4.712  12.179  0.2858 -0.2151 -0.3758
 6142TIP3    H139841   6.306   4.733  12.093 -1.1188 -0.8671  0.0323
 6142TIP3    H239842   6.310   4.781  12.237 -1.4662 -1.4882  0.2536
 6143TIP3   OH239843   4.232   5.137   3.718 -0.5005 -0.4037 -0.2000
 6143TIP3    H139844   4.231   5.045   3.746 -1.1989 -0.0513  0.9802
 6143TIP3    H239845   4.141   5.165   3.727  0.1126  1.1331  1.9423
 6144TIP3   OH239846   1.302   1.838   5.725  0.2705  0.0778 -0.4104
 6144TIP3    H139847   1.373   1.777   5.706  1.0889  0.6963  0.5841
 6144TIP3    H239848   1.323   1.874   5.811  0.6723  2.9638 -1.6107
 6145TIP3   OH239849   2.972   1.872  16.011  0.4677 -0.0259 -0.7153
 6145TIP3    H139850   2.899   1.898  16.067  0.1925  1.7492 -1.8236
 6145TIP3    H239851   3.022   1.810  16.064 -1.7495 -1.2044  0.1177
 6146TIP3   OH239852   0.276   1.145  14.950 -0.3199  0.1067 -0.1482
 6146TIP3    H139853   0.201   1.193  14.914  1.1683  1.1164 -2.0766
 6146TIP3    H239854   0.341   1.212  14.969  0.4596 -0.8336  0.6072
 6147TIP3   OH239855   4.922   1.793  16.003  0.4617 -0.6994 -0.3554
 6147TIP3    H139856   4.970   1.803  15.921  0.2820 -1.0770 -0.5114
 6147TIP3    H239857   4.854   1.728  15.984 -0.4870  0.2380 -0.3027
 6148TIP3   OH239858   4.010   4.392   3.302 -0.3184 -0.3230 -0.1058
 6148TIP3    H139859   3.959   4.443   3.364  0.3609  3.1169 -2.1277
 6148TIP3    H239860   3.951   4.378   3.228  0.7247  1.3295 -1.3240
 6149TIP3   OH239861   1.577   1.465  16.107 -0.9746 -0.1704  0.3050
 6149TIP3    H139862   1.572   1.407  16.031 -2.2013  0.8955 -0.4871
 6149TIP3    H239863   1.589   1.552  16.069  1.1286  0.0969  1.4738
 6150TIP3   OH239864   1.218   0.080   2.364 -0.4299 -0.1667 -0.3494
 6150TIP3    H139865   1.123   0.083   2.369 -0.4708 -0.8486 -0.5724
 6150TIP3    H239866   1.238   0.096   2.272 -0.2510  1.3706 -0.0567
 6151TIP3   OH239867   4.283   5.352   0.566 -0.1551 -0.2603 -0.1266
 6151TIP3    H139868   4.261   5.377   0.656 -0.0053 -0.9141  0.0989
 6151TIP3    H239869   4.376   5.374   0.558 -0.3355  0.4342 -0.3487
 6152TIP3   OH239870   4.110   2.313  17.105 -0.2839  0.2830  0.3975
 6152TIP3    H139871   4.082   2.224  17.085  1.0127 -0.1921  0.6076
 6152TIP3    H239872   4.029   2.363  17.112 -0.9857 -0.0564 -3.3247
 6153TIP3   OH239873   5.688   6.582   0.072  0.7405  0.0744  0.2409
 6153TIP3    H139874   5.673   6.491   0.099  0.2702  0.4895  1.4136
 6153TIP3    H239875   5.642   6.635   0.137  1.4478  1.1763 -0.1247
 6154TIP3   OH239876   1.187   0.332   4.543  0.1677 -0.8654  0.1997
 6154TIP3    H139877   1.231   0.370   4.467 -0.5163 -0.7215 -0.1377
 6154TIP3    H239878   1.254   0.279   4.586  1.0452  0.4515  0.4895
 6155TIP3   OH239879   4.959   2.533  12.753 -0.6955 -0.2556  0.2840
 6155TIP3    H139880   4.945   2.439  12.759 -1.1079 -0.1569  0.9582
 6155TIP3    H239881   4.871   2.570  12.755 -0.4972  0.1983  1.1273
 6156TIP3   OH239882   4.652   6.201   2.732 -0.0320  0.0021 -0.0173
 6156TIP3    H139883   4.608   6.253   2.664  0.3171  1.2256  0.6714
 6156TIP3    H239884   4.746   6.214   2.715  0.0563 -0.1119  0.3833
 6157TIP3   OH239885   0.960   6.498  16.950  0.1956 -0.3842  0.1929
 6157TIP3    H139886   0.956   6.580  16.901  1.0848  0.9171  2.1503
 6157TIP3    H239887   0.873   6.490  16.990  0.7374  0.8003  1.7147
 6158TIP3   OH239888   2.122   1.066   5.540  0.4312 -0.2631 -0.0477
 6158TIP3    H139889   2.103   0.976   5.514 -1.0445 -0.4013  1.3251
 6158TIP3    H239890   2.187   1.096   5.477  1.3995 -2.4649 -0.1931
 6159TIP3   OH239891   0.024   6.246   2.553 -0.2372 -0.1811  0.4703
 6159TIP3    H139892   0.119   6.257   2.543 -0.4719  2.2217  0.2724
 6159TIP3    H239893  -0.008   6.230   2.465  0.0155 -1.6161  0.6167
 6160TIP3   OH239894   5.684   5.591  12.384 -0.1901  0.1946  0.3039
 6160TIP3    H139895   5.629   5.523  12.346  0.5462  0.5215 -1.4286
 6160TIP3    H239896   5.774   5.558  12.372  0.1570  1.3219 -0.2571
 6161TIP3   OH239897   6.158   4.816   4.563  0.3432  0.0176 -0.9004
 6161TIP3    H139898   6.202   4.734   4.542 -1.9647 -1.4342 -0.4309
 6161TIP3    H239899   6.171   4.826   4.658 -1.2398 -1.0492 -0.5349
 6162TIP3   OH239900   5.319   0.954   2.354  0.0847  0.1447  0.5554
 6162TIP3    H139901   5.365   0.922   2.276 -0.4506  0.8000 -0.0401
 6162TIP3    H239902   5.387   0.960   2.421  0.8437  0.8657 -0.2473
 6163TIP3   OH239903   0.148   4.250  12.911  0.3433 -0.0880 -0.2706
 6163TIP3    H139904   0.216   4.225  12.973  0.5000  1.3984  0.1948
 6163TIP3    H239905   0.079   4.289  12.964 -1.1675 -2.0564 -0.6744
 6164TIP3   OH239906   0.509   6.524  16.022  0.3531 -0.2446 -0.0464
 6164TIP3    H139907   0.535   6.581  16.095  0.9162  0.5548 -0.8542
 6164TIP3    H239908   0.591   6.500  15.980  0.1638 -1.9944  0.4985
 6165TIP3   OH239909   2.808   1.257   2.833  0.2423 -0.2232  0.0930
 6165TIP3    H139910   2.770   1.203   2.763 -0.4010 -2.5018  2.0707
 6165TIP3    H239911   2.896   1.222   2.845  1.3912  1.9541 -1.2969
 6166TIP3   OH239912   5.186   6.738   0.647 -0.2733 -0.1242 -0.1160
 6166TIP3    H139913   5.130   6.674   0.604  0.4441 -1.0292  0.2730
 6166TIP3    H239914   5.271   6.729   0.604 -0.0267  0.2175  0.2846
 6167TIP3   OH239915   1.000   4.401  16.087 -0.2172 -0.8874  0.8519
 6167TIP3    H139916   1.088   4.363  16.087  1.3927  2.4845  0.5485
 6167TIP3    H239917   0.982   4.417  15.994 -0.2307  0.2848  1.0451
 6168TIP3   OH239918   3.561   0.559  14.581  0.3524 -0.6193  0.0449
 6168TIP3    H139919   3.490   0.502  14.609 -0.1422  0.4442  1.0342
 6168TIP3    H239920   3.537   0.587  14.493  1.1356 -2.7426 -0.9105
 6169TIP3   OH239921   0.731   4.470  12.362  0.7135  0.2532  0.2385
 6169TIP3    H139922   0.698   4.458  12.451 -0.6274 -0.5520 -0.3452
 6169TIP3    H239923   0.772   4.386  12.340  0.3426  0.1762 -0.1798
 6170TIP3   OH239924   5.956   1.387   3.465 -0.3858 -0.0496 -0.0027
 6170TIP3    H139925   5.862   1.368   3.473 -0.3896  0.2376  0.6728
 6170TIP3    H239926   5.964   1.478   3.491  0.1054 -0.1222  0.1045
 6171TIP3   OH239927   3.790   3.554   5.346  0.6553 -0.2525  0.0240
 6171TIP3    H139928   3.781   3.501   5.426  0.5568 -0.4227 -0.0998
 6171TIP3    H239929   3.700   3.573   5.320  0.6950  0.4895  0.4032
 6172TIP3   OH239930   4.922   2.803  12.942  0.2943  0.0768 -0.0599
 6172TIP3    H139931   4.997   2.764  12.987  0.1997 -0.2858 -0.2097
 6172TIP3    H239932   4.861   2.730  12.929 -0.8124  0.6789  1.5155
 6173TIP3   OH239933   3.242   3.144   2.964  0.4522  0.0024 -0.1624
 6173TIP3    H139934   3.289   3.186   3.036 -0.7990  2.5263 -0.7193
 6173TIP3    H239935   3.291   3.171   2.886 -0.6288  0.8402 -0.5647
 6174TIP3   OH239936   5.296   3.739   4.288 -0.0394 -0.0221 -0.9127
 6174TIP3    H139937   5.283   3.732   4.383 -4.9331 -1.7945 -1.4518
 6174TIP3    H239938   5.238   3.811   4.262  1.3132  0.5070 -2.6213
 6175TIP3   OH239939   1.132   2.612   5.572 -0.4798 -0.1529 -0.6974
 6175TIP3    H139940   1.071   2.548   5.536 -0.2380 -0.8894  0.1679
 6175TIP3    H239941   1.077   2.681   5.608 -0.7874 -0.4497 -0.5941
 6176TIP3   OH239942   0.997   3.431  14.177 -0.1461 -0.4029 -0.2632
 6176TIP3    H139943   1.060   3.414  14.247 -1.4290  1.5370  1.4524
 6176TIP3    H239944   1.033   3.506  14.130 -0.4857 -0.1428 -0.1151
 6177TIP3   OH239945   0.167   3.504  11.707  0.0964 -0.4170 -0.2932
 6177TIP3    H139946   0.100   3.438  11.724 -2.1616  2.0150  1.0506
 6177TIP3    H239947   0.133   3.552  11.631 -0.5144  1.7000  1.2194
 6178TIP3   OH239948   1.733   0.296  16.860  0.1933  0.3429  0.3308
 6178TIP3    H139949   1.749   0.218  16.806 -0.7626 -0.1715  0.7502
 6178TIP3    H239950   1.796   0.289  16.931 -0.9201 -0.9452  1.2521
 6179TIP3   OH239951   1.348   3.353   4.930 -0.2888  0.1604  0.6511
 6179TIP3    H139952   1.360   3.344   4.836  1.1419 -0.5114  0.8755
 6179TIP3    H239953   1.313   3.441   4.941 -1.3963 -0.0980 -0.5710
 6180TIP3   OH239954   4.315   6.498  12.644 -0.1955  0.0962 -0.1349
 6180TIP3    H139955   4.251   6.446  12.596 -0.9360  0.1689  0.7650
 6180TIP3    H239956   4.300   6.477  12.736  1.5533 -0.4420  0.0690
 6181TIP3   OH239957   2.422   1.703   5.275 -0.0428  0.5013  0.5525
 6181TIP3    H139958   2.480   1.637   5.313 -1.1651 -1.3555 -0.7809
 6181TIP3    H239959   2.354   1.716   5.342 -0.4155 -0.5593  0.4015
 6182TIP3   OH239960   1.357   5.752  17.277 -0.4577 -0.2072  0.2040
 6182TIP3    H139961   1.368   5.831  17.224 -0.6015  0.7840  1.5940
 6182TIP3    H239962   1.444   5.712  17.280 -0.6112 -0.7266 -1.4052
 6183TIP3   OH239963   2.213   2.674   0.662  0.4155  0.1823 -0.3559
 6183TIP3    H139964   2.144   2.680   0.595  0.6230  0.5697 -0.5415
 6183TIP3    H239965   2.171   2.702   0.743  0.2410  0.0026 -0.3842
 6184TIP3   OH239966   3.239   4.117  15.812  0.3993  0.0233  0.7499
 6184TIP3    H139967   3.312   4.176  15.826  0.9486 -0.3869 -0.2418
 6184TIP3    H239968   3.278   4.040  15.770 -0.1338 -1.4798  2.8486
 6185TIP3   OH239969   0.133   1.522   3.417 -0.5047  0.4434  0.1559
 6185TIP3    H139970   0.213   1.567   3.443  0.2384  0.3583 -1.8199
 6185TIP3    H239971   0.105   1.474   3.496  2.0432 -0.4850  0.5832
 6186TIP3   OH239972   2.764   4.570  17.181 -0.2378  0.5300  0.3059
 6186TIP3    H139973   2.797   4.636  17.242 -1.5621  0.3994  1.1790
 6186TIP3    H239974   2.844   4.532  17.142  0.6634  0.3267  2.2385
 6187TIP3   OH239975   0.309   0.348  15.376  0.0175  0.5395 -0.1187
 6187TIP3    H139976   0.218   0.321  15.389 -0.4617  1.3432 -1.5931
 6187TIP3    H239977   0.360   0.275  15.410 -1.1939 -0.5022 -0.4522
 6188TIP3   OH239978   0.691   3.639  14.923  0.2743  0.1206 -0.0980
 6188TIP3    H139979   0.741   3.567  14.885  2.7122  1.5976  0.0629
 6188TIP3    H239980   0.674   3.612  15.013  1.1577 -0.3053 -0.0410
 6189TIP3   OH239981   2.087   3.750   1.225  0.6596 -0.2062  0.3195
 6189TIP3    H139982   2.022   3.787   1.284  0.3923  1.6736 -1.0561
 6189TIP3    H239983   2.039   3.732   1.145  1.5129 -0.3045 -0.1857
 6190TIP3   OH239984   1.210   5.194   3.634  0.0058  0.2572 -0.5934
 6190TIP3    H139985   1.222   5.104   3.604  0.9896  0.1056  0.1999
 6190TIP3    H239986   1.268   5.246   3.580 -0.8991  0.5001 -1.3608
 6191TIP3   OH239987   3.437   5.927  16.782  0.3273  0.3012  0.3212
 6191TIP3    H139988   3.504   5.937  16.850 -0.6534  1.1280  1.1888
 6191TIP3    H239989   3.356   5.910  16.830 -0.2665  0.2102 -0.6805
 6192TIP3   OH239990   2.764   2.627  12.618  0.3294  0.1621  0.0755
 6192TIP3    H139991   2.775   2.646  12.711  1.2358  2.3689 -0.4002
 6192TIP3    H239992   2.678   2.585  12.612  0.0901  0.3119  1.8623
 6193TIP3   OH239993   2.378   1.292   1.178  0.0457  0.4981 -0.4305
 6193TIP3    H139994   2.354   1.203   1.200 -1.6547  1.1058  0.3624
 6193TIP3    H239995   2.474   1.293   1.178  0.0809 -1.1527  0.1589
 6194TIP3   OH239996   0.962   2.257   1.160  0.1539 -0.7280  0.5406
 6194TIP3    H139997   1.055   2.260   1.179  0.2712 -1.4709  0.1217
 6194TIP3    H239998   0.957   2.231   1.068 -0.4414  0.5403  0.1986
 6195TIP3   OH239999   6.052   5.546   0.256  0.0289  0.1241  0.1718
 6195TIP3    H140000   6.096   5.609   0.314  2.8688 -1.0430 -0.5309
 6195TIP3    H240001   6.062   5.462   0.300  0.3784 -0.4779 -1.0237
 6196TIP3   OH240002   5.074   5.877   3.858  0.2699 -0.5915 -0.3424
 6196TIP3    H140003   5.023   5.957   3.864  1.2142  0.0888 -1.0079
 6196TIP3    H240004   5.104   5.875   3.767  1.4569 -0.9390  0.0405
 6197TIP3   OH240005   0.418   0.857  17.023  0.0782  0.1365 -0.1384
 6197TIP3    H140006   0.394   0.936  16.975 -0.0658 -0.1119 -0.4820
 6197TIP3    H240007   0.362   0.858  17.101 -0.5782 -0.0860 -0.5919
 6198TIP3   OH240008   3.464   5.969  15.770 -0.4373  0.0476  0.6901
 6198TIP3    H140009   3.476   6.038  15.834  1.9656 -0.8003  1.2956
 6198TIP3    H240010   3.509   6.001  15.691 -0.3080 -0.3356  0.6018
 6199TIP3   OH240011   5.194   5.924  15.623  0.8236 -0.0774  0.4700
 6199TIP3    H140012   5.239   5.886  15.547 -0.1618 -0.0348 -0.1488
 6199TIP3    H240013   5.207   5.859  15.693  0.3750 -0.8926 -0.1813
 6200TIP3   OH240014   4.476   2.886  14.926 -0.2332  0.2151 -0.3269
 6200TIP3    H140015   4.548   2.890  14.989  0.0019  1.7887 -0.6492
 6200TIP3    H240016   4.518   2.889  14.840 -0.5616 -1.7828 -0.6171
 6201TIP3   OH240017   6.425   4.347   1.889 -0.6412 -0.3640 -0.0300
 6201TIP3    H140018   6.478   4.407   1.837 -0.9730  0.1392  0.2026
 6201TIP3    H240019   6.479   4.327   1.966 -0.6985 -0.0251  0.1006
 6202TIP3   OH240020   4.759   3.776  16.308 -0.0189  0.3576 -0.0664
 6202TIP3    H140021   4.824   3.767  16.378 -0.1143 -1.3773 -0.1490
 6202TIP3    H240022   4.703   3.848  16.335  1.0256  0.8878  0.7522
 6203TIP3   OH240023   3.299   5.327   6.445 -0.1693 -0.3436  0.3357
 6203TIP3    H140024   3.361   5.338   6.517  1.3201 -2.0426 -0.5910
 6203TIP3    H240025   3.351   5.345   6.366 -1.1628 -0.6552 -0.4085
 6204TIP3   OH240026   1.956   4.656  16.095  0.7312  0.2955 -0.1458
 6204TIP3    H140027   2.006   4.732  16.062  0.5200  0.7146  0.4786
 6204TIP3    H240028   1.875   4.694  16.129  0.7155 -0.1944  0.3634
 6205TIP3   OH240029   4.456   0.103   2.462  0.3468  0.7126  0.0224
 6205TIP3    H140030   4.545   0.071   2.448  0.0433 -0.0163 -0.3363
 6205TIP3    H240031   4.466   0.179   2.519  1.0635 -0.4371  1.4961
 6206TIP3   OH240032   1.041   6.388  10.931 -0.4299  0.1897  0.1181
 6206TIP3    H140033   1.088   6.326  10.987 -0.0882  0.1955 -0.1587
 6206TIP3    H240034   0.949   6.365  10.943 -0.2463 -2.1986 -2.0063
 6207TIP3   OH240035   1.776   6.292   6.173  0.0451 -0.7918 -0.4941
 6207TIP3    H140036   1.811   6.372   6.212  1.4329 -0.4512 -2.2918
 6207TIP3    H240037   1.693   6.319   6.134 -0.4422 -0.7062  0.5873
 6208TIP3   OH240038   3.625   1.198  13.864  0.3282  0.1938 -0.0201
 6208TIP3    H140039   3.612   1.125  13.925  2.1250 -0.5332 -0.4152
 6208TIP3    H240040   3.696   1.168  13.807 -2.4346  0.0351 -3.7282
 6209TIP3   OH240041   2.257   6.637  14.586  0.7422  0.5322  0.4431
 6209TIP3    H140042   2.321   6.647  14.657  0.7752  0.1307  0.4744
 6209TIP3    H240043   2.179   6.602  14.630  0.1590  1.9319  0.5707
 6210TIP3   OH240044   3.081   2.952  15.750 -0.5328  0.3721 -0.3271
 6210TIP3    H140045   3.147   2.897  15.791  0.4375  1.7722  0.0681
 6210TIP3    H240046   3.069   2.915  15.663 -2.1594 -2.2771  0.8897
 6211TIP3   OH240047   3.735   1.456   0.272 -0.4591 -0.1199  0.0018
 6211TIP3    H140048   3.648   1.425   0.248 -0.0335 -1.1641 -0.2519
 6211TIP3    H240049   3.721   1.503   0.355 -1.1848 -0.7383  0.2492
 6212TIP3   OH240050   6.328   5.465   0.711 -0.3657 -0.2231 -0.6839
 6212TIP3    H140051   6.272   5.388   0.709 -0.5243 -0.1553  0.4785
 6212TIP3    H240052   6.375   5.459   0.794 -1.1492  1.4585 -0.0717
 6213TIP3   OH240053   5.146   3.624   6.643 -1.1609  0.0553 -0.4715
 6213TIP3    H140054   5.121   3.664   6.560  0.7456  0.8261 -0.7409
 6213TIP3    H240055   5.196   3.693   6.688  0.2437 -1.2690  0.0672
 6214TIP3   OH240056   6.742   4.367  17.090 -0.5897  0.9548  0.3430
 6214TIP3    H140057   6.684   4.426  17.041  0.9012  1.9000 -0.3555
 6214TIP3    H240058   6.791   4.425  17.149  0.0389  0.2635  0.5137
 6215TIP3   OH240059   4.046   1.838   3.040  0.0872 -0.1974 -0.0632
 6215TIP3    H140060   4.066   1.781   2.966  1.5342 -0.2386  0.3345
 6215TIP3    H240061   3.972   1.890   3.010  0.2205 -0.6720 -1.2909
 6216TIP3   OH240062   2.512   2.775  16.686  0.0359 -0.2141 -0.3205
 6216TIP3    H140063   2.507   2.763  16.591  0.2585  2.2117 -0.6912
 6216TIP3    H240064   2.454   2.707  16.721  0.2337 -1.4106 -2.1476
 6217TIP3   OH240065   3.865   0.967   4.070 -0.3418 -0.2377  0.2160
 6217TIP3    H140066   3.843   0.957   3.977  0.0799  0.3948  0.0442
 6217TIP3    H240067   3.784   1.000   4.110 -0.5321 -0.5368  0.0813
 6218TIP3   OH240068   0.729   2.993   4.359  0.3241 -0.4267 -0.1927
 6218TIP3    H140069   0.794   2.957   4.298 -1.8443  0.6937 -3.4226
 6218TIP3    H240070   0.683   2.916   4.393  0.9741 -1.0497 -0.6967
 6219TIP3   OH240071   6.155   6.565  16.280  1.1387  0.1363  0.2262
 6219TIP3    H140072   6.132   6.644  16.230 -0.9653  0.0683  0.9843
 6219TIP3    H240073   6.197   6.598  16.359 -2.0697  0.8217  1.8314
 6220TIP3   OH240074   5.897   4.002   0.674  0.3160  0.4783 -0.5900
 6220TIP3    H140075   5.813   4.037   0.646  0.0858 -0.2420 -0.8385
 6220TIP3    H240076   5.884   3.977   0.765 -0.0518 -0.5127 -0.8911
 6221TIP3   OH240077   4.233   1.497   1.322 -0.3074  0.3802  0.2538
 6221TIP3    H140078   4.142   1.508   1.293 -0.0021  1.2460 -0.4070
 6221TIP3    H240079   4.286   1.531   1.250  0.5945 -1.1283  0.1571
 6222TIP3   OH240080   5.936   3.042  12.647  0.4767 -0.0083  0.0165
 6222TIP3    H140081   5.950   3.103  12.575  0.5319  1.2704  1.0657
 6222TIP3    H240082   5.966   3.090  12.725  0.6464 -1.4315  0.8613
 6223TIP3   OH240083   5.116   0.340  11.797 -0.0286 -0.3672  0.1034
 6223TIP3    H140084   5.074   0.262  11.763  0.6291 -0.8479  0.3805
 6223TIP3    H240085   5.194   0.308  11.842  2.1992  0.6422 -2.6746
 6224TIP3   OH240086   2.859   1.473  13.446  0.2239 -0.0844  0.3347
 6224TIP3    H140087   2.798   1.401  13.462  0.2104 -0.3211 -0.7092
 6224TIP3    H240088   2.933   1.455  13.505  0.8051 -1.6815 -0.8049
 6225TIP3   OH240089   3.096   1.584  11.391 -0.5955 -0.3929  0.5781
 6225TIP3    H140090   3.088   1.611  11.299  1.9826 -0.2405  0.3203
 6225TIP3    H240091   3.024   1.627  11.435  0.3959  2.8882 -0.6956
 6226TIP3   OH240092   6.435   0.476   3.927 -0.7002  0.1761  0.2507
 6226TIP3    H140093   6.529   0.464   3.916 -0.9120 -0.4558 -1.1013
 6226TIP3    H240094   6.415   0.440   4.013  0.3343  0.6256  0.6893
 6227TIP3   OH240095   0.527   5.199   0.814 -0.9412 -0.1570  0.4017
 6227TIP3    H140096   0.606   5.149   0.836 -0.4810  0.3956  0.0498
 6227TIP3    H240097   0.541   5.227   0.724 -1.4672  0.0979  0.3937
 6228TIP3   OH240098   2.325   5.101  12.438 -0.4387 -0.4763 -0.5649
 6228TIP3    H140099   2.372   5.113  12.356  0.3399  0.1094 -0.0503
 6228TIP3    H240100   2.351   5.015  12.469 -1.9434 -1.3853 -1.6719
 6229TIP3   OH240101   3.999   1.034  13.347 -0.1049  0.5357 -0.0243
 6229TIP3    H140102   3.985   0.985  13.266 -0.5358 -0.2963  0.5399
 6229TIP3    H240103   3.956   1.118  13.332  1.3963  1.1102 -1.3320
 6230TIP3   OH240104   0.491   2.978   4.634  0.2592 -0.1678  0.5160
 6230TIP3    H140105   0.528   3.058   4.596  0.6625 -0.6339 -0.0901
 6230TIP3    H240106   0.567   2.931   4.668 -0.0833  0.2246  1.9213
 6231TIP3   OH240107   3.554   4.286   3.598  0.2611 -0.5533  0.3081
 6231TIP3    H140108   3.487   4.316   3.537  1.0709 -1.2168 -0.9514
 6231TIP3    H240109   3.548   4.346   3.672  0.8268  1.8198 -1.4494
 6232TIP3   OH240110   2.147   5.468  11.830 -0.3653  0.1474 -0.0871
 6232TIP3    H140111   2.154   5.540  11.892  2.1035 -0.0000 -0.1040
 6232TIP3    H240112   2.128   5.391  11.884  1.8441  0.0044  0.5819
 6233TIP3   OH240113   5.948   1.772  16.098 -0.0361  0.1488 -0.6010
 6233TIP3    H140114   5.859   1.784  16.131 -0.0272  2.1529 -1.1957
 6233TIP3    H240115   5.946   1.809  16.010  1.0437 -1.1306 -1.2024
 6234TIP3   OH240116   4.991   1.541  15.757  0.0845 -0.3536 -0.0378
 6234TIP3    H140117   4.995   1.527  15.663  1.5926 -1.6326  0.1598
 6234TIP3    H240118   4.903   1.511  15.782  0.0151 -0.9296 -0.9178
 6235TIP3   OH240119   4.706   3.075   4.111  0.3032  0.3732 -0.1700
 6235TIP3    H140120   4.663   3.087   4.027 -0.4717 -1.0450  0.0009
 6235TIP3    H240121   4.713   2.980   4.122  0.7115  0.5325  1.1964
 6236TIP3   OH240122   5.088   2.695   5.271  0.8225 -0.0852  0.1888
 6236TIP3    H140123   5.114   2.712   5.180  2.7127 -1.2843  0.4564
 6236TIP3    H240124   5.013   2.636   5.264 -0.5338  1.6280 -0.5779
 6237TIP3   OH240125   2.255   2.064  14.894 -0.0104 -0.2063  0.1906
 6237TIP3    H140126   2.296   2.149  14.881  0.4866 -0.7406 -2.2886
 6237TIP3    H240127   2.166   2.075  14.861  0.0021 -0.5880  0.0220
 6238TIP3   OH240128   0.874   6.292  15.434  0.8434  0.4530  0.1121
 6238TIP3    H140129   0.928   6.348  15.490  2.3118 -1.7122  0.9826
 6238TIP3    H240130   0.878   6.333  15.348  1.3041  2.0165  0.8290
 6239TIP3   OH240131   4.264   2.045  17.283 -0.2835 -0.1514  0.3295
 6239TIP3    H140132   4.208   2.042  17.205 -0.6585  1.5558  0.4929
 6239TIP3    H240133   4.216   1.995  17.349 -0.9497  0.0863  0.0414
 6240TIP3   OH240134   2.524   5.182   2.208 -0.2431 -0.0759 -0.0808
 6240TIP3    H140135   2.486   5.254   2.258  0.7413 -0.2960  1.0089
 6240TIP3    H240136   2.564   5.125   2.274 -1.1444 -1.7234 -0.8911
 6241TIP3   OH240137   4.360   3.011  13.527  0.1981  0.0453 -0.1167
 6241TIP3    H140138   4.329   3.021  13.617  2.8400  2.0384  0.7213
 6241TIP3    H240139   4.293   3.054  13.473 -2.5148 -3.0792  0.5238
 6242TIP3   OH240140   6.713   2.926   5.507 -0.0018  0.4783  0.1870
 6242TIP3    H140141   6.696   2.919   5.413  1.4782  2.0544 -0.2568
 6242TIP3    H240142   6.773   2.855   5.527  0.0102  0.3923 -0.1572
 6243TIP3   OH240143   1.754   6.023  13.711 -0.1018  0.3853  1.1649
 6243TIP3    H140144   1.660   6.042  13.704 -0.2144 -0.6185 -0.5868
 6243TIP3    H240145   1.773   5.967  13.636  1.8484  0.2906  1.6730
 6244TIP3   OH240146   5.508   1.523  12.560 -0.2086  0.1698 -0.1457
 6244TIP3    H140147   5.512   1.498  12.468 -1.4844 -1.2196  0.1276
 6244TIP3    H240148   5.574   1.468  12.602  0.1936  0.6175 -0.1861
 6245TIP3   OH240149   6.658   0.324  13.380 -0.1459  0.4203 -0.3719
 6245TIP3    H140150   6.594   0.296  13.445 -0.1547 -1.4276 -1.1283
 6245TIP3    H240151   6.609   0.330  13.298  0.3977  0.1772 -0.7212
 6246TIP3   OH240152   5.238   2.476   5.107 -0.2818  0.6032 -0.8477
 6246TIP3    H140153   5.275   2.426   5.034 -1.0349  1.8097 -2.1162
 6246TIP3    H240154   5.283   2.561   5.103 -0.5019  0.7690 -0.0393
 6247TIP3   OH240155   0.048   0.374   0.294 -0.0667 -0.6671 -0.4540
 6247TIP3    H140156   0.038   0.391   0.388  0.8040  1.0701 -0.6342
 6247TIP3    H240157   0.119   0.432   0.266  0.0137 -1.4977 -2.1055
 6248TIP3   OH240158   5.931   1.144   1.493  0.4547 -0.2149 -0.3120
 6248TIP3    H140159   5.957   1.196   1.417 -1.3836  1.9336  0.4055
 6248TIP3    H240160   5.990   1.171   1.562  0.3299 -0.0396 -0.2726
 6249TIP3   OH240161   5.432   0.860  13.075 -0.0709  0.3240  0.5333
 6249TIP3    H140162   5.444   0.794  13.007  1.6056  0.0179  1.0786
 6249TIP3    H240163   5.521   0.886  13.099 -0.6684  3.0870  0.0758
 6250TIP3   OH240164   2.955   2.319  13.130 -1.0178  0.4656 -0.5016
 6250TIP3    H140165   2.865   2.343  13.151 -1.5076 -1.5120 -0.0984
 6250TIP3    H240166   2.962   2.334  13.036 -2.6327 -1.6359 -1.0557
 6251TIP3   OH240167   0.297   2.086   1.818  0.1505 -0.6862  0.6391
 6251TIP3    H140168   0.352   2.041   1.882  2.5734  0.5931 -0.4253
 6251TIP3    H240169   0.292   2.176   1.849  1.2356 -0.0779 -0.8299
 6252TIP3   OH240170   2.863   4.327   6.463  0.5992  0.1656  0.2079
 6252TIP3    H140171   2.933   4.359   6.521  0.1687 -0.8822  1.3689
 6252TIP3    H240172   2.788   4.384   6.482  0.4235 -0.2494  0.8026
 6253TIP3   OH240173   0.821   0.599   4.618  0.3796  0.2749  0.3144
 6253TIP3    H140174   0.843   0.576   4.527 -0.0772 -1.0969  0.5187
 6253TIP3    H240175   0.895   0.567   4.670 -0.4788 -1.2588  0.6543
 6254TIP3   OH240176   6.619   6.127   1.095  0.0373  1.1210 -0.0171
 6254TIP3    H140177   6.646   6.217   1.075 -2.7484  2.0068 -0.2299
 6254TIP3    H240178   6.545   6.137   1.155  0.3052 -1.0973  0.7704
 6255TIP3   OH240179   5.028   6.026  16.556  0.1127  0.3153  0.6085
 6255TIP3    H140180   5.046   5.936  16.582  0.3530  0.4391  0.8795
 6255TIP3    H240181   5.096   6.078  16.599 -1.0076  0.8129  1.8582
 6256TIP3   OH240182   1.349   3.133   1.187 -0.1027  0.6273 -0.0420
 6256TIP3    H140183   1.297   3.089   1.254  0.7241  1.1117  0.9467
 6256TIP3    H240184   1.426   3.078   1.177 -0.9372 -0.3047 -1.7943
 6257TIP3   OH240185   1.430   4.069  11.752  0.1521 -0.5175  0.4200
 6257TIP3    H140186   1.524   4.082  11.762  0.1325 -0.6566  0.7900
 6257TIP3    H240187   1.417   3.975  11.762 -0.1354 -0.3912  1.3179
 6258TIP3   OH240188   2.649   2.654  17.363 -0.4079  0.2486 -0.9094
 6258TIP3    H140189   2.695   2.578  17.326  1.3157  1.2166 -0.8306
 6258TIP3    H240190   2.607   2.695  17.288 -1.9009 -1.0927 -0.8686
 6259TIP3   OH240191   1.452   5.947   5.848 -0.3836 -0.0419  0.0844
 6259TIP3    H140192   1.532   5.999   5.856 -0.9145  0.8648 -0.3142
 6259TIP3    H240193   1.415   5.947   5.937 -1.4593  2.0969 -0.2829
 6260TIP3   OH240194   4.617   3.038  16.108 -0.0346 -0.0327 -0.2260
 6260TIP3    H140195   4.637   3.129  16.085  2.3735 -0.3793  0.1956
 6260TIP3    H240196   4.703   2.999  16.126 -0.9139 -2.6510 -1.2942
 6261TIP3   OH240197   0.842   6.477   4.092 -0.0018  0.0892  0.1066
 6261TIP3    H140198   0.936   6.462   4.105  0.3982  1.6454 -0.6567
 6261TIP3    H240199   0.834   6.496   3.998 -1.0133  0.3878  0.2417
 6262TIP3   OH240200   3.895   1.640  11.904 -0.2096 -0.4821  1.1684
 6262TIP3    H140201   3.846   1.590  11.839  0.1449  1.0277 -0.3356
 6262TIP3    H240202   3.980   1.657  11.864 -0.2180  1.0620  1.7165
 6263TIP3   OH240203   1.088   3.425   5.204 -0.1284  0.1593  0.0430
 6263TIP3    H140204   1.113   3.337   5.234 -1.4760 -0.1123  0.4135
 6263TIP3    H240205   1.072   3.474   5.284 -0.9576  0.2650 -0.1818
 6264TIP3   OH240206   5.992   1.613   3.921 -0.4785  0.6323 -0.6168
 6264TIP3    H140207   5.984   1.690   3.976  0.8387 -0.7035  1.6092
 6264TIP3    H240208   5.906   1.605   3.878 -1.9035  1.2982  1.9075
 6265TIP3   OH240209   5.044   0.986   0.488  0.7794  0.0551 -0.4387
 6265TIP3    H140210   5.050   0.964   0.396  4.1543 -0.2847 -0.2455
 6265TIP3    H240211   4.987   0.919   0.526  1.5075 -1.3745 -1.8162
 6266TIP3   OH240212   0.495   4.547   4.494 -0.4503  0.8092  0.2280
 6266TIP3    H140213   0.551   4.498   4.554 -0.3919 -1.3246 -1.4368
 6266TIP3    H240214   0.437   4.480   4.456 -1.7585  2.3864 -0.6907
 6267TIP3   OH240215   2.660   4.982  12.368 -0.5588 -0.2442 -0.5318
 6267TIP3    H140216   2.698   5.009  12.452  0.6540 -0.3029 -1.0429
 6267TIP3    H240217   2.646   5.064  12.321  0.6278 -0.3049 -1.0329
 6268TIP3   OH240218   3.597   1.673  17.372  0.1889  0.4416  0.7101
 6268TIP3    H140219   3.524   1.730  17.350  0.6724 -0.0559 -2.5920
 6268TIP3    H240220   3.620   1.629  17.290  3.4410 -0.2949  1.8511
 6269TIP3   OH240221   3.997   2.609   4.308 -0.1022 -0.4293 -0.6073
 6269TIP3    H140222   4.083   2.614   4.266  0.3814  0.4852  0.4620
 6269TIP3    H240223   3.955   2.692   4.286 -0.9729 -1.1194 -1.6352
 6270TIP3   OH240224   3.449   5.172  14.355  0.7634 -0.3970  0.4208
 6270TIP3    H140225   3.402   5.132  14.428  1.3165  0.3439  1.2123
 6270TIP3    H240226   3.397   5.249  14.331  1.4569  0.3364  1.1967
 6271TIP3   OH240227   4.992   3.129   3.573  0.1868 -0.2649  0.5672
 6271TIP3    H140228   5.050   3.133   3.497  1.4959 -3.3149  1.2525
 6271TIP3    H240229   4.910   3.095   3.539 -1.3633  3.7519 -0.3431
 6272TIP3   OH240230   1.924   6.008  10.811 -0.3843 -0.3061  0.3250
 6272TIP3    H140231   1.843   6.049  10.841 -0.9070 -1.6034  0.7748
 6272TIP3    H240232   1.901   5.916  10.797  0.8462 -0.5590 -0.2076
 6273TIP3   OH240233   3.065   3.991   4.058  0.4321  0.6058 -0.1319
 6273TIP3    H140234   3.091   4.062   4.116  0.3654  0.2035  0.3990
 6273TIP3    H240235   3.092   3.912   4.104  1.8451  0.3220 -1.3701
 6274TIP3   OH240236   4.399   4.417  10.704  0.1706  0.7003  0.1661
 6274TIP3    H140237   4.419   4.427  10.611 -2.2458  2.5385 -0.2530
 6274TIP3    H240238   4.467   4.468  10.748  0.2448  1.3940 -0.7197
 6275TIP3   OH240239   3.544   0.229   4.514  0.2738 -0.5258  0.4193
 6275TIP3    H140240   3.484   0.223   4.588 -0.9064 -0.8485 -0.5278
 6275TIP3    H240241   3.525   0.150   4.462  0.7400 -0.0672 -0.4633
 6276TIP3   OH240242   5.917   1.007  16.347  0.4278 -0.6100  0.2006
 6276TIP3    H140243   5.829   1.015  16.384 -0.3295  0.0465 -1.6273
 6276TIP3    H240244   5.914   1.058  16.267  2.4281 -0.7802 -0.0333
 6277TIP3   OH240245   2.566   0.324   0.526 -0.1893  0.3514 -0.2384
 6277TIP3    H140246   2.628   0.368   0.469 -1.5907  1.6956 -0.7837
 6277TIP3    H240247   2.519   0.264   0.468  0.7448 -0.8715  0.2269
 6278TIP3   OH240248   5.037   0.053  11.740 -0.1414 -0.2281 -0.2705
 6278TIP3    H140249   5.000  -0.012  11.680 -0.3612 -0.9445  0.6173
 6278TIP3    H240250   4.996   0.035  11.824  0.1436  0.7747  0.1059
 6279TIP3   OH240251   2.272   2.679  17.280  0.1239 -0.4260  0.7909
 6279TIP3    H140252   2.226   2.743  17.226  1.3144  0.6880  1.0375
 6279TIP3    H240253   2.365   2.697  17.264  0.4956 -0.8141  2.3383
 6280TIP3   OH240254   0.739   6.293  13.838  0.5346 -0.1248  0.3524
 6280TIP3    H140255   0.745   6.370  13.894 -1.1213 -0.7763  1.4697
 6280TIP3    H240256   0.795   6.315  13.763 -0.4469  2.4717  0.2741
 6281TIP3   OH240257   3.101   2.729   2.300  0.2673  0.1766  0.4702
 6281TIP3    H140258   3.106   2.752   2.393  1.9925 -1.6967  0.8963
 6281TIP3    H240259   3.187   2.692   2.279 -0.2195  0.1792 -1.7819
 6282TIP3   OH240260   1.508   1.348  14.135 -0.0858  0.5081  0.4417
 6282TIP3    H140261   1.496   1.409  14.208 -0.2801  1.0060  0.0046
 6282TIP3    H240262   1.456   1.272  14.158  0.0446  0.5640  0.9342
 6283TIP3   OH240263   5.857   0.717   6.015  0.0826 -0.0372  0.3443
 6283TIP3    H140264   5.859   0.756   6.102  0.5242 -0.6257  0.6026
 6283TIP3    H240265   5.915   0.641   6.021  2.2140  1.3674 -1.1573
 6284TIP3   OH240266   1.454   4.084  16.647 -0.9729 -0.3817 -0.5147
 6284TIP3    H140267   1.519   4.034  16.597  0.9247 -1.6890  2.8749
 6284TIP3    H240268   1.386   4.021  16.669  0.0158 -0.8783  1.3975
 6285TIP3   OH240269   3.842   2.524  12.971  0.5250 -0.4037 -0.0052
 6285TIP3    H140270   3.784   2.557  13.039  0.8267  0.2257 -0.0524
 6285TIP3    H240271   3.908   2.472  13.018  1.4382  1.0128  0.3187
 6286TIP3   OH240272   4.713   6.685  16.507  0.1500  0.3011 -0.3184
 6286TIP3    H140273   4.630   6.701  16.463  1.3241  2.3802 -2.0002
 6286TIP3    H240274   4.690   6.648  16.592 -2.5674  2.6178  0.0629
 6287TIP3   OH240275   1.233   1.720   4.279 -0.4792  0.1593 -0.1012
 6287TIP3    H140276   1.319   1.703   4.240 -0.8272 -1.1290 -0.3351
 6287TIP3    H240277   1.216   1.812   4.258  0.3868  0.1455 -0.9572
 6288TIP3   OH240278   2.364   5.374   5.715 -0.0967 -0.1571 -0.2196
 6288TIP3    H140279   2.364   5.281   5.689 -2.2421  0.2073 -1.7507
 6288TIP3    H240280   2.353   5.422   5.633  0.4116  1.4672  0.6168
 6289TIP3   OH240281   6.028   3.875  13.822 -0.4001  0.0439 -0.9836
 6289TIP3    H140282   6.067   3.804  13.872 -2.6473 -0.5668  0.0650
 6289TIP3    H240283   6.050   3.857  13.731 -0.1221 -1.4613 -0.6315
 6290TIP3   OH240284   4.088   4.458  15.957  0.3589  0.0371  0.4331
 6290TIP3    H140285   4.104   4.440  15.864  2.4039 -0.4358  0.8200
 6290TIP3    H240286   4.047   4.544  15.958  0.7399  0.2629 -0.8929
 6291TIP3   OH240287   5.698   4.521   0.288  0.7942  0.0206  0.1502
 6291TIP3    H140288   5.648   4.546   0.365 -1.5941  1.4461 -1.6914
 6291TIP3    H240289   5.738   4.437   0.311  0.6957  0.6693  3.0744
 6292TIP3   OH240290   4.675   1.532   5.113  0.8456 -0.4380 -0.4007
 6292TIP3    H140291   4.650   1.573   5.030 -0.7829  0.1490  0.3372
 6292TIP3    H240292   4.745   1.588   5.148  1.1094 -0.3410 -1.0762
 6293TIP3   OH240293   6.333   5.280   3.059  0.3796 -0.2792 -0.9122
 6293TIP3    H140294   6.413   5.262   3.009 -0.6991 -0.5919 -2.5974
 6293TIP3    H240295   6.279   5.202   3.046  0.8421 -1.3610  2.5497
 6294TIP3   OH240296   4.035   2.321  17.385  0.4076  0.0375  0.7013
 6294TIP3    H140297   4.011   2.383  17.317 -1.1929 -1.3179 -0.0509
 6294TIP3    H240298   4.126   2.298  17.366  0.0861 -0.0792 -0.8012
 6295TIP3   OH240299   5.497   0.565  16.219 -0.1310 -0.3050 -0.0480
 6295TIP3    H140300   5.474   0.543  16.129  0.1980  0.0429 -0.2208
 6295TIP3    H240301   5.421   0.614  16.251  0.8238  2.0045 -1.0472
 6296TIP3   OH240302   0.876   0.204   3.664 -0.6570 -0.0210 -0.4803
 6296TIP3    H140303   0.866   0.263   3.739  3.6031 -2.2085  2.2268
 6296TIP3    H240304   0.945   0.245   3.612 -0.1135 -0.8791 -0.4538
 6297TIP3   OH240305   3.766   1.999  11.750 -0.1433  0.4344  0.0730
 6297TIP3    H140306   3.837   2.038  11.700 -0.9611  1.9101  0.0225
 6297TIP3    H240307   3.690   2.003  11.692 -0.0984 -2.1461 -0.3200
 6298TIP3   OH240308   5.035   2.569  13.381  0.0191  0.4077 -0.6933
 6298TIP3    H140309   5.040   2.643  13.321 -2.6778  2.2177  1.0942
 6298TIP3    H240310   5.073   2.496  13.332 -0.3318  2.1730 -3.8583
 6299TIP3   OH240311   2.139   2.181  12.983 -0.4343  0.5731 -0.2214
 6299TIP3    H140312   2.047   2.203  12.995  0.2851  2.7582  2.0094
 6299TIP3    H240313   2.183   2.265  12.973  1.5076 -0.3213  0.2385
 6300TIP3   OH240314   4.624   6.239   1.707 -0.1280  0.3064  0.6545
 6300TIP3    H140315   4.661   6.292   1.777  0.1624 -0.4789  1.1055
 6300TIP3    H240316   4.550   6.193   1.747  1.6184 -2.1838  1.2085
 6301TIP3   OH240317   3.261   5.573   2.418  0.2426 -0.3151 -0.3695
 6301TIP3    H140318   3.241   5.498   2.363  1.0089 -0.3516 -0.6106
 6301TIP3    H240319   3.236   5.546   2.506 -0.7287 -0.3565 -0.6521
 6302TIP3   OH240320   6.446   6.725   5.795 -0.2086  0.2463 -0.1206
 6302TIP3    H140321   6.495   6.649   5.764  1.0933  0.9344  0.1749
 6302TIP3    H240322   6.356   6.709   5.767  0.3998 -0.4764 -1.7837
 6303TIP3   OH240323   0.343   5.431   5.592  0.5182 -0.1862  0.5086
 6303TIP3    H140324   0.328   5.421   5.498 -2.1895  0.6399  0.7643
 6303TIP3    H240325   0.352   5.342   5.625 -0.9580 -0.6289 -0.2255
 6304TIP3   OH240326   1.279   6.403  14.155  0.1132 -0.1965 -0.7015
 6304TIP3    H140327   1.332   6.443  14.085  1.4673  0.3006  0.5583
 6304TIP3    H240328   1.325   6.322  14.176 -0.4296 -0.4686 -0.5555
 6305TIP3   OH240329   1.219   0.317  17.290  0.3438 -0.1252 -0.5190
 6305TIP3    H140330   1.218   0.228  17.324  0.6163  0.1431  0.2193
 6305TIP3    H240331   1.304   0.324  17.245  0.2887 -0.2622 -0.6454
 6306TIP3   OH240332   0.478   5.712  15.675  0.0119  0.2734  0.2164
 6306TIP3    H140333   0.501   5.793  15.630  0.3975  0.4186  0.6673
 6306TIP3    H240334   0.489   5.644  15.609 -1.0279  0.6637 -0.3787
 6307TIP3   OH240335   2.343   3.154   5.965 -0.6436 -0.2930 -0.6152
 6307TIP3    H140336   2.266   3.199   6.000  0.2993  0.2221  0.9468
 6307TIP3    H240337   2.408   3.224   5.956 -0.5171 -0.6176 -2.4657
 6308TIP3   OH240338   6.056   5.729  13.067 -0.2210 -0.0592 -0.4529
 6308TIP3    H140339   6.139   5.749  13.023 -1.5607  0.4576 -2.9029
 6308TIP3    H240340   6.045   5.635  13.055  0.4487 -0.3181  0.7722
 6309TIP3   OH240341   4.612   2.204   1.983  0.4825  0.3203  0.2900
 6309TIP3    H140342   4.541   2.204   1.918 -0.1093 -1.5435  0.8860
 6309TIP3    H240343   4.684   2.157   1.941  0.7189  0.6160  0.3583
 6310TIP3   OH240344   2.668   3.523   1.399  0.8597  0.6119  0.0947
 6310TIP3    H140345   2.714   3.461   1.342  2.1683  1.9441 -0.3673
 6310TIP3    H240346   2.697   3.501   1.487  1.0419  0.3353 -0.0326
 6311TIP3   OH240347   0.899   0.911  13.486  0.2393 -0.0941 -0.2427
 6311TIP3    H140348   0.921   0.942  13.574  0.3405 -2.1916  0.5392
 6311TIP3    H240349   0.983   0.902  13.442  0.2898 -0.2039 -0.1249
 6312TIP3   OH240350   5.426   5.380  16.082  0.0425  0.2710 -0.2357
 6312TIP3    H140351   5.380   5.357  16.001  0.3277 -1.8803  0.1716
 6312TIP3    H240352   5.515   5.348  16.069  0.2345  0.3776  0.7323
 6313TIP3   OH240353   3.383   4.898   1.170  0.1461 -0.1263 -0.6856
 6313TIP3    H140354   3.439   4.918   1.245  0.8948  0.3204 -1.3389
 6313TIP3    H240355   3.374   4.803   1.171  0.6581 -0.1762 -0.3771
 6314TIP3   OH240356   5.362   5.370   2.251  0.4763  0.4499  0.6653
 6314TIP3    H140357   5.303   5.411   2.187  1.2926 -0.8460 -1.0215
 6314TIP3    H240358   5.332   5.279   2.255 -0.4028  0.7842  3.2314
 6315TIP3   OH240359   1.269   5.294   1.610 -0.2271  0.8751 -0.1797
 6315TIP3    H140360   1.357   5.286   1.647 -0.2485  0.7254 -0.1593
 6315TIP3    H240361   1.271   5.375   1.560  0.0290  0.6991 -0.4611
 6316TIP3   OH240362   2.392   0.425   5.658  0.1393  0.3493 -0.0032
 6316TIP3    H140363   2.367   0.333   5.658  0.1935  0.3031  1.4430
 6316TIP3    H240364   2.483   0.425   5.631 -0.1540  0.0901 -1.0276
 6317TIP3   OH240365   2.301   2.702   2.925 -0.1158 -0.7348  0.2509
 6317TIP3    H140366   2.372   2.741   2.977  0.1619  2.4931 -2.2204
 6317TIP3    H240367   2.344   2.675   2.843 -1.4631 -0.2245 -0.6527
 6318TIP3   OH240368   0.927   2.542   0.230  0.1992  0.3344  0.4037
 6318TIP3    H140369   0.979   2.614   0.264  0.2264  0.0286  1.0352
 6318TIP3    H240370   0.841   2.553   0.271 -0.7185  1.6482 -1.7016
 6319TIP3   OH240371   6.254   4.816   5.057 -0.8243 -0.1495  0.3528
 6319TIP3    H140372   6.210   4.778   5.133  1.6270 -2.9803  0.5370
 6319TIP3    H240373   6.320   4.874   5.094 -1.3675  0.5668  0.2307
 6320TIP3   OH240374   5.988   0.687   3.413  0.4488 -0.6861  0.0160
 6320TIP3    H140375   6.037   0.638   3.479  0.6665 -0.6760 -0.1400
 6320TIP3    H240376   5.970   0.771   3.454 -1.6283 -1.5609  1.0628
 6321TIP3   OH240377   2.822   6.624  12.324 -0.3589 -0.3653  0.1618
 6321TIP3    H140378   2.734   6.626  12.361 -0.3579 -1.0935  0.2016
 6321TIP3    H240379   2.835   6.534  12.297  0.5425 -0.3630  0.5597
 6322TIP3   OH240380   2.663   5.462  16.800  0.0601  0.5864 -0.3381
 6322TIP3    H140381   2.731   5.466  16.868 -0.5817 -0.2505  0.3734
 6322TIP3    H240382   2.589   5.419  16.843 -1.0496  1.7767 -0.9938
 6323TIP3   OH240383   5.811   4.219  14.762  0.1120  0.1287  0.5069
 6323TIP3    H140384   5.774   4.171  14.688  1.5791  0.9162 -0.7957
 6323TIP3    H240385   5.741   4.220  14.827 -0.3077 -2.9939  0.2916
 6324TIP3   OH240386   5.419   4.990   3.420 -0.4530  0.5915  0.0528
 6324TIP3    H140387   5.506   5.031   3.416  0.3617 -0.9675  0.8636
 6324TIP3    H240388   5.389   5.006   3.509 -0.0643 -0.5900  0.4289
 6325TIP3   OH240389   1.208   2.909  13.658 -0.1511 -0.0761  0.0448
 6325TIP3    H140390   1.175   2.980  13.603 -1.2089 -0.8111 -0.3116
 6325TIP3    H240391   1.134   2.848  13.665  0.2490 -0.4214  1.5701
 6326TIP3   OH240392   2.123   4.257  16.740 -0.2076 -0.0713 -0.2493
 6326TIP3    H140393   2.094   4.195  16.807 -0.2315 -1.2359 -1.2708
 6326TIP3    H240394   2.174   4.322  16.787 -0.1981 -0.8626  0.8903
 6327TIP3   OH240395   5.387   4.200   2.234  0.3983 -0.1109 -0.0250
 6327TIP3    H140396   5.467   4.215   2.183  0.8845  1.4919  1.1295
 6327TIP3    H240397   5.316   4.215   2.173  0.9428 -1.9690 -1.1873
 6328TIP3   OH240398   0.438   3.059   2.421  0.2230  0.3231 -0.2898
 6328TIP3    H140399   0.478   2.974   2.439 -0.0093  0.4128  0.7453
 6328TIP3    H240400   0.345   3.041   2.414 -0.3307  0.8869  3.4806
 6329TIP3   OH240401   4.370   0.090   1.890 -0.5127 -0.0416  0.7700
 6329TIP3    H140402   4.464   0.085   1.870 -0.5060 -0.3462  0.8651
 6329TIP3    H240403   4.367   0.126   1.979 -0.4656 -0.4174  0.9278
 6330TIP3   OH240404   2.876   1.664   0.819 -0.2490  0.5663 -0.5430
 6330TIP3    H140405   2.868   1.732   0.752  0.6795 -0.0828 -1.3473
 6330TIP3    H240406   2.930   1.597   0.778 -1.0130 -0.5897  0.2921
 6331TIP3   OH240407   1.676   6.626  13.204  0.1474 -0.0972 -0.2459
 6331TIP3    H140408   1.598   6.573  13.222  0.4066 -0.8069 -1.1387
 6331TIP3    H240409   1.743   6.562  13.180  1.4714  0.3619  1.9583
 6332TIP3   OH240410   2.426   6.396  15.557 -0.0547  0.0493 -0.0996
 6332TIP3    H140411   2.404   6.464  15.493  0.7675 -1.0558 -1.5994
 6332TIP3    H240412   2.456   6.322  15.505  1.5915 -0.5605  1.5861
 6333TIP3   OH240413   6.746   1.881   5.078 -0.4070  0.5312 -0.2270
 6333TIP3    H140414   6.675   1.824   5.049  1.3996 -1.0799 -1.8085
 6333TIP3    H240415   6.804   1.824   5.128  1.1013  1.1178 -1.2293
 6334TIP3   OH240416   2.420   3.032  13.351 -0.1195  0.1956 -0.1233
 6334TIP3    H140417   2.481   3.101  13.376 -0.6055  1.3644 -2.0040
 6334TIP3    H240418   2.338   3.055  13.393  0.4402 -0.9230  1.7119
 6335TIP3   OH240419   0.494   3.490   3.528 -0.3142  0.1827  0.3733
 6335TIP3    H140420   0.585   3.512   3.547 -0.2809 -0.6772  1.2964
 6335TIP3    H240421   0.443   3.548   3.585 -0.2930 -0.3342  0.9308
 6336TIP3   OH240422   2.669   2.391  12.802  0.7195  0.1910  0.0610
 6336TIP3    H140423   2.606   2.460  12.779  0.9389  0.5404  0.4866
 6336TIP3    H240424   2.668   2.389  12.897  0.3888 -0.7088  0.0433
 6337TIP3   OH240425   0.195   0.973  11.727 -0.0486 -0.2544 -0.5344
 6337TIP3    H140426   0.131   0.979  11.656 -2.2501 -2.4767  1.0467
 6337TIP3    H240427   0.275   0.942  11.685 -0.7953  0.0210 -2.2413
 6338TIP3   OH240428   2.844   3.494   2.237  0.3720  0.3284 -0.2452
 6338TIP3    H140429   2.821   3.426   2.301  1.0243  0.4057  0.0777
 6338TIP3    H240430   2.792   3.570   2.262  0.0602  0.1207 -0.2650
 6339TIP3   OH240431   4.829   3.624  14.899  0.2654 -0.2948  0.1865
 6339TIP3    H140432   4.832   3.691  14.968 -0.6732 -0.4703  0.4142
 6339TIP3    H240433   4.875   3.663  14.826  0.4117  0.2966  0.5866
 6340TIP3   OH240434   3.313   1.820   2.378 -0.0886 -0.3472 -0.2790
 6340TIP3    H140435   3.227   1.793   2.347 -0.6953 -1.8721  2.4507
 6340TIP3    H240436   3.360   1.738   2.394  0.1325  0.2722  2.7075
 6341TIP3   OH240437   3.646   3.565  13.017 -0.1878 -0.3319 -0.0357
 6341TIP3    H140438   3.741   3.556  13.015 -0.0686  0.2138  1.5315
 6341TIP3    H240439   3.631   3.659  13.011 -0.5892 -0.3666  0.3929
 6342TIP3   OH240440   2.839   5.501   3.644  0.4003 -0.0665 -0.0011
 6342TIP3    H140441   2.752   5.541   3.636  0.3368 -0.3885 -1.1765
 6342TIP3    H240442   2.895   5.571   3.677 -0.1516  0.3678  0.0326
 6343TIP3   OH240443   2.450   0.124  16.854  0.0008  0.0899  0.0871
 6343TIP3    H140444   2.477   0.113  16.945  0.7711 -0.4551 -0.1928
 6343TIP3    H240445   2.514   0.186  16.818 -2.7273  3.7855  0.9607
 6344TIP3   OH240446   6.334   6.742  16.031  0.2537 -0.1305 -0.1797
 6344TIP3    H140447   6.283   6.749  15.951  0.5766 -1.0290 -0.4744
 6344TIP3    H240448   6.274   6.772  16.100 -0.2933 -0.1183 -0.6536
 6345TIP3   OH240449   6.622   4.912  15.000 -0.3206 -0.4633  0.8377
 6345TIP3    H140450   6.592   4.836  14.950 -0.3973  0.1969 -0.1530
 6345TIP3    H240451   6.579   4.903  15.086 -0.7249 -1.2645  0.5578
 6346TIP3   OH240452   5.277   3.180   3.056 -0.3441 -0.2801  0.4896
 6346TIP3    H140453   5.215   3.168   2.984 -1.0760 -0.7572  1.1653
 6346TIP3    H240454   5.341   3.110   3.044  0.9985  1.1478 -1.0952
 6347TIP3   OH240455   1.305   0.707   0.509 -0.3257  0.0370 -0.1686
 6347TIP3    H140456   1.378   0.749   0.555  0.0411 -1.4284  0.6733
 6347TIP3    H240457   1.230   0.762   0.527  0.1986  0.5143  0.6233
 6348TIP3   OH240458   6.323   5.375   6.474 -0.0565 -0.1524  0.1854
 6348TIP3    H140459   6.398   5.327   6.440  1.0931  0.8051  1.2766
 6348TIP3    H240460   6.305   5.333   6.559  0.1478  0.5049  0.5612
 6349TIP3   OH240461   4.077   1.352  11.595  0.1595  0.3482 -0.1382
 6349TIP3    H140462   3.989   1.351  11.634 -0.6046 -1.1571 -1.7747
 6349TIP3    H240463   4.087   1.265  11.556  2.7117  0.1998  0.6565
 6350TIP3   OH240464   2.082   5.830  13.964 -0.1094 -0.1132 -0.4602
 6350TIP3    H140465   2.107   5.806  14.053  1.2525  1.1578 -0.4440
 6350TIP3    H240466   2.021   5.903  13.976  1.0473  0.9029 -0.5392
 6351TIP3   OH240467   3.583   2.493   2.156 -0.0348  0.0807  0.1889
 6351TIP3    H140468   3.647   2.524   2.220 -1.0876 -1.0620  1.8776
 6351TIP3    H240469   3.591   2.398   2.158 -2.1505 -0.1357  0.9115
 6352TIP3   OH240470   4.714   5.687  17.136  0.0040  0.3076 -0.2314
 6352TIP3    H140471   4.677   5.694  17.225  1.4159  0.3213  0.3774
 6352TIP3    H240472   4.705   5.594  17.114  0.7869  0.0565  0.4524
 6353TIP3   OH240473   5.922   2.433   5.947 -0.0498 -0.0731  0.1007
 6353TIP3    H140474   5.934   2.403   5.857  0.4458  0.6795 -0.0950
 6353TIP3    H240475   5.853   2.499   5.942 -0.5228 -0.5315  0.3943
 6354TIP3   OH240476   0.249   6.462   2.479 -0.2131 -0.0182 -0.0345
 6354TIP3    H140477   0.241   6.557   2.490 -0.1954 -0.0009 -0.1762
 6354TIP3    H240478   0.296   6.433   2.557  1.9570  0.3884 -1.1258
 6355TIP3   OH240479   6.199   5.827   4.239  0.0801 -0.6886  0.6596
 6355TIP3    H140480   6.140   5.851   4.167  1.4890 -0.8361 -0.5850
 6355TIP3    H240481   6.154   5.858   4.318 -0.5853  1.3096 -0.4323
 6356TIP3   OH240482   6.596   5.841   1.050  0.1563  0.7060  0.0624
 6356TIP3    H140483   6.593   5.932   1.078  0.3644  1.0512 -0.9985
 6356TIP3    H240484   6.607   5.845   0.955  0.0537 -0.4239 -0.0142
 6357TIP3   OH240485   6.015   5.795  13.671  0.1055  0.0003  0.4266
 6357TIP3    H140486   6.094   5.741  13.672  0.5363  0.6239  0.7349
 6357TIP3    H240487   6.042   5.876  13.627 -0.3121  0.2863  0.6905
 6358TIP3   OH240488   1.119   1.519  10.354 -0.0211  0.0767  0.4494
 6358TIP3    H140489   1.024   1.510  10.369  0.1348  1.3292  2.6945
 6358TIP3    H240490   1.132   1.613  10.342  0.8639 -0.1777 -0.7278
 6359TIP3   OH240491   2.058   0.183  14.781  0.0343 -0.0731  0.3439
 6359TIP3    H140492   2.097   0.232  14.708 -0.4295  0.9945  0.7866
 6359TIP3    H240493   2.129   0.176  14.845 -0.0579  0.5399  0.5193
 6360TIP3   OH240494   0.767   3.441   0.402 -0.4951  0.1223  0.2765
 6360TIP3    H140495   0.701   3.383   0.441 -0.0985  0.1499  0.9974
 6360TIP3    H240496   0.774   3.514   0.463 -1.6013  1.3891 -1.0275
 6361TIP3   OH240497   4.453   4.974   2.229  0.1037  0.0667 -0.1666
 6361TIP3    H140498   4.376   5.000   2.178  1.4127  1.1470 -1.7231
 6361TIP3    H240499   4.421   4.907   2.289 -1.5300 -1.3526 -2.4763
 6362TIP3   OH240500   2.337   1.750  15.905  0.6387  0.3841 -0.2458
 6362TIP3    H140501   2.333   1.845  15.915 -1.2700  0.2813  0.2172
 6362TIP3    H240502   2.292   1.732  15.823  2.5361 -0.0325 -1.2618
 6363TIP3   OH240503   5.148   2.961   2.205 -0.2416 -0.5981 -0.4481
 6363TIP3    H140504   5.113   2.964   2.117 -0.3043 -0.1231 -0.4094
 6363TIP3    H240505   5.230   3.010   2.200 -0.5498 -0.0357 -0.1115
 6364TIP3   OH240506   2.390   4.785  17.363  0.0319  0.3060  0.3064
 6364TIP3    H140507   2.363   4.695  17.379 -1.2022  0.4809 -0.5932
 6364TIP3    H240508   2.424   4.784  17.274  1.4096  0.4628  0.8015
 6365TIP3   OH240509   4.850   2.041   6.224  0.2425  0.5122 -0.4424
 6365TIP3    H140510   4.824   2.060   6.134 -0.4940  2.3511  0.1071
 6365TIP3    H240511   4.819   2.116   6.274  3.5206  1.1901  0.8373
 6366TIP3   OH240512   5.618   5.868   2.057  0.4081 -0.6472  0.2349
 6366TIP3    H140513   5.668   5.891   2.136  1.1463 -0.1301 -0.3656
 6366TIP3    H240514   5.527   5.870   2.085  0.4978  1.7493  0.5540
 6367TIP3   OH240515   6.247   0.679  16.826  0.2510 -0.1303 -0.1094
 6367TIP3    H140516   6.325   0.697  16.879  0.1821 -1.5150  0.5313
 6367TIP3    H240517   6.194   0.622  16.882 -1.1294  0.6236 -0.6193
 6368TIP3   OH240518   0.750   0.918   4.852 -0.3281  0.0303 -0.4681
 6368TIP3    H140519   0.818   0.851   4.846 -0.0854  0.1016  1.0673
 6368TIP3    H240520   0.672   0.878   4.814  0.0949 -0.7414 -0.5269
 6369TIP3   OH240521   1.046   3.935  17.108 -0.0310 -0.2141  0.4713
 6369TIP3    H140522   1.051   3.889  17.192 -2.0558 -1.6193 -0.0859
 6369TIP3    H240523   1.045   3.865  17.042  0.4566  0.8134 -0.6657
 6370TIP3   OH240524   4.403   1.872  16.011 -0.4457  0.3214 -0.3385
 6370TIP3    H140525   4.432   1.899  16.098  0.4059  1.3115 -0.9031
 6370TIP3    H240526   4.325   1.925  15.995 -0.2479  0.5858 -0.4250
 6371TIP3   OH240527   6.355   3.148   5.464 -0.9386  0.0240  0.1485
 6371TIP3    H140528   6.411   3.225   5.450 -0.9673 -0.2513 -1.7270
 6371TIP3    H240529   6.389   3.108   5.544  3.0892 -1.3840 -2.0065
 6372TIP3   OH240530   1.214   2.559   3.574  0.1986 -0.1814  0.3451
 6372TIP3    H140531   1.243   2.526   3.659  1.8786  0.2114 -0.0407
 6372TIP3    H240532   1.133   2.606   3.593  0.0033 -0.9564  1.5522
 6373TIP3   OH240533   3.839   4.675  13.625  0.5387  0.2546 -0.4849
 6373TIP3    H140534   3.924   4.635  13.610  0.7698  0.8019 -0.6672
 6373TIP3    H240535   3.788   4.608  13.670  0.4157 -0.8164 -2.1246
 6374TIP3   OH240536   4.378   3.115  15.481 -0.1033 -0.0784 -0.1134
 6374TIP3    H140537   4.289   3.148  15.489 -0.1198 -0.0431 -0.4374
 6374TIP3    H240538   4.418   3.133  15.567  0.3766  2.2195 -0.7476
 6375TIP3   OH240539   2.036   1.217   6.592  1.2086  0.0487  0.7574
 6375TIP3    H140540   1.957   1.164   6.602  0.5932  0.8328  0.2151
 6375TIP3    H240541   2.065   1.234   6.681 -0.4519  1.5045  1.0711
 6376TIP3   OH240542   3.716   0.553   5.844 -0.0974 -0.3432  0.2429
 6376TIP3    H140543   3.744   0.537   5.753 -0.1836 -2.3389  0.5193
 6376TIP3    H240544   3.796   0.582   5.888  0.2818 -0.7395 -0.1697
 6377TIP3   OH240545   3.210   5.215  17.270 -0.2316  0.2959  0.4794
 6377TIP3    H140546   3.155   5.286  17.237 -1.4225 -0.3099  1.0902
 6377TIP3    H240547   3.161   5.135  17.250  1.3332 -0.4354 -0.6845
 6378TIP3   OH240548   5.660   1.765  17.033  0.4969 -0.1158  0.5144
 6378TIP3    H140549   5.595   1.714  16.985  0.9391 -0.2625  0.0589
 6378TIP3    H240550   5.744   1.725  17.009  0.8422  0.7563  0.2300
 6379TIP3   OH240551   4.786   3.990  16.675 -0.0917  0.2240 -0.3329
 6379TIP3    H140552   4.798   3.898  16.652  2.8367  0.0353  1.5180
 6379TIP3    H240553   4.793   3.993  16.770  0.0863  2.3755 -0.3574
 6380TIP3   OH240554   5.759   6.458  15.262  0.0792  0.1610 -0.2450
 6380TIP3    H140555   5.749   6.421  15.350  1.6905 -0.2023 -0.1801
 6380TIP3    H240556   5.836   6.414  15.226  1.0126  2.1573 -0.8476
 6381TIP3   OH240557   6.428   5.255  11.656  0.3870  0.3351  0.3097
 6381TIP3    H140558   6.475   5.251  11.739  1.1497  1.3359 -0.0481
 6381TIP3    H240559   6.494   5.284  11.593 -0.3089  0.1062 -0.5406
 6382TIP3   OH240560   1.912   1.914   5.496 -0.4086 -0.2686  0.3483
 6382TIP3    H140561   1.895   2.003   5.467 -0.5954 -0.5929 -0.5888
 6382TIP3    H240562   1.827   1.882   5.526  0.1435  0.7293  3.2852
 6383TIP3   OH240563   1.943   5.694   1.828  0.1359 -0.7929 -1.0253
 6383TIP3    H140564   2.019   5.691   1.886 -0.0043 -1.0349 -0.8492
 6383TIP3    H240565   1.969   5.751   1.756  0.4117 -0.7149 -0.8645
 6384TIP3   OH240566   4.381   5.723   4.634  0.0969 -0.5442 -0.1674
 6384TIP3    H140567   4.455   5.695   4.688 -0.6012  0.8096  1.5927
 6384TIP3    H240568   4.420   5.770   4.560  1.0655 -2.2165 -0.7503
 6385TIP3   OH240569   5.618   3.114  17.077  0.0362 -0.1327 -0.6676
 6385TIP3    H140570   5.607   3.203  17.044  0.1850 -0.5676 -1.9334
 6385TIP3    H240571   5.565   3.060  17.019 -0.5110 -0.8178  0.4399
 6386TIP3   OH240572   3.266   2.034   4.955 -0.3869  0.0925  1.0672
 6386TIP3    H140573   3.265   1.999   5.045  0.4302  0.9706  1.4263
 6386TIP3    H240574   3.325   2.109   4.959  0.2348 -0.2982 -0.3859
 6387TIP3   OH240575   3.963   6.357  14.672 -0.1729 -0.0925  0.2683
 6387TIP3    H140576   3.922   6.282  14.630 -0.4652 -0.1476  0.6447
 6387TIP3    H240577   3.971   6.423  14.603 -1.7604  0.2746  0.3871
 6388TIP3   OH240578   3.856   4.041   4.544  0.4039 -0.5205  0.4099
 6388TIP3    H140579   3.828   3.958   4.584  2.4184 -0.6494  1.7189
 6388TIP3    H240580   3.866   4.020   4.451  2.4185 -2.2700  0.9292
 6389TIP3   OH240581   5.057   6.542  14.810  0.3803  0.1641 -0.1756
 6389TIP3    H140582   5.134   6.490  14.787 -0.0762  0.4731 -2.7855
 6389TIP3    H240583   5.018   6.566  14.725 -0.9530  2.4694  0.9698
 6390TIP3   OH240584   3.568   6.189   1.203 -0.2620  0.1449  0.7129
 6390TIP3    H140585   3.588   6.208   1.111  0.0287  0.1390  0.7745
 6390TIP3    H240586   3.608   6.260   1.252  2.6571 -1.6082  1.1151
 6391TIP3   OH240587   0.537   0.140  11.931  0.1624 -0.0876  0.7250
 6391TIP3    H140588   0.552   0.046  11.933  1.4196  0.0986  2.6086
 6391TIP3    H240589   0.492   0.159  12.013  0.9704  1.0905  0.9195
 6392TIP3   OH240590   2.293   4.933  14.150  0.1404  1.1584  0.1557
 6392TIP3    H140591   2.240   4.853  14.149 -0.3094  1.4252 -1.5622
 6392TIP3    H240592   2.379   4.903  14.179 -0.1479  0.1297  0.0226
 6393TIP3   OH240593   3.899   3.912   3.149 -0.1381  0.8552 -0.6398
 6393TIP3    H140594   3.922   3.836   3.095 -0.6389  1.3220 -1.5341
 6393TIP3    H240595   3.970   3.975   3.133 -0.3555  1.0453 -0.8655
 6394TIP3   OH240596   5.671   5.538  12.718 -0.2159  0.0457 -0.0704
 6394TIP3    H140597   5.742   5.491  12.674  0.7776 -0.3232  1.7851
 6394TIP3    H240598   5.623   5.469  12.763  0.5641  0.6253  1.7524
 6395TIP3   OH240599   0.525   5.906   4.937  0.0728  0.6382 -0.6631
 6395TIP3    H140600   0.443   5.864   4.962 -2.3507  3.5185 -3.0448
 6395TIP3    H240601   0.545   5.871   4.850  1.2491  0.2170 -0.2508
 6396TIP3   OH240602   2.036   1.662   1.323 -0.5356  0.1443  0.5763
 6396TIP3    H140603   2.106   1.602   1.298  0.1234  1.2539 -0.3143
 6396TIP3    H240604   1.957   1.607   1.324  0.1307 -0.8455  0.3274
 6397TIP3   OH240605   1.250   0.231   4.255  0.4395  0.1296  0.4475
 6397TIP3    H140606   1.288   0.144   4.251 -0.2708 -0.1454 -1.9050
 6397TIP3    H240607   1.318   0.289   4.221 -0.1117  0.0390 -0.8828
 6398TIP3   OH240608   6.681   0.338   4.747 -0.4948  0.0244  0.1783
 6398TIP3    H140609   6.636   0.408   4.795  1.2179  1.2888  0.0315
 6398TIP3    H240610   6.638   0.337   4.661  0.7889  2.4458 -0.6019
 6399TIP3   OH240611   2.548   2.448   4.569 -0.2315 -0.5106  0.0502
 6399TIP3    H140612   2.624   2.502   4.547  0.9891 -2.2669 -0.2601
 6399TIP3    H240613   2.585   2.366   4.602 -1.9836 -1.4989 -0.3035
 6400TIP3   OH240614   5.240   4.506  14.919 -0.5579 -0.0365 -0.3281
 6400TIP3    H140615   5.166   4.452  14.946 -0.7355  0.3313 -0.0694
 6400TIP3    H240616   5.301   4.445  14.877  0.2777 -0.8727  1.9681
 6401TIP3   OH240617   5.023   0.006   5.639  0.5749 -0.6539 -0.4270
 6401TIP3    H140618   5.045   0.096   5.614 -0.2498 -0.1578  0.5600
 6401TIP3    H240619   4.980  -0.030   5.562  0.1531  0.0805 -0.5498
 6402TIP3   OH240620   6.255   5.921  16.320 -0.2665  0.0874  0.5336
 6402TIP3    H140621   6.162   5.922  16.300  0.0202  0.7937 -0.9607
 6402TIP3    H240622   6.292   5.855  16.261  0.4585  1.4316 -0.6014
 6403TIP3   OH240623   6.568   0.367  11.222 -0.1155  0.0806 -0.2499
 6403TIP3    H140624   6.551   0.460  11.236 -1.7843  0.2571 -2.8265
 6403TIP3    H240625   6.587   0.360  11.128  0.6813 -2.0918  0.0141
 6404TIP3   OH240626   3.369   0.503   1.493  0.4413 -0.2866  0.2751
 6404TIP3    H140627   3.327   0.505   1.578  2.0486  0.6112  1.0954
 6404TIP3    H240628   3.459   0.532   1.509  0.4258  1.3130 -1.9205
 6405TIP3   OH240629   3.815   6.578  15.503 -0.2547 -0.3688 -0.0103
 6405TIP3    H140630   3.909   6.588  15.521 -0.2416 -1.2697  0.4689
 6405TIP3    H240631   3.773   6.594  15.587 -0.6504  1.2498 -0.4727
 6406TIP3   OH240632   5.116   0.025   2.490  0.0893  0.6781 -0.1284
 6406TIP3    H140633   5.043   0.044   2.431 -0.8435  0.7085  0.9976
 6406TIP3    H240634   5.097   0.076   2.569  1.4001  0.7814  0.1476
 6407TIP3   OH240635   2.302   4.290  13.364  0.4893  0.9235 -0.2142
 6407TIP3    H140636   2.376   4.351  13.361 -0.1394  1.6775 -0.4740
 6407TIP3    H240637   2.277   4.278  13.273  0.6745  0.1810 -0.1749
 6408TIP3   OH240638   5.022   3.061  14.964 -0.2957  0.2515 -0.2136
 6408TIP3    H140639   5.068   3.089  14.885  0.4935  0.9564  0.4799
 6408TIP3    H240640   5.014   3.141  15.017 -1.1849 -0.1255  0.2393
 6409TIP3   OH240641   6.724   6.656  16.140 -0.2506  0.0071 -0.0423
 6409TIP3    H140642   6.682   6.576  16.172  0.7785 -0.7971 -0.6360
 6409TIP3    H240643   6.755   6.700  16.219  0.1582 -0.7469  0.2229
 6410TIP3   OH240644   6.263   2.184   1.683 -0.5160 -0.0650  0.2755
 6410TIP3    H140645   6.323   2.143   1.746  0.1446 -0.0173 -0.3019
 6410TIP3    H240646   6.237   2.111   1.626 -1.6630 -0.2527  0.9970
 6411TIP3   OH240647   2.604   2.586  16.204  0.4868  0.2820 -0.3126
 6411TIP3    H140648   2.673   2.635  16.158  1.4736 -0.9525 -0.1825
 6411TIP3    H240649   2.522   2.617  16.164  1.1478  1.2571 -0.9523
 6412TIP3   OH240650   5.532   3.569  11.047  0.2258  0.9105  0.2071
 6412TIP3    H140651   5.522   3.661  11.074 -0.1582  0.5195  1.4481
 6412TIP3    H240652   5.455   3.552  10.993 -1.0930  0.6154  2.0743
 6413TIP3   OH240653   0.597   2.923  12.782 -0.5975  0.6286 -0.2919
 6413TIP3    H140654   0.515   2.919  12.734 -1.5223  3.6213  0.7982
 6413TIP3    H240655   0.624   3.015  12.776  1.7970  0.0785  0.8004
 6414TIP3   OH240656   3.967   5.279  15.351  0.0513  0.4283  0.7576
 6414TIP3    H140657   4.036   5.215  15.368 -0.3061  0.0223  0.6963
 6414TIP3    H240658   3.937   5.259  15.262  0.8091  1.5045  0.2305
 6415TIP3   OH240659   2.445   5.678   2.375 -0.2292  0.2223 -0.3222
 6415TIP3    H140660   2.372   5.708   2.429 -1.0796 -0.4255 -1.0812
 6415TIP3    H240661   2.523   5.706   2.422 -0.9638  0.8398  0.5589
 6416TIP3   OH240662   6.181   3.822   3.501  0.0521 -0.8099  0.0863
 6416TIP3    H140663   6.204   3.845   3.591 -0.0961 -1.5325  0.3151
 6416TIP3    H240664   6.183   3.905   3.453  0.8135 -0.5221  0.6058
 6417TIP3   OH240665   2.140   4.583  13.421  0.4475 -0.6413  0.1124
 6417TIP3    H140666   2.133   4.505  13.476 -0.4803  0.6930  1.9762
 6417TIP3    H240667   2.120   4.551  13.333  0.0722 -2.4854  0.8055
 6418TIP3   OH240668   6.711   1.913  13.449 -0.1510  0.2742 -0.3847
 6418TIP3    H140669   6.663   1.926  13.531  1.2992 -0.6465  0.6720
 6418TIP3    H240670   6.751   1.827  13.459 -0.9487 -0.4117 -2.6237
 6419TIP3   OH240671   3.895   3.202  12.739  0.3888 -0.6317 -0.0739
 6419TIP3    H140672   3.910   3.287  12.780  0.9071 -0.9025  0.3073
 6419TIP3    H240673   3.801   3.186  12.751  0.4442 -0.4912  0.5883
 6420TIP3   OH240674   5.044   2.841  15.147  1.2147 -0.6293 -0.2195
 6420TIP3    H140675   5.075   2.885  15.226 -4.2691  0.5292  1.7139
 6420TIP3    H240676   5.052   2.908  15.078  0.3871  0.6542  0.8769
 6421TIP3   OH240677   2.900   0.929   1.948 -0.3047  0.3693 -0.1980
 6421TIP3    H140678   2.938   0.896   1.867 -0.8892  0.4528 -0.5170
 6421TIP3    H240679   2.844   0.858   1.979 -0.5750  0.5726 -0.2095
 6422TIP3   OH240680   4.063   6.683  15.457  0.1739 -0.2521 -0.0934
 6422TIP3    H140681   4.109   6.697  15.374  2.1223  1.8627  1.2409
 6422TIP3    H240682   4.132   6.661  15.519 -0.6038  2.2673  1.8375
 6423TIP3   OH240683   3.181   1.371  12.330  0.3448 -0.4594 -0.2471
 6423TIP3    H140684   3.270   1.337  12.329  0.9399  0.8234  1.6848
 6423TIP3    H240685   3.184   1.450  12.276  0.2466 -0.7116 -0.6194
 6424TIP3   OH240686   3.318   5.168   1.542  0.2447  0.5312  0.5247
 6424TIP3    H140687   3.358   5.082   1.552  0.2347  0.6187  1.4223
 6424TIP3    H240688   3.231   5.149   1.507  0.5661  0.2473 -0.1437
 6425TIP3   OH240689   1.093   1.884  13.507  0.0235 -0.3403  0.0008
 6425TIP3    H140690   1.099   1.791  13.484  1.4239 -0.3072  0.1194
 6425TIP3    H240691   1.183   1.917  13.496 -0.3784  0.9133  0.3086
 6426TIP3   OH240692   4.354   4.825   2.437 -0.6563  0.2166 -0.4613
 6426TIP3    H140693   4.410   4.868   2.501 -0.8754 -0.4267  0.1812
 6426TIP3    H240694   4.399   4.743   2.416 -0.6777  0.3374 -0.9938
 6427TIP3   OH240695   3.931   5.080   5.277 -0.1322  0.8355 -0.1421
 6427TIP3    H140696   3.997   5.026   5.234 -0.2366  0.6848 -0.1147
 6427TIP3    H240697   3.976   5.118   5.353 -0.4911 -0.4805  0.7513
 6428TIP3   OH240698   6.546   3.799   2.809 -0.0997  0.2381  1.0461
 6428TIP3    H140699   6.573   3.740   2.880 -1.2588  0.9964  2.1665
 6428TIP3    H240700   6.465   3.839   2.841 -1.3589 -0.2996 -1.2091
 6429TIP3   OH240701   3.495   3.339   6.052  0.1546  0.2765 -0.2125
 6429TIP3    H140702   3.465   3.426   6.076 -1.8757 -0.9789  2.2982
 6429TIP3    H240703   3.420   3.298   6.009 -0.3899 -1.4334  2.1324
 6430TIP3   OH240704   4.847   4.862  15.273 -0.0249  0.0347  0.3972
 6430TIP3    H140705   4.846   4.812  15.191  0.1879 -0.9330  0.9713
 6430TIP3    H240706   4.765   4.912  15.272 -0.9317 -1.3894  0.4359
 6431TIP3   OH240707   6.260   5.563  13.828 -0.9625 -0.1963  0.1715
 6431TIP3    H140708   6.249   5.558  13.733  1.4242  1.4311 -0.2732
 6431TIP3    H240709   6.306   5.482  13.850 -4.1581 -2.0795  0.5194
 6432TIP3   OH240710   6.038   0.940  13.473 -0.1797 -0.3106 -0.2169
 6432TIP3    H140711   6.099   0.931  13.400  0.0866 -0.7713  0.0577
 6432TIP3    H240712   6.054   0.863  13.527  0.7047  0.7883  1.1395
 6433TIP3   OH240713   6.044   2.225  15.924  0.4667  0.0976 -0.2267
 6433TIP3    H140714   6.090   2.300  15.961  0.4925  0.1709 -0.4082
 6433TIP3    H240715   6.110   2.155  15.922 -0.0667 -0.5284  1.7801
 6434TIP3   OH240716   0.277   3.922   1.757 -0.2642  0.4479  0.7627
 6434TIP3    H140717   0.213   3.967   1.813 -1.6270  0.9048 -1.0845
 6434TIP3    H240718   0.262   3.958   1.670  0.9928 -1.0897 -0.1299
 6435TIP3   OH240719   5.819   0.118  15.021 -0.0718 -0.5801  0.4460
 6435TIP3    H140720   5.732   0.157  15.013 -0.5973 -1.7478  0.2152
 6435TIP3    H240721   5.844   0.097  14.931  0.7989  0.4337  0.4283
 6436TIP3   OH240722   3.892   3.937  14.743  0.0015 -0.2115  0.0221
 6436TIP3    H140723   3.841   3.983  14.810 -1.9882 -0.5453 -1.1864
 6436TIP3    H240724   3.860   3.973  14.660  1.0213 -1.1694 -0.8103
 6437TIP3   OH240725   5.472   4.888  10.747 -0.0632  0.2847  0.5149
 6437TIP3    H140726   5.567   4.900  10.752  0.0624 -1.0939  2.5506
 6437TIP3    H240727   5.461   4.805  10.700 -0.3209  0.9685 -0.6524
 6438TIP3   OH240728   6.291   0.263  16.336  0.3588 -0.0228 -0.3707
 6438TIP3    H140729   6.322   0.257  16.427 -0.1254 -0.7214 -0.2390
 6438TIP3    H240730   6.254   0.350  16.328 -1.1265 -0.5398  0.6133
 6439TIP3   OH240731   2.402   4.059   6.343 -0.1264  0.3323 -0.3204
 6439TIP3    H140732   2.370   4.132   6.395 -0.3941 -0.2303  0.3302
 6439TIP3    H240733   2.497   4.066   6.348 -0.1367  0.0051  0.6898
 6440TIP3   OH240734   6.360   2.663  12.420  0.1363  0.1759 -0.1231
 6440TIP3    H140735   6.371   2.596  12.487  1.9957 -0.2451 -0.7973
 6440TIP3    H240736   6.335   2.615  12.342  0.7769  0.3287 -0.4309
 6441TIP3   OH240737   6.000   4.177   5.425 -0.1267  0.1188  0.0820
 6441TIP3    H140738   6.048   4.103   5.462 -1.6187 -0.3555  1.1787
 6441TIP3    H240739   6.016   4.172   5.331 -0.2121 -1.6226  0.1298
 6442TIP3   OH240740   3.216   2.630  12.261  0.2674  0.2024  0.2171
 6442TIP3    H140741   3.173   2.630  12.175  0.6066 -0.2580  0.0418
 6442TIP3    H240742   3.146   2.646  12.323 -0.4673 -2.0883  0.0666
 6443TIP3   OH240743   3.267   3.283  12.454 -0.2277  0.2027  0.3339
 6443TIP3    H140744   3.270   3.256  12.363 -3.9176 -1.4379  0.5035
 6443TIP3    H240745   3.357   3.273  12.486  0.9487 -0.2040 -2.7770
 6444TIP3   OH240746   1.419   2.101  16.066 -0.0414  0.3674 -0.3267
 6444TIP3    H140747   1.326   2.085  16.084 -0.2442 -0.1790 -1.7555
 6444TIP3    H240748   1.464   2.074  16.146 -1.0663  0.1910  0.2067
 6445TIP3   OH240749   3.292   1.053  12.046  0.3807  0.3963  0.0897
 6445TIP3    H140750   3.294   1.148  12.043  0.2297  0.3698 -1.3034
 6445TIP3    H240751   3.233   1.033  12.119  2.1423  1.3254  1.8730
 6446TIP3   OH240752   6.373   1.272  16.863 -0.1345 -0.1532  0.5466
 6446TIP3    H140753   6.326   1.356  16.864 -2.8415 -1.5108 -1.1028
 6446TIP3    H240754   6.382   1.251  16.770  1.5405 -1.1942  0.8977
 6447TIP3   OH240755   1.465   1.341  11.153  0.3264 -0.4698 -0.0016
 6447TIP3    H140756   1.544   1.311  11.107  0.8292  1.3288 -0.3727
 6447TIP3    H240757   1.497   1.406  11.216 -1.0063  1.7917 -1.5194
 6448TIP3   OH240758   5.143   6.611   1.406 -0.6683  0.3630 -0.0038
 6448TIP3    H140759   5.128   6.636   1.314 -0.4387  0.0586 -0.1251
 6448TIP3    H240760   5.109   6.685   1.456  0.1298  0.9941 -0.3628
 6449TIP3   OH240761   2.829   4.632  12.507 -0.2022  0.6529  0.3020
 6449TIP3    H140762   2.811   4.683  12.586 -0.2089 -0.1251  0.8224
 6449TIP3    H240763   2.851   4.697  12.440  0.7755  1.2844  1.2070
 6450TIP3   OH240764   1.785   1.762  15.524 -0.1308  0.4775  0.2674
 6450TIP3    H140765   1.707   1.717  15.557  1.6305 -1.8267  1.5633
 6450TIP3    H240766   1.844   1.767  15.599  1.2203  1.6314 -0.8162
 6451TIP3   OH240767   1.292   0.254  16.522  0.3087 -0.2651  0.3578
 6451TIP3    H140768   1.373   0.211  16.548  0.4485 -0.0458  0.2808
 6451TIP3    H240769   1.308   0.348  16.536 -0.5796 -0.3338  2.2124
 6452TIP3   OH240770   5.914   5.286   5.860  0.2939  0.0561 -0.2183
 6452TIP3    H140771   5.966   5.363   5.880  0.1848  0.5453 -1.7227
 6452TIP3    H240772   5.840   5.291   5.920  1.1253  0.2163  0.8282
 6453TIP3   OH240773   2.270   6.540   4.032 -0.6805  0.4717  0.4156
 6453TIP3    H140774   2.297   6.620   3.987  0.7731  1.2073  2.4846
 6453TIP3    H240775   2.343   6.479   4.018 -1.4581 -0.2847 -0.5234
 6454TIP3   OH240776   3.415   2.703   3.624  0.4815 -0.1817 -0.1914
 6454TIP3    H140777   3.411   2.799   3.619 -0.1038 -0.0715  1.4693
 6454TIP3    H240778   3.334   2.679   3.668  0.6140 -1.4561 -0.6209
 6455TIP3   OH240779   1.817   3.936   3.602 -0.4664  0.0269  0.0132
 6455TIP3    H140780   1.740   3.991   3.610 -0.2829  0.1197  1.3765
 6455TIP3    H240781   1.879   3.971   3.667  1.6407  1.3995 -2.5273
 6456TIP3   OH240782   0.869   0.214   2.503 -0.1860 -0.4361 -0.1305
 6456TIP3    H140783   0.810   0.240   2.574 -1.6808 -2.2120 -0.6641
 6456TIP3    H240784   0.871   0.119   2.507  3.3953 -0.4793  0.4023
 6457TIP3   OH240785   2.963   6.385  12.308 -0.1989 -0.6909 -0.0007
 6457TIP3    H140786   3.002   6.356  12.390 -0.3752  1.5257  0.9421
 6457TIP3    H240787   2.924   6.306  12.270 -1.2389 -1.5797  2.6834
 6458TIP3   OH240788   6.522   4.237  15.691  0.4103 -0.1518 -0.0938
 6458TIP3    H140789   6.590   4.192  15.642 -0.1243  0.1711 -1.1854
 6458TIP3    H240790   6.498   4.312  15.635 -1.1789 -0.5410 -0.0038
 6459TIP3   OH240791   0.115   3.606   2.195 -0.1633  0.0876  0.1246
 6459TIP3    H140792   0.126   3.614   2.100 -0.2780 -0.3543  0.0696
 6459TIP3    H240793   0.190   3.554   2.224 -0.0119  0.4097  0.3066
 6460TIP3   OH240794   0.183   2.536   3.582 -0.2879  0.3765  0.3844
 6460TIP3    H140795   0.259   2.557   3.528 -0.3640 -1.6074 -0.5730
 6460TIP3    H240796   0.110   2.579   3.538 -0.0374  0.5247  0.1053
 6461TIP3   OH240797   1.517   3.729   6.493 -0.1051 -0.3370 -0.3070
 6461TIP3    H140798   1.541   3.638   6.510 -0.2056 -0.1365  0.9543
 6461TIP3    H240799   1.600   3.778   6.499 -0.1553 -0.2482 -0.3284
 6462TIP3   OH240800   1.015   1.160   1.619  0.4219 -0.0659  0.0356
 6462TIP3    H140801   0.957   1.177   1.694 -1.8593  0.1636 -1.6476
 6462TIP3    H240802   1.103   1.179   1.651 -0.3442 -0.8916  2.9028
 6463TIP3   OH240803   6.144   5.448  15.856  0.3127 -0.0286  0.3442
 6463TIP3    H140804   6.223   5.486  15.817  0.0078 -0.8657 -1.1553
 6463TIP3    H240805   6.114   5.515  15.918  1.1580  1.0951 -0.4125
 6464TIP3   OH240806   1.568   1.655  13.564 -0.0530 -0.2921  0.3619
 6464TIP3    H140807   1.654   1.660  13.606 -0.1830 -0.6729  0.6783
 6464TIP3    H240808   1.571   1.574  13.513 -0.9643 -1.4584  2.0714
 6465TIP3   OH240809   3.734   5.016   1.629  0.4898 -0.1953  0.9187
 6465TIP3    H140810   3.687   4.939   1.659 -0.9700 -1.0110 -2.8718
 6465TIP3    H240811   3.820   4.983   1.600  0.4652 -0.1204  0.7559
 6466TIP3   OH240812   0.429   0.164   0.803 -0.2202  0.0502  0.0723
 6466TIP3    H140813   0.384   0.242   0.773 -1.4451 -1.2490 -1.7239
 6466TIP3    H240814   0.474   0.131   0.725  2.0439  0.0791  1.2896
 6467TIP3   OH240815   1.277   4.039   0.166 -0.4593  0.4011 -0.2714
 6467TIP3    H140816   1.184   4.019   0.167 -0.2545 -0.6430 -0.2673
 6467TIP3    H240817   1.316   3.973   0.224  0.7211 -1.7554 -3.2333
 6468TIP3   OH240818   6.641   1.837   1.209 -0.2662 -0.1685 -0.4961
 6468TIP3    H140819   6.576   1.817   1.141 -0.1786 -1.9336 -0.1116
 6468TIP3    H240820   6.709   1.886   1.162 -0.3692 -1.0554 -1.6319
 6469TIP3   OH240821   2.621   2.595   1.569  0.0546  0.2096  0.0170
 6469TIP3    H140822   2.714   2.613   1.583  0.4941 -2.5060  1.3513
 6469TIP3    H240823   2.615   2.499   1.574 -2.6140  0.2146 -1.5168
 6470TIP3   OH240824   3.457   3.674   3.035  0.6581 -0.2736 -0.0555
 6470TIP3    H140825   3.518   3.604   3.012 -2.2556 -2.8065 -0.8259
 6470TIP3    H240826   3.436   3.658   3.127  0.8738  0.3116  0.0935
 6471TIP3   OH240827   0.392   0.956  15.898  0.4565  0.1075  0.5777
 6471TIP3    H140828   0.432   1.041  15.916  0.4252 -0.1363  1.9118
 6471TIP3    H240829   0.352   0.930  15.981 -2.9371  0.5353 -0.7724
 6472TIP3   OH240830   4.480   4.967   3.269  0.0676 -0.1619  0.1572
 6472TIP3    H140831   4.461   4.913   3.193 -2.4333  0.2543  0.4141
 6472TIP3    H240832   4.512   4.905   3.335 -2.7515 -1.4376  0.4496
 6473TIP3   OH240833   5.992   1.799   2.047  0.2978  0.6020  0.0275
 6473TIP3    H140834   5.959   1.711   2.029  0.8286  0.8170 -2.3563
 6473TIP3    H240835   5.962   1.851   1.972  1.0984  2.1441  0.7424
 6474TIP3   OH240836   1.107   1.279  12.505 -1.0827 -0.2941  0.7108
 6474TIP3    H140837   1.066   1.325  12.431 -0.0743 -0.1150  0.2402
 6474TIP3    H240838   1.086   1.187  12.490 -1.2766 -0.2098  0.4489
 6475TIP3   OH240839   6.613   5.063   1.463 -0.1690 -0.0945  0.2520
 6475TIP3    H140840   6.612   4.980   1.509 -0.2998 -1.0593 -1.4081
 6475TIP3    H240841   6.559   5.048   1.385 -2.9240  2.5027  1.4528
 6476TIP3   OH240842   6.687   4.280   3.152  0.1581 -0.5032 -0.2883
 6476TIP3    H140843   6.748   4.354   3.149  0.7520 -0.9848 -0.2377
 6476TIP3    H240844   6.605   4.318   3.183  1.4901 -0.5605  3.9047
 6477TIP3   OH240845   0.113   1.794  12.155 -0.1024 -0.3287  0.0249
 6477TIP3    H140846   0.029   1.794  12.201  0.3914 -0.5613  0.9550
 6477TIP3    H240847   0.096   1.745  12.074 -0.6880 -1.0194  0.5507
 6478TIP3   OH240848   5.228   4.219  12.778 -0.6120  0.5785 -0.2323
 6478TIP3    H140849   5.138   4.217  12.809 -0.6606 -1.4988 -0.3360
 6478TIP3    H240850   5.222   4.248  12.687 -1.2570 -0.0393 -0.3926
 6479TIP3   OH240851   4.976   2.337  17.086  0.2040 -0.0679 -0.0576
 6479TIP3    H140852   4.882   2.319  17.087  0.2835 -0.5452 -0.6678
 6479TIP3    H240853   4.992   2.373  16.999  0.5438  0.2726  0.1436
 6480TIP3   OH240854   3.645   4.827  11.934  0.2797 -0.0403 -0.2479
 6480TIP3    H140855   3.566   4.799  11.980 -0.0104  1.7056  0.4175
 6480TIP3    H240856   3.697   4.871  12.002  0.5862  1.1652 -1.2434
 6481TIP3   OH240857   1.559   4.262   4.352 -0.3872  0.0814 -0.5177
 6481TIP3    H140858   1.574   4.169   4.334 -1.3347 -0.2054  0.1050
 6481TIP3    H240859   1.577   4.271   4.445 -0.0406  0.5851 -0.6313
 6482TIP3   OH240860   3.546   3.608  12.463  0.7643 -0.0393  0.0201
 6482TIP3    H140861   3.586   3.653  12.537  0.5469 -1.2020  0.8832
 6482TIP3    H240862   3.609   3.539  12.440 -0.5181 -1.6765  1.1756
 6483TIP3   OH240863   1.389   5.381  11.708 -0.2626  0.0288 -0.0943
 6483TIP3    H140864   1.329   5.312  11.738 -0.3947 -0.4057 -1.2897
 6483TIP3    H240865   1.351   5.411  11.625 -0.8614  2.4137  0.9860
 6484TIP3   OH240866   3.816   3.049   6.578  0.7638 -0.0351 -0.1782
 6484TIP3    H140867   3.892   2.996   6.554  0.2207 -1.0621  0.2973
 6484TIP3    H240868   3.853   3.130   6.613  1.6168 -0.1363 -0.8226
 6485TIP3   OH240869   4.312   0.053   3.893  0.6726 -0.1070  0.8007
 6485TIP3    H140870   4.399   0.055   3.852 -0.5098 -1.9817 -2.1260
 6485TIP3    H240871   4.275  -0.032   3.867 -2.1092  0.6941  1.7875
 6486TIP3   OH240872   2.504   0.560  11.788  0.6729 -0.3032  0.2476
 6486TIP3    H140873   2.426   0.548  11.734  0.4775 -1.9024  0.8196
 6486TIP3    H240874   2.568   0.602  11.730  0.0257 -0.7497 -0.8150
 6487TIP3   OH240875   4.980   6.368   3.601 -0.2602 -0.2593 -0.3737
 6487TIP3    H140876   4.927   6.360   3.681  1.8705  1.4138  1.3299
 6487TIP3    H240877   5.013   6.458   3.603  2.1481 -1.0337 -1.6244
 6488TIP3   OH240878   2.785   6.003   1.993 -0.0173  0.4371  0.6048
 6488TIP3    H140879   2.858   6.019   2.054  0.9569 -2.9526  0.5273
 6488TIP3    H240880   2.819   5.937   1.932 -2.1162  1.2025 -1.5327
 6489TIP3   OH240881   6.659   4.560  13.299  0.3669  0.2708 -0.5095
 6489TIP3    H140882   6.663   4.533  13.391  0.0910 -1.8442 -1.0721
 6489TIP3    H240883   6.686   4.652  13.300 -0.9198  0.7063  1.8401
 6490TIP3   OH240884   4.282   5.901  14.207 -0.2599 -0.0969  0.3412
 6490TIP3    H140885   4.289   5.989  14.242 -0.2921  0.0665 -0.0631
 6490TIP3    H240886   4.372   5.867  14.207 -0.4313 -0.6167  1.9014
 6491TIP3   OH240887   4.261   5.903  11.891  0.2110 -0.1419 -0.0313
 6491TIP3    H140888   4.303   5.989  11.890 -0.5425  0.3760  3.1540
 6491TIP3    H240889   4.168   5.921  11.899  0.0116 -1.2587  0.3695
 6492TIP3   OH240890   4.380   4.205  11.214 -0.1616 -0.6395  0.2913
 6492TIP3    H140891   4.433   4.230  11.138 -0.3182  1.8295  0.9236
 6492TIP3    H240892   4.318   4.141  11.179  0.6325 -0.5734 -1.3546
 6493TIP3   OH240893   3.296   1.512   1.946  0.4910 -0.2862  0.4523
 6493TIP3    H140894   3.364   1.542   1.886 -1.6808  1.2537 -1.4422
 6493TIP3    H240895   3.285   1.419   1.926  0.2838  0.0507 -1.0949
 6494TIP3   OH240896   3.255   0.161   0.926  0.9322 -0.1214 -0.4201
 6494TIP3    H140897   3.348   0.183   0.926  0.5883  1.6841  1.6544
 6494TIP3    H240898   3.228   0.168   0.835  3.2516 -3.0305 -1.4768
 6495TIP3   OH240899   0.142   1.413  14.922  0.1077 -0.3711  0.4694
 6495TIP3    H140900   0.210   1.476  14.946 -0.7646  0.9998 -0.5432
 6495TIP3    H240901   0.074   1.426  14.988  0.8742 -1.9311  1.6452
 6496TIP3   OH240902   6.159   3.386   4.937 -0.2927  0.0187  0.2662
 6496TIP3    H140903   6.199   3.373   5.023  0.4196  1.5241  0.1877
 6496TIP3    H240904   6.229   3.367   4.875 -0.7177 -0.7477  0.0027
 6497TIP3   OH240905   0.720   3.351   1.035 -0.9964  0.3710 -0.1773
 6497TIP3    H140906   0.711   3.261   1.003  0.7174  0.6846 -1.7555
 6497TIP3    H240907   0.695   3.405   0.960  1.0431  1.1577 -0.3597
 6498TIP3   OH240908   1.218   5.351  15.124 -0.6086  0.3446  0.7348
 6498TIP3    H140909   1.183   5.301  15.199  1.2830  0.6073  1.8497
 6498TIP3    H240910   1.274   5.289  15.079 -2.8822 -0.2903 -1.4644
 6499TIP3   OH240911   2.933   6.066  12.655 -0.0268  0.3512  0.4109
 6499TIP3    H140912   3.006   6.030  12.604  1.0094  0.6725  1.6099
 6499TIP3    H240913   2.889   6.127  12.595  0.7081  0.1771 -0.3209
 6500TIP3   OH240914   0.015   0.998  13.871 -0.4344  0.6743  0.1047
 6500TIP3    H140915   0.089   1.058  13.874 -0.7089  1.1901 -1.9830
 6500TIP3    H240916   0.054   0.912  13.858 -0.1754  0.7877  0.1216
 6501TIP3   OH240917   0.332   0.321   4.336  0.4243 -0.2532 -0.0934
 6501TIP3    H140918   0.425   0.324   4.313  0.6820 -3.3358  0.0805
 6501TIP3    H240919   0.330   0.344   4.429  1.3057 -1.6881  0.3241
 6502TIP3   OH240920   3.035   4.988   5.810  0.2634 -0.2296 -0.0956
 6502TIP3    H140921   3.040   4.895   5.787 -1.3165 -0.2118 -0.6212
 6502TIP3    H240922   3.114   5.004   5.863 -0.7326 -2.5288  2.3156
 6503TIP3   OH240923   3.566   1.081  11.473  0.7094 -0.1105 -0.0897
 6503TIP3    H140924   3.475   1.107  11.483  1.2303  1.3330  1.2477
 6503TIP3    H240925   3.563   0.986  11.464 -0.9394 -0.0556 -0.3441
 6504TIP3   OH240926   2.791   5.019  12.622  0.5073 -0.0148 -0.2884
 6504TIP3    H140927   2.884   5.042  12.616  1.1456 -2.3693 -0.3229
 6504TIP3    H240928   2.785   4.958  12.695 -1.2752  1.1063  0.5654
 6505TIP3   OH240929   0.185   0.242   5.754  0.2577  0.3372  0.3734
 6505TIP3    H140930   0.113   0.299   5.780  1.4547  2.6862 -1.0881
 6505TIP3    H240931   0.204   0.267   5.664  0.2260 -3.1579 -0.7786
 6506TIP3   OH240932   2.574   4.354  17.392  0.9453  0.3358  0.0151
 6506TIP3    H140933   2.559   4.266  17.428  0.3303  0.2902 -0.3388
 6506TIP3    H240934   2.494   4.374  17.344 -0.1142  2.1985  2.3173
 6507TIP3   OH240935   5.769   2.328   5.057  0.2383 -0.0142  0.1783
 6507TIP3    H140936   5.693   2.285   5.095  0.5524  0.4163  1.3555
 6507TIP3    H240937   5.823   2.352   5.133 -1.4062  5.3721  0.0823
 6508TIP3   OH240938   6.262   5.098   5.618  0.9089  0.2862 -0.4106
 6508TIP3    H140939   6.170   5.124   5.633  0.3728 -1.5149 -0.3600
 6508TIP3    H240940   6.259   5.046   5.538  1.9688  0.5035 -0.6025
 6509TIP3   OH240941   4.514   4.236  15.063 -0.1994  0.6921 -0.3612
 6509TIP3    H140942   4.603   4.270  15.077  0.1720 -0.0935 -0.7009
 6509TIP3    H240943   4.499   4.247  14.969 -0.3107  0.4902 -0.3681
 6510TIP3   OH240944   0.210   4.341   1.318  0.2529  0.0556 -0.2721
 6510TIP3    H140945   0.258   4.269   1.357  1.3659  0.1516 -1.3959
 6510TIP3    H240946   0.118   4.321   1.335  0.6552  0.2101  2.5029
 6511TIP3   OH240947   0.425   2.989  11.760  0.0768 -0.1692 -0.1703
 6511TIP3    H140948   0.418   2.895  11.777  1.5185 -0.3788 -0.6688
 6511TIP3    H240949   0.334   3.019  11.755 -0.3893 -1.3671  0.8741
 6512TIP3   OH240950   0.857   5.373  12.219  0.0195  0.0508  0.7383
 6512TIP3    H140951   0.818   5.296  12.178  1.2152 -0.2304  0.1036
 6512TIP3    H240952   0.931   5.339  12.269  1.7745  0.9576 -1.1085
 6513TIP3   OH240953   5.436   3.278  12.486 -0.2275  0.0557  0.9986
 6513TIP3    H140954   5.496   3.297  12.559 -1.4842 -0.4580  2.2086
 6513TIP3    H240955   5.349   3.287  12.524 -0.9105 -0.5334 -0.3778
 6514TIP3   OH240956   1.579   4.429  11.816  0.4157 -0.4619  0.4491
 6514TIP3    H140957   1.658   4.413  11.766 -0.7348  0.4534 -1.8155
 6514TIP3    H240958   1.599   4.507  11.868  1.3169 -0.8349  0.6720
 6515TIP3   OH240959   3.877   5.197   5.005  0.2579  0.4589 -0.2314
 6515TIP3    H140960   3.873   5.224   5.096  3.3131 -0.4517  0.2747
 6515TIP3    H240961   3.836   5.110   5.004 -0.3409  0.7322  0.1167
 6516TIP3   OH240962   5.952   6.103  15.603 -0.4596 -0.0765 -0.0290
 6516TIP3    H140963   6.028   6.149  15.640 -0.7207  0.4932 -0.1820
 6516TIP3    H240964   5.885   6.171  15.596 -0.8228 -0.4663 -0.3601
 6517TIP3   OH240965   2.165   4.245   2.413  0.2160  0.2871  0.3317
 6517TIP3    H140966   2.122   4.160   2.416  0.7903  0.0302  2.5109
 6517TIP3    H240967   2.224   4.246   2.488  0.4676  2.4826  0.1932
 6518TIP3   OH240968   2.039   4.867   2.251 -0.7614 -0.0522  0.0057
 6518TIP3    H140969   2.068   4.927   2.320  1.4286 -0.7928 -0.1869
 6518TIP3    H240970   2.069   4.907   2.170  1.6023 -1.7213 -0.0692
 6519TIP3   OH240971   3.968   3.325   3.265  0.0212 -0.0566 -0.0389
 6519TIP3    H140972   3.974   3.231   3.249  3.2272 -0.2093  1.3179
 6519TIP3    H240973   3.989   3.366   3.181  1.5152 -0.6345  0.0276
 6520TIP3   OH240974   2.478   0.863  14.473 -0.2948 -0.0948  0.0033
 6520TIP3    H140975   2.528   0.918  14.532 -0.5959  0.9879 -0.7232
 6520TIP3    H240976   2.400   0.838  14.523  0.6495 -1.3077  0.9337
 6521TIP3   OH240977   0.064   1.174  13.296  0.0680  0.2598 -0.1764
 6521TIP3    H140978   0.118   1.230  13.241  0.5699 -0.4192 -0.3864
 6521TIP3    H240979   0.118   1.158  13.374 -0.0501  0.0160 -0.1461
 6522TIP3   OH240980   2.960   4.275  15.385  0.2545  0.1136 -0.0605
 6522TIP3    H140981   2.995   4.237  15.465 -0.4741  1.4266  0.9136
 6522TIP3    H240982   2.896   4.340  15.414 -0.9580 -0.2526 -1.7304
 6523TIP3   OH240983   2.638   3.695   6.002  0.1245 -0.1011  0.3766
 6523TIP3    H140984   2.619   3.720   6.092  2.2251 -0.1204  0.8667
 6523TIP3    H240985   2.718   3.743   5.980 -0.2921 -0.1729 -1.4465
 6524TIP3   OH240986   2.050   1.982  16.884  0.0556 -0.1564  0.1289
 6524TIP3    H140987   2.071   1.946  16.798  1.1634  1.1739 -0.1903
 6524TIP3    H240988   2.028   2.074  16.867  0.3984  0.1537  1.2830
 6525TIP3   OH240989   4.888   2.459   5.293 -0.4452  0.4073 -0.3518
 6525TIP3    H140990   4.832   2.401   5.345  0.1401 -0.2974 -0.4885
 6525TIP3    H240991   4.827   2.519   5.251 -0.8915  1.4618  1.6737
 6526TIP3   OH240992   2.288   5.581  13.078 -0.0947 -0.5024 -0.5116
 6526TIP3    H140993   2.235   5.572  13.157 -1.3728 -0.0022 -1.2852
 6526TIP3    H240994   2.232   5.547  13.007 -0.1795  1.7962 -1.6324
 6527TIP3   OH240995   5.207   3.498   3.666 -0.0421  0.7325 -0.2911
 6527TIP3    H140996   5.142   3.468   3.730 -0.4185  1.6163 -0.2428
 6527TIP3    H240997   5.237   3.418   3.622 -1.6614  0.3698 -0.7953
 6528TIP3   OH240998   4.615   4.105   5.100 -0.3313 -0.1573 -0.3235
 6528TIP3    H140999   4.562   4.135   5.027  0.4074  1.5596 -0.2011
 6528TIP3    H241000   4.699   4.081   5.061 -0.5167 -0.9592 -0.2532
 6529TIP3   OH241001   3.788   3.915   0.773  1.0814 -0.1649  0.1018
 6529TIP3    H141002   3.826   3.864   0.702 -0.1688  0.0171 -0.7377
 6529TIP3    H241003   3.739   3.984   0.729  0.9647  0.4525  1.1712
 6530TIP3   OH241004   0.711   5.071  15.660  0.0376  0.2648  0.4441
 6530TIP3    H141005   0.746   5.135  15.598  1.2570 -0.7089  0.0938
 6530TIP3    H241006   0.629   5.042  15.621  0.5106  0.0849 -0.4335
 6531TIP3   OH241007   4.186   5.794  17.144 -0.1201 -0.0187  0.3089
 6531TIP3    H141008   4.128   5.834  17.208 -0.7826  2.3841 -1.6629
 6531TIP3    H241009   4.130   5.735  17.093 -0.5050  1.0140 -0.4993
 6532TIP3   OH241010   2.500   4.998   1.517  0.2703 -0.5001 -0.8335
 6532TIP3    H141011   2.470   4.949   1.593 -0.9968  2.9707  1.1521
 6532TIP3    H241012   2.593   4.977   1.509  0.4974 -0.8188  1.8817
 6533TIP3   OH241013   3.630   6.176  16.076 -0.3461 -0.3733 -0.1066
 6533TIP3    H141014   3.676   6.222  16.147  0.8296  0.2951 -1.2440
 6533TIP3    H241015   3.637   6.083  16.099  3.3447 -0.5103 -1.0976
 6534TIP3   OH241016   3.557   4.840   0.933  0.0061  0.0390  0.0508
 6534TIP3    H141017   3.600   4.914   0.891  0.6826 -1.0680 -1.2900
 6534TIP3    H241018   3.517   4.877   1.012  0.6990  1.7232 -0.3436
 6535TIP3   OH241019   1.542   4.439   1.817 -0.0958 -0.2082 -0.2583
 6535TIP3    H141020   1.562   4.347   1.799 -0.7785 -0.3899 -0.1179
 6535TIP3    H241021   1.550   4.482   1.731  1.1628 -0.2100 -0.1584
 6536TIP3   OH241022   0.408   4.175   0.920  0.2598 -0.9545  0.3911
 6536TIP3    H141023   0.419   4.238   0.991 -2.9070 -2.0323  2.0802
 6536TIP3    H241024   0.371   4.226   0.849 -0.3230 -0.5043  0.9987
 6537TIP3   OH241025   4.275   2.724  16.008 -0.1861  0.1302  0.1059
 6537TIP3    H141026   4.289   2.703  15.916 -2.4335  0.1840 -0.3097
 6537TIP3    H241027   4.326   2.803  16.023  1.8708 -1.0026 -0.4881
 6538TIP3   OH241028   4.713   0.978   6.517  0.7252 -0.3564  0.1285
 6538TIP3    H141029   4.664   0.901   6.489 -0.1925  0.2238  0.1103
 6538TIP3    H241030   4.804   0.948   6.522  0.3060 -1.6023  0.7024
 6539TIP3   OH241031   2.243   0.158   5.945  0.8262  0.1313 -0.2709
 6539TIP3    H141032   2.246   0.251   5.924 -0.0479  0.3235  0.4170
 6539TIP3    H241033   2.179   0.151   6.016  1.6976 -0.8437  0.4523
 6540TIP3   OH241034   2.605   1.314  12.962 -0.5526  0.0297  0.0809
 6540TIP3    H141035   2.609   1.384  13.028 -0.5944 -2.3686  2.8576
 6540TIP3    H241036   2.685   1.263  12.977 -1.1592 -1.2758 -0.9381
 6541TIP3   OH241037   3.466   1.875  13.306  0.4324  0.8076  0.0225
 6541TIP3    H141038   3.486   1.782  13.311 -0.2671  0.6391 -0.1515
 6541TIP3    H241039   3.370   1.879  13.311  0.4158  1.4634 -0.6173
 6542TIP3   OH241040   6.170   3.069   3.321  0.1540 -0.2436 -0.0609
 6542TIP3    H141041   6.076   3.066   3.302 -0.1730  0.5784  1.2919
 6542TIP3    H241042   6.181   3.015   3.399  0.9306 -0.9068 -0.6127
 6543TIP3   OH241043   2.977   0.685  12.312 -0.1771  0.3622  0.5064
 6543TIP3    H141044   3.066   0.654  12.296 -0.5998 -0.3387 -0.6237
 6543TIP3    H241045   2.936   0.685  12.225 -1.7140 -0.7556  1.1901
 6544TIP3   OH241046   2.000   5.561  12.913 -0.8248 -0.4913 -0.4429
 6544TIP3    H141047   2.040   5.480  12.882 -0.6710  0.0036 -1.5694
 6544TIP3    H241048   1.920   5.571  12.861 -1.7842 -0.8116  0.9090
 6545TIP3   OH241049   6.669   1.385  16.811  0.1993  0.4014 -0.4723
 6545TIP3    H141050   6.585   1.396  16.766  0.5734  1.9888 -0.8535
 6545TIP3    H241051   6.662   1.440  16.889  0.4576 -0.4094  0.1361
 6546TIP3   OH241052   1.864   5.325   3.942  0.1347 -0.0197  0.2197
 6546TIP3    H141053   1.872   5.356   3.852  1.8327 -2.9072 -0.7643
 6546TIP3    H241054   1.829   5.400   3.991  1.1105  2.3077 -2.4212
 6547TIP3   OH241055   6.692   0.057  11.945 -0.3013  0.6671 -0.4476
 6547TIP3    H141056   6.679  -0.011  12.010 -0.9029 -0.2462 -1.4877
 6547TIP3    H241057   6.606   0.100  11.938 -0.9004 -0.6740 -2.1614
 6548TIP3   OH241058   0.084   1.888   4.236  0.9216  0.4180  0.2885
 6548TIP3    H141059   0.158   1.886   4.296  2.1049 -0.0055 -1.1218
 6548TIP3    H241060   0.049   1.977   4.244  1.4036  0.5314  1.1874
 6549TIP3   OH241061   3.985   1.749   6.817 -0.2335  0.0826 -0.1110
 6549TIP3    H141062   3.892   1.763   6.801  0.2135  1.1059 -2.1840
 6549TIP3    H241063   4.021   1.837   6.829  0.7964 -0.1084 -1.5707
 6550TIP3   OH241064   0.980   1.567  12.397  0.4905 -0.4700 -0.5747
 6550TIP3    H141065   0.981   1.507  12.323  0.7209 -1.2969  0.0917
 6550TIP3    H241066   0.987   1.654  12.357 -0.5029 -0.8366 -1.5782
 6551TIP3   OH241067   3.006   4.150  16.078  0.3979 -0.0321 -0.3148
 6551TIP3    H141068   3.023   4.066  16.035 -0.5257 -0.3016 -0.1544
 6551TIP3    H241069   3.084   4.165  16.132 -0.1288 -1.5854  0.9520
 6552TIP3   OH241070   0.203   2.764   4.210  0.0551 -0.6075  0.7813
 6552TIP3    H141071   0.132   2.701   4.204 -1.2754  0.7358  1.7451
 6552TIP3    H241072   0.271   2.729   4.152 -1.7347 -1.4781 -0.9014
 6553TIP3   OH241073   3.687   3.483   1.287 -0.3884 -0.2366  0.1703
 6553TIP3    H141074   3.613   3.460   1.230 -1.9547  1.5788  1.3690
 6553TIP3    H241075   3.660   3.455   1.374  0.4798  0.1970  0.5950
 6554TIP3   OH241076   1.062   0.856   3.119 -0.0533 -0.1716 -0.1977
 6554TIP3    H141077   1.121   0.874   3.191  0.2052  1.7983 -0.8243
 6554TIP3    H241078   0.986   0.814   3.159  0.0415  0.9751  1.2401
 6555TIP3   OH241079   4.988   2.273   4.184 -0.1987  0.3140 -0.5376
 6555TIP3    H141080   4.980   2.179   4.199 -0.3674  0.5036  0.6681
 6555TIP3    H241081   5.047   2.303   4.254 -0.9560  1.2504 -0.2928
 6556TIP3   OH241082   2.913   3.027   1.323  0.2220 -0.2173 -0.1647
 6556TIP3    H141083   2.977   3.098   1.326 -1.3907  1.3055  1.8564
 6556TIP3    H241084   2.909   2.995   1.413 -0.7697 -1.2686 -0.5638
 6557TIP3   OH241085   4.152   6.690   2.564  0.0242 -0.3163  0.1804
 6557TIP3    H141086   4.087   6.620   2.576  0.0263 -0.0119  2.4927
 6557TIP3    H241087   4.234   6.652   2.596 -0.0084  0.7151  1.6202
 6558TIP3   OH241088   4.174   2.029   1.052 -0.3667  0.2900  0.6883
 6558TIP3    H141089   4.105   2.090   1.026  0.5757  0.2505 -2.1479
 6558TIP3    H241090   4.250   2.084   1.067 -0.3628  0.0961  1.4255
 6559TIP3   OH241091   2.624   0.063   5.506 -0.2953 -0.2141 -0.5328
 6559TIP3    H141092   2.641   0.140   5.561 -0.5063 -0.3428 -0.2869
 6559TIP3    H241093   2.529   0.059   5.500 -0.2831 -0.4495 -0.5553
 6560TIP3   OH241094   4.709   3.214  13.969 -0.2653  0.6319  0.0442
 6560TIP3    H141095   4.687   3.160  13.892 -1.9949  2.5293 -0.8664
 6560TIP3    H241096   4.804   3.224  13.963 -0.2613  0.0835 -1.4115
 6561TIP3   OH241097   5.207   2.282   6.667  0.0047 -0.3296 -0.2984
 6561TIP3    H141098   5.265   2.293   6.742 -0.7746 -0.0556  0.2785
 6561TIP3    H241099   5.160   2.365   6.660 -0.3056 -0.5379 -0.7683
 6562TIP3   OH241100   4.253   6.304  13.648 -0.0952  0.3830  0.4492
 6562TIP3    H141101   4.274   6.232  13.708 -0.9142  0.7191  1.1557
 6562TIP3    H241102   4.167   6.335  13.676 -0.2013  0.9835 -0.4890
 6563TIP3   OH241103   2.054   0.256   5.729  0.0591 -0.1242 -0.7899
 6563TIP3    H141104   2.025   0.273   5.639 -1.4965 -0.0287 -0.2960
 6563TIP3    H241105   2.054   0.343   5.771  0.0091 -0.2691 -0.4859
 6564TIP3   OH241106   5.175   0.616   0.282 -0.0294 -0.7197 -0.0763
 6564TIP3    H141107   5.225   0.559   0.223  0.1655 -1.6240  0.9449
 6564TIP3    H241108   5.218   0.701   0.273  1.0514 -1.2341 -0.0105
 6565TIP3   OH241109   2.904   1.389   4.721 -0.9518 -0.6526 -0.1575
 6565TIP3    H141110   2.995   1.380   4.694 -1.0790  1.9791 -1.7609
 6565TIP3    H241111   2.904   1.369   4.815  1.4788  0.3918  0.1267
 6566TIP3   OH241112   3.401   3.711   5.425  0.4338  0.1260 -0.4660
 6566TIP3    H141113   3.354   3.632   5.451 -0.0271  0.6628  0.3846
 6566TIP3    H241114   3.446   3.687   5.344 -1.2642 -0.4373 -1.2914
 6567TIP3   OH241115   3.119   0.593   4.062  0.1909 -0.4558  0.2459
 6567TIP3    H141116   3.203   0.607   4.105 -0.1875  1.2725  0.5179
 6567TIP3    H241117   3.127   0.638   3.978  0.3896 -2.4851 -0.8624
 6568TIP3   OH241118   3.198   0.174   0.231  0.5259 -0.0393  0.4444
 6568TIP3    H141119   3.195   0.087   0.192  3.5309 -0.2265  0.3860
 6568TIP3    H241120   3.161   0.232   0.165 -1.6235 -1.2234  0.5309
 6569TIP3   OH241121   2.980   2.477   2.283  0.2438  0.1355 -0.2319
 6569TIP3    H141122   3.063   2.430   2.272  0.0032 -0.3726  0.1158
 6569TIP3    H241123   3.002   2.568   2.262  1.0506  0.1269  0.4883
 6570TIP3   OH241124   5.166   1.328  15.830 -0.1566  0.0044  0.9213
 6570TIP3    H141125   5.096   1.393  15.828 -1.2134 -1.0428  2.1271
 6570TIP3    H241126   5.170   1.294  15.740  0.5035  1.7723  0.2386
 6571TIP3   OH241127   2.465   3.994  10.938  0.2049  0.3466 -0.1263
 6571TIP3    H141128   2.395   4.026  10.995  0.3904 -0.1890  0.4170
 6571TIP3    H241129   2.453   4.042  10.856 -0.7838  0.2771 -0.0348
 6572TIP3   OH241130   6.581   0.837   5.280 -0.1908 -0.4519  0.9983
 6572TIP3    H141131   6.517   0.766   5.288 -0.4493 -0.2050  1.1637
 6572TIP3    H241132   6.574   0.865   5.189  1.0038 -1.6419  0.5014
 6573TIP3   OH241133   0.928   3.696   6.803 -0.2311 -0.0863 -0.2009
 6573TIP3    H141134   0.895   3.640   6.733 -1.7649  1.1197 -0.4979
 6573TIP3    H241135   0.894   3.783   6.783  3.1065  1.3328 -0.4746
 6574TIP3   OH241136   4.619   2.840   5.558 -0.0953 -0.7364  0.3111
 6574TIP3    H141137   4.637   2.903   5.628  1.7826 -0.8147 -0.0721
 6574TIP3    H241138   4.674   2.765   5.578 -0.8251 -1.4739 -0.3404
 6575TIP3   OH241139   0.916   2.091  10.938  0.7548 -0.4468  0.0997
 6575TIP3    H141140   0.864   2.082  11.018  1.0698  2.1398  0.6702
 6575TIP3    H241141   0.947   2.181  10.939  2.7007 -1.0007 -1.8066
 6576TIP3   OH241142   0.700   4.745  17.302  0.4324  0.0896  0.0069
 6576TIP3    H141143   0.723   4.744  17.395  1.4639  0.4303 -0.2287
 6576TIP3    H241144   0.755   4.677  17.263 -0.4625 -0.5002 -0.2663
 6577TIP3   OH241145   6.009   5.908   3.078 -0.6554  0.5070  0.0180
 6577TIP3    H141146   5.932   5.856   3.102 -2.0819  1.5971 -1.9434
 6577TIP3    H241147   6.063   5.849   3.026  0.1087 -0.3901  1.7455
 6578TIP3   OH241148   0.512   5.906  13.282 -0.1441 -0.2740 -0.0622
 6578TIP3    H141149   0.528   5.989  13.237  1.0698 -0.4338  0.0663
 6578TIP3    H241150   0.437   5.924  13.339 -1.6726 -0.0271 -2.0108
 6579TIP3   OH241151   1.720   3.983   5.358  0.2387  0.1887  0.0854
 6579TIP3    H141152   1.761   3.906   5.320  0.4624  0.6583 -0.6551
 6579TIP3    H241153   1.781   4.012   5.425  0.1688 -0.2600  0.3443
 6580TIP3   OH241154   2.452   5.117  12.198 -0.1885  0.6682  0.2633
 6580TIP3    H141155   2.458   5.023  12.177  1.4386  1.0291 -1.1997
 6580TIP3    H241156   2.465   5.160  12.114  1.1482  2.2195  1.2189
 6581TIP3   OH241157   1.108   5.511   3.969  0.3196  0.0101  0.0303
 6581TIP3    H141158   1.044   5.461   4.020 -3.0464  3.0887 -0.7657
 6581TIP3    H241159   1.079   5.500   3.878  1.9803  0.1958 -0.5469
 6582TIP3   OH241160   2.002   5.091   3.931  0.4022  0.3800 -0.1106
 6582TIP3    H141161   1.916   5.053   3.913 -0.2287  0.5286  2.2348
 6582TIP3    H241162   1.983   5.181   3.958  0.9584 -0.3225  2.9716
 6583TIP3   OH241163   1.748   5.334  12.376  0.2468 -1.0046 -0.2412
 6583TIP3    H141164   1.692   5.364  12.305  0.2881 -2.9320 -1.1464
 6583TIP3    H241165   1.688   5.311  12.446  0.1892  0.6388  0.2852
 6584TIP3   OH241166   6.453   2.506   4.011 -0.6751 -0.5265 -0.0239
 6584TIP3    H141167   6.423   2.558   3.936 -1.8862  0.3197  0.9962
 6584TIP3    H241168   6.373   2.486   4.060 -0.0286 -1.9656  0.5027
 6585TIP3   OH241169   4.830   5.677   1.274  0.1071  0.5004 -0.1271
 6585TIP3    H141170   4.886   5.726   1.214  0.9338  0.6926  0.7715
 6585TIP3    H241171   4.741   5.701   1.248  0.4606  1.2481 -0.7135
 6586TIP3   OH241172   3.145   0.872   1.464 -0.0933 -0.0156 -0.0339
 6586TIP3    H141173   3.194   0.793   1.439  0.5694  0.3122  0.1984
 6586TIP3    H241174   3.098   0.896   1.384  0.8369  0.1671 -0.5551
 6587TIP3   OH241175   2.100   6.223  15.539 -0.2809 -0.5193 -0.4939
 6587TIP3    H141176   2.020   6.268  15.567  0.3710  1.0503 -1.0619
 6587TIP3    H241177   2.127   6.270  15.460  1.5428 -0.6357  0.0284
 6588TIP3   OH241178   2.666   2.813   3.912 -0.0286  0.1646 -0.5926
 6588TIP3    H141179   2.676   2.728   3.870 -2.9372  0.9452 -3.2422
 6588TIP3    H241180   2.576   2.814   3.943 -0.0796  2.2557 -0.6392
 6589TIP3   OH241181   0.288   1.555  13.524 -0.3140 -0.6220  0.0544
 6589TIP3    H141182   0.367   1.567  13.472 -0.1793 -1.4558  0.0542
 6589TIP3    H241183   0.285   1.632  13.582 -0.7523  0.5944 -1.5106
 6590TIP3   OH241184   6.482   6.476  14.592  0.2302 -0.2861  0.6107
 6590TIP3    H141185   6.438   6.557  14.620 -0.2348 -0.6303  0.9055
 6590TIP3    H241186   6.411   6.413  14.584  0.6180 -0.7224  0.5957
 6591TIP3   OH241187   5.792   1.043   5.263  0.1373  0.0263  0.3094
 6591TIP3    H141188   5.783   1.120   5.207  0.5801  1.4349  2.0777
 6591TIP3    H241189   5.715   0.990   5.244  0.5793  0.1428 -2.0254
 6592TIP3   OH241190   4.833   1.333  15.936  0.1970  0.8532  0.0318
 6592TIP3    H141191   4.861   1.259  15.882 -1.9388  0.5761 -0.7790
 6592TIP3    H241192   4.833   1.299  16.025  0.2266  0.1852 -0.2171
 6593TIP3   OH241193   0.960   5.557   0.941 -0.1041 -0.2099  0.1614
 6593TIP3    H141194   0.948   5.508   1.023 -0.6694  0.3722  0.4418
 6593TIP3    H241195   0.880   5.541   0.891 -0.2377  0.3096  0.2002
 6594TIP3   OH241196   4.414   1.577  16.949 -0.5490  0.1514  0.2288
 6594TIP3    H141197   4.404   1.614  17.036 -0.8026  1.2841 -0.2574
 6594TIP3    H241198   4.508   1.562  16.940 -0.3096  1.4959  0.1530
 6595TIP3   OH241199   3.063   0.338  13.952 -0.0206 -0.0946 -0.3629
 6595TIP3    H141200   2.977   0.380  13.948 -1.1501 -2.2184  0.1814
 6595TIP3    H241201   3.083   0.332  14.046  0.4961 -0.0896 -0.4656
 6596TIP3   OH241202   4.740   4.502  15.285 -0.0142  0.1776  0.2399
 6596TIP3    H141203   4.746   4.418  15.238 -0.1791 -0.4370  1.2697
 6596TIP3    H241204   4.716   4.566  15.218  3.7199  0.1550 -1.3615
 6597TIP3   OH241205   6.124   5.417   1.246  0.3546  0.0344  0.3044
 6597TIP3    H141206   6.219   5.411   1.261  0.2520  1.8626  2.2049
 6597TIP3    H241207   6.086   5.350   1.303  0.4630 -0.3441 -0.0621
 6598TIP3   OH241208   0.564   3.257   4.591  0.3330  0.4540 -0.1011
 6598TIP3    H141209   0.560   3.333   4.533 -0.8107  0.2456 -0.3256
 6598TIP3    H241210   0.500   3.276   4.660  1.9967  0.9160  1.4166
 6599TIP3   OH241211   6.125   5.195   6.390 -0.4526  0.5525 -0.9126
 6599TIP3    H141212   6.135   5.105   6.424  1.0273  0.3845 -1.6955
 6599TIP3    H241213   6.145   5.251   6.465  0.1675  0.2104 -0.8178
 6600TIP3   OH241214   0.021   6.137   1.460  0.3576  0.2786  0.3620
 6600TIP3    H141215   0.101   6.149   1.410  0.4320  1.1710  0.6805
 6600TIP3    H241216   0.034   6.189   1.540 -0.4778  0.3278  0.4783
 6601TIP3   OH241217   3.062   4.813   0.282 -0.1092  0.2445  0.3575
 6601TIP3    H141218   3.077   4.874   0.210 -0.9865  0.5976  0.4613
 6601TIP3    H241219   3.083   4.727   0.246  2.5919  0.6998  0.6338
 6602TIP3   OH241220   3.388   0.340  17.229  0.5362  0.3307  0.2525
 6602TIP3    H141221   3.402   0.246  17.223 -0.2536  0.2333 -0.1613
 6602TIP3    H241222   3.296   0.350  17.253  0.0166  1.0092 -1.7967
 6603TIP3   OH241223   4.385   5.872  11.628  0.5854 -0.1624  0.0905
 6603TIP3    H141224   4.399   5.794  11.573  1.4898  0.8803 -1.2240
 6603TIP3    H241225   4.425   5.849  11.712  0.8436 -1.1246 -0.2724
 6604TIP3   OH241226   3.472   1.649   1.083 -0.0192  0.5163  0.1435
 6604TIP3    H141227   3.378   1.630   1.089  0.4440 -2.5225 -0.3746
 6604TIP3    H241228   3.505   1.586   1.019  2.2917  1.9462 -0.1734
 6605TIP3   OH241229   4.528   2.334  11.028  0.9106  0.7308  0.4965
 6605TIP3    H141230   4.548   2.252  10.984 -3.7370 -0.3948 -0.0670
 6605TIP3    H241231   4.571   2.401  10.975 -1.3795 -0.8440 -3.8832
 6606TIP3   OH241232   1.342   3.147   6.078 -0.9478  0.2580  0.2591
 6606TIP3    H141233   1.308   3.147   6.167 -0.3213  0.8431  0.5065
 6606TIP3    H241234   1.288   3.083   6.032 -0.1869 -1.3178  1.4631
 6607TIP3   OH241235   0.521   2.800  12.276 -0.3643 -0.8473  0.1371
 6607TIP3    H141236   0.487   2.764  12.358 -0.4294  0.9604  0.9726
 6607TIP3    H241237   0.614   2.817  12.294 -0.5853  0.4160  0.1961
 6608TIP3   OH241238   5.602   5.859  11.938 -0.4492 -0.1129  0.4175
 6608TIP3    H141239   5.624   5.951  11.946 -1.3599  0.0559  1.2313
 6608TIP3    H241240   5.522   5.849  11.991  0.0236 -1.4905  0.9167
 6609TIP3   OH241241   5.262   5.348  14.636 -0.2711  0.0513  0.3879
 6609TIP3    H141242   5.335   5.405  14.660 -0.6708 -0.0099  1.8657
 6609TIP3    H241243   5.291   5.305  14.555  1.5791 -0.3940  1.2120
 6610TIP3   OH241244   1.324   2.279   3.952  0.1170  0.4861 -0.8354
 6610TIP3    H141245   1.353   2.288   4.043  1.0771  0.8684 -1.1629
 6610TIP3    H241246   1.311   2.369   3.922 -0.0157  0.3689 -1.1319
 6611TIP3   OH241247   3.226   1.958   1.145 -0.2140  0.0075 -0.4994
 6611TIP3    H141248   3.288   2.030   1.157 -1.2247  0.8770 -0.3173
 6611TIP3    H241249   3.194   1.938   1.233  2.6162 -3.1129  0.0022
 6612TIP3   OH241250   0.865   4.632   3.244  0.4600 -0.4957 -0.0864
 6612TIP3    H141251   0.876   4.559   3.184 -0.7317 -1.7175  1.1051
 6612TIP3    H241252   0.940   4.626   3.303  1.4710  0.5289 -1.1969
 6613TIP3   OH241253   0.879   6.730  11.463  0.4280  0.3675 -0.0970
 6613TIP3    H141254   0.943   6.686  11.520  0.1530 -0.2673 -0.2692
 6613TIP3    H241255   0.903   6.823  11.468  1.8154  0.0720 -0.7303
 6614TIP3   OH241256   5.291   5.899  14.635  0.3648 -0.0996  0.1597
 6614TIP3    H141257   5.269   5.891  14.728 -0.0392  0.4924  0.1230
 6614TIP3    H241258   5.333   5.985  14.627 -0.6667  0.3727 -0.3929
 6615TIP3   OH241259   0.069   4.288  14.996  0.4254  0.1147 -0.2275
 6615TIP3    H141260   0.091   4.355  15.060 -1.4802  0.7593 -0.1773
 6615TIP3    H241261   0.131   4.302  14.924  0.1706  1.8595 -0.1566
 6616TIP3   OH241262   0.537   0.770   3.560 -0.5894 -0.1211  0.6947
 6616TIP3    H141263   0.584   0.746   3.640  3.4647 -0.2528 -1.4642
 6616TIP3    H241264   0.517   0.863   3.571  1.2968  0.2571  1.3098
 6617TIP3   OH241265   1.053   0.499  17.097  0.0707  0.0529  0.2530
 6617TIP3    H141266   1.056   0.459  17.010  0.2927 -0.5835  0.5406
 6617TIP3    H241267   1.108   0.577  17.089 -1.3633  1.0303 -0.6580
 6618TIP3   OH241268   2.670   2.118  15.873 -0.4962  0.7147 -0.0371
 6618TIP3    H141269   2.749   2.094  15.823 -0.6071  0.0113  0.1166
 6618TIP3    H241270   2.680   2.212  15.889 -0.6098  1.0287 -1.6516
 6619TIP3   OH241271   6.733   0.473  11.862  0.2480 -0.3151 -0.2969
 6619TIP3    H141272   6.811   0.527  11.851  0.2943 -0.4695 -0.7559
 6619TIP3    H241273   6.710   0.481  11.955 -0.6241  1.6990 -0.6493
 6620TIP3   OH241274   3.850   5.376  14.272 -0.8948 -0.5884 -0.6003
 6620TIP3    H141275   3.940   5.360  14.300 -0.4034 -0.3840 -2.0021
 6620TIP3    H241276   3.844   5.471  14.263 -0.8967 -0.6774 -1.6152
 6621TIP3   OH241277   2.562   0.884   1.084 -0.1395  0.6105 -0.8387
 6621TIP3    H141278   2.638   0.942   1.082 -0.1851  0.8799  1.6913
 6621TIP3    H241279   2.564   0.840   1.000  0.6986  3.2415 -2.3275
 6622TIP3   OH241280   4.294   6.646  15.613  0.1967  0.5090  0.4478
 6622TIP3    H141281   4.372   6.659  15.668 -0.8431  1.6315  1.7351
 6622TIP3    H241282   4.244   6.579  15.660  0.4485 -0.3695 -0.4923
 6623TIP3   OH241283   5.367   2.619  15.833 -0.3210 -0.7172 -0.3150
 6623TIP3    H141284   5.300   2.614  15.765  1.2973 -0.4817 -2.0292
 6623TIP3    H241285   5.401   2.530  15.840 -1.3445 -1.0236  1.1704
 6624TIP3   OH241286   5.889   1.896   0.173 -0.1636 -0.1777 -0.0832
 6624TIP3    H141287   5.916   1.984   0.199  1.3340 -0.0642 -1.8283
 6624TIP3    H241288   5.795   1.893   0.195 -0.0486  1.4965  0.8676
 6625TIP3   OH241289   5.008   3.478  12.120  0.1260  0.5546  0.3670
 6625TIP3    H141290   5.004   3.512  12.030  0.3929 -0.0042  0.1417
 6625TIP3    H241291   5.098   3.495  12.148  0.1340  0.4303  0.4152
 6626TIP3   OH241292   0.255   2.141  14.094  0.4727 -0.0854 -0.2168
 6626TIP3    H141293   0.283   2.225  14.057 -0.0601 -0.0898 -0.6326
 6626TIP3    H241294   0.171   2.160  14.135 -0.4266 -0.7583 -1.6907
 6627TIP3   OH241295   0.909   3.061   4.078 -0.0583  0.4364  0.2429
 6627TIP3    H141296   0.816   3.044   4.063  0.1440 -0.1402 -0.4236
 6627TIP3    H241297   0.953   3.023   4.002  0.6502  1.5620  0.0741
 6628TIP3   OH241298   0.436   3.148  14.768 -0.2075 -0.5365  0.0041
 6628TIP3    H141299   0.362   3.103  14.806 -1.4238  1.3006 -0.0456
 6628TIP3    H241300   0.406   3.238  14.756  2.2082  0.4290  0.5141
 6629TIP3   OH241301   5.643   0.495   6.197  0.7440  0.2210  0.0001
 6629TIP3    H141302   5.618   0.516   6.107  1.8143  1.4039 -0.0584
 6629TIP3    H241303   5.587   0.551   6.251  1.5073  1.0452 -0.0349
 6630TIP3   OH241304   5.431   3.944  16.597 -0.7269  0.2278 -0.4297
 6630TIP3    H141305   5.363   4.000  16.559 -0.8702  0.0177 -0.4863
 6630TIP3    H241306   5.513   3.978  16.561 -0.8014  0.4991 -0.3369
 6631TIP3   OH241307   5.702   4.300   5.849 -0.3908  0.7112  0.2237
 6631TIP3    H141308   5.650   4.304   5.929 -1.1042  0.1977 -0.1973
 6631TIP3    H241309   5.656   4.236   5.794  1.9133 -1.5402  0.7057
 6632TIP3   OH241310   1.141   3.412   5.926 -0.1410  0.1855  0.0804
 6632TIP3    H141311   1.233   3.401   5.951 -0.8735  0.4572  3.3599
 6632TIP3    H241312   1.094   3.346   5.977 -1.7534 -0.4345 -2.0731
 6633TIP3   OH241313   0.209   4.473   1.850  0.6158 -0.3914  0.7804
 6633TIP3    H141314   0.150   4.534   1.805  1.1845 -0.0373  0.5071
 6633TIP3    H241315   0.234   4.518   1.930  1.2371 -0.1491  0.4578
 6634TIP3   OH241316   6.581   4.169  16.455 -0.2413 -0.0624  0.7455
 6634TIP3    H141317   6.667   4.141  16.423 -0.7375 -0.4235 -0.3054
 6634TIP3    H241318   6.555   4.239  16.396 -2.4111 -2.5811 -1.5761
 6635TIP3   OH241319   6.101   2.551  16.492 -0.2184  0.2120  0.5797
 6635TIP3    H141320   6.175   2.609  16.480 -0.4859  0.2092 -1.2505
 6635TIP3    H241321   6.038   2.577  16.425 -1.9126  0.2332  2.0927
 6636TIP3   OH241322   2.975   2.117   1.691  0.1792 -0.0415 -0.6296
 6636TIP3    H141323   3.001   2.129   1.600  1.6479 -0.9846 -0.3700
 6636TIP3    H241324   2.970   2.022   1.702 -2.8063  0.0210 -0.4399
 6637TIP3   OH241325   4.051   2.630   2.005  0.1054  0.2358  0.6620
 6637TIP3    H141326   4.133   2.582   1.996  0.6654  1.4514 -1.4588
 6637TIP3    H241327   4.066   2.712   1.957 -1.8885  1.1073  1.4256
 6638TIP3   OH241328   3.310   2.606  16.166  0.3823  0.5369  0.0279
 6638TIP3    H141329   3.350   2.538  16.112 -0.1322  0.4641 -0.2759
 6638TIP3    H241330   3.233   2.634  16.115 -0.3371  0.1872  0.8908
 6639TIP3   OH241331   2.187   0.358  15.057 -0.3800  0.1555  0.0676
 6639TIP3    H141332   2.258   0.302  15.088 -1.5282 -1.5104 -0.1470
 6639TIP3    H241333   2.168   0.416  15.131  0.2531 -0.3368  0.6347
 6640TIP3   OH241334   3.110   5.579   1.884  0.5435 -0.2059  0.0375
 6640TIP3    H141335   3.041   5.559   1.821  0.9565 -2.0107  0.0979
 6640TIP3    H241336   3.183   5.522   1.859  1.3571  0.3288  1.0840
 6641TIP3   OH241337   3.601   2.210   4.606  0.2204  0.2737  0.0692
 6641TIP3    H141338   3.691   2.217   4.638  1.1564  0.7777 -2.4189
 6641TIP3    H241339   3.561   2.294   4.629 -0.2871 -0.6638  2.8793
 6642TIP3   OH241340   5.321   5.628   2.339  0.1078 -0.1019 -0.5028
 6642TIP3    H141341   5.337   5.550   2.286  1.0600 -1.2091  1.3516
 6642TIP3    H241342   5.310   5.698   2.274 -0.5090 -1.6944 -2.2010
 6643TIP3   OH241343   0.357   6.459   0.025 -0.3285 -0.8098  0.4159
 6643TIP3    H141344   0.345   6.364   0.032 -1.4633 -0.7320 -0.2103
 6643TIP3    H241345   0.433   6.470  -0.031 -1.0472 -1.3663 -0.7126
 6644TIP3   OH241346   6.317   0.935   5.719 -0.6159  0.1576  0.4638
 6644TIP3    H141347   6.290   0.895   5.636  0.5647  0.0766  0.1094
 6644TIP3    H241348   6.267   0.887   5.785 -1.1485 -0.1580 -0.1469
 6645TIP3   OH241349   0.742   6.220  16.845  0.8116  0.2316 -0.5349
 6645TIP3    H141350   0.838   6.213  16.844  0.7794 -0.2177 -1.0180
 6645TIP3    H241351   0.712   6.129  16.848  0.3969  0.3124 -1.6445
 6646TIP3   OH241352   2.772   1.950   6.191 -0.2968  0.1867  0.3387
 6646TIP3    H141353   2.721   1.998   6.256  1.1935  1.4002  0.6638
 6646TIP3    H241354   2.838   2.012   6.160 -0.3595 -0.6560 -1.6605
 6647TIP3   OH241355   6.274   0.795  15.846  0.3383  0.6560 -0.5253
 6647TIP3    H141356   6.318   0.711  15.862 -0.0160  0.4961 -0.3926
 6647TIP3    H241357   6.346   0.857  15.832  0.7012  0.9110  2.0711
 6648TIP3   OH241358   5.936   1.985  11.279  0.3330  0.3580 -0.2990
 6648TIP3    H141359   6.005   1.918  11.275  0.8622  0.9324 -1.3748
 6648TIP3    H241360   5.939   2.016  11.369 -1.3299 -2.4616  0.8571
 6649TIP3   OH241361   0.238   1.838  14.787 -0.3886 -0.0700 -0.8045
 6649TIP3    H141362   0.180   1.796  14.851 -0.3605  0.0295 -0.7139
 6649TIP3    H241363   0.185   1.844  14.708 -1.3527  2.2305 -0.0568
 6650TIP3   OH241364   5.915   0.922   3.532 -0.2262  0.4992 -0.4878
 6650TIP3    H141365   5.886   0.907   3.622  0.7093 -0.7337 -0.3750
 6650TIP3    H241366   5.981   0.991   3.539  0.2428  0.0239 -0.1453
 6651TIP3   OH241367   2.837   2.965   5.630  0.4882  0.2886 -0.2186
 6651TIP3    H141368   2.804   3.032   5.570  0.0364  0.4457  0.1982
 6651TIP3    H241369   2.919   3.001   5.663 -0.9380  1.8225  1.9212
 6652TIP3   OH241370   0.651   1.488   2.496 -0.9507  0.2785  0.0506
 6652TIP3    H141371   0.620   1.564   2.544  0.5708  1.0089 -0.0686
 6652TIP3    H241372   0.690   1.431   2.562 -0.7511  0.2941 -0.0532
 6653TIP3   OH241373   6.667   4.694   5.922  0.4995  0.1701  0.7496
 6653TIP3    H141374   6.702   4.763   5.977 -0.1954  1.5035 -0.4178
 6653TIP3    H241375   6.712   4.704   5.838 -1.4445  0.9248 -0.2677
 6654TIP3   OH241376   3.278   0.101   0.463 -0.4912  0.6359 -0.2377
 6654TIP3    H141377   3.250   0.123   0.374  1.2461 -1.6088 -1.4309
 6654TIP3    H241378   3.240   0.015   0.479  0.2311  0.4844  0.7342
 6655TIP3   OH241379   5.551   5.611   2.499 -0.7395 -0.1457 -0.0756
 6655TIP3    H141380   5.476   5.640   2.448 -0.5151 -0.4325 -0.5800
 6655TIP3    H241381   5.513   5.577   2.580 -1.2750 -1.3664 -0.7969
 6656TIP3   OH241382   5.474   0.884  14.085  0.2392  0.1434  0.2440
 6656TIP3    H141383   5.552   0.859  14.035  0.9342  0.1459  1.2984
 6656TIP3    H241384   5.401   0.869  14.024  1.0010 -0.4549 -0.5506
 6657TIP3   OH241385   2.388   6.091  17.266 -0.0590  0.2569 -0.1020
 6657TIP3    H141386   2.350   6.004  17.269  1.0654 -0.2513 -0.0586
 6657TIP3    H241387   2.317   6.148  17.235 -1.4323 -0.3116  1.8229
 6658TIP3   OH241388   5.840   1.432   2.323 -0.3319 -0.0379 -0.1100
 6658TIP3    H141389   5.902   1.447   2.251  0.3229  1.3117  0.6876
 6658TIP3    H241390   5.808   1.343   2.309  1.4300 -0.6130 -0.8169
 6659TIP3   OH241391   5.035   2.480   3.432 -0.0907 -0.3352 -0.0926
 6659TIP3    H141392   5.130   2.477   3.419 -0.0339 -0.8981  0.3659
 6659TIP3    H241393   5.017   2.404   3.487 -0.2856  1.8647  3.1390
 6660TIP3   OH241394   2.775   3.737   0.170  0.2781 -0.1359 -0.6568
 6660TIP3    H141395   2.703   3.678   0.193 -0.9966  2.3761  2.6291
 6660TIP3    H241396   2.827   3.745   0.251  2.3122  0.7549 -1.9526
 6661TIP3   OH241397   6.697   5.133   1.199  0.4700  0.2636  0.1046
 6661TIP3    H141398   6.701   5.081   1.279 -1.3676 -0.1142 -0.0097
 6661TIP3    H241399   6.770   5.102   1.146  0.7769 -0.5692  0.9959
 6662TIP3   OH241400   3.882   0.420  13.372 -0.2363  0.1781 -0.0523
 6662TIP3    H141401   3.822   0.412  13.298 -1.7160 -1.1053  1.1941
 6662TIP3    H241402   3.887   0.514  13.388 -0.5039  0.4223 -1.2929
 6663TIP3   OH241403   1.239   6.389   2.677 -0.0157  0.1960  0.3715
 6663TIP3    H141404   1.185   6.462   2.647  2.0009  1.0414 -1.4275
 6663TIP3    H241405   1.210   6.315   2.624  0.2297  0.5233 -0.2286
 6664TIP3   OH241406   3.259   4.253   2.791 -0.4479  0.3034  0.5119
 6664TIP3    H141407   3.204   4.190   2.745 -0.3789 -0.9237  2.0259
 6664TIP3    H241408   3.304   4.302   2.722  0.0773 -1.8430 -0.7290
 6665TIP3   OH241409   1.022   0.196  11.495  0.5081 -0.7307  0.2152
 6665TIP3    H141410   0.971   0.223  11.573 -0.6012 -0.3500 -0.6076
 6665TIP3    H241411   1.069   0.276  11.469  0.6148 -0.7667  0.2976
 6666TIP3   OH241412   2.722   2.176  13.356 -0.0643  0.1143 -0.2272
 6666TIP3    H141413   2.804   2.225  13.356  0.2849 -0.4522 -0.7455
 6666TIP3    H241414   2.749   2.085  13.348 -0.6909 -0.1996  0.9465
 6667TIP3   OH241415   2.573   5.159   0.345 -0.3838 -0.0783  0.8065
 6667TIP3    H141416   2.479   5.167   0.358 -0.6900 -0.0470 -1.0679
 6667TIP3    H241417   2.608   5.245   0.366 -0.9764  0.3247  0.1914
 6668TIP3   OH241418   1.980   3.522  14.818 -0.1005 -0.7234  0.2755
 6668TIP3    H141419   1.947   3.524  14.728  1.5140  0.6571 -0.3352
 6668TIP3    H241420   2.070   3.492  14.810  0.3765  0.3777  1.3016
 6669TIP3   OH241421   1.226   0.099   3.689  0.2972  0.2176 -0.3996
 6669TIP3    H141422   1.170   0.172   3.667  0.1791  0.4745  0.6857
 6669TIP3    H241423   1.181   0.054   3.760  1.8445  0.9524  1.1197
 6670TIP3   OH241424   4.816   6.523  15.341 -0.8691 -0.0581  0.1644
 6670TIP3    H141425   4.755   6.451  15.353  1.1696 -1.8799  0.2500
 6670TIP3    H241426   4.868   6.498  15.265 -1.5925  2.4955 -1.3038
 6671TIP3   OH241427   5.856   0.629   0.448  0.4727  0.3493 -0.3365
 6671TIP3    H141428   5.862   0.534   0.457 -0.8720  0.1645 -1.1215
 6671TIP3    H241429   5.831   0.661   0.535  0.6127 -0.0353 -0.1544
 6672TIP3   OH241430   4.908   4.421   0.900 -0.3579  0.0782 -0.1543
 6672TIP3    H141431   4.874   4.333   0.917 -2.1748  0.7472 -0.1628
 6672TIP3    H241432   4.921   4.458   0.988  0.4724 -0.2022 -0.1496
 6673TIP3   OH241433   0.343   1.307   3.747  0.3632 -0.0121 -0.0384
 6673TIP3    H141434   0.328   1.399   3.769  1.3637  0.0993  0.2627
 6673TIP3    H241435   0.419   1.283   3.799  0.0066 -1.0650  0.0087
 6674TIP3   OH241436   5.204   6.527   2.483 -0.4762  0.2735 -0.1848
 6674TIP3    H141437   5.131   6.579   2.450 -0.9154 -0.0628  0.2335
 6674TIP3    H241438   5.281   6.582   2.471 -0.7675  0.5415 -0.8469
 6675TIP3   OH241439   2.816   6.464  11.747  0.7996 -0.3371 -0.1342
 6675TIP3    H141440   2.905   6.440  11.772  0.2905 -1.4569  0.7068
 6675TIP3    H241441   2.769   6.469  11.830 -0.3249 -1.4839 -0.6760
 6676TIP3   OH241442   3.253   0.685   5.097  0.9622  0.1663  0.3449
 6676TIP3    H141443   3.274   0.747   5.167 -1.6998  1.1363  0.3823
 6676TIP3    H241444   3.229   0.604   5.142 -2.7591  1.3690  0.8765
 6677TIP3   OH241445   5.999   6.303   4.962 -0.0664 -0.2169 -0.1939
 6677TIP3    H141446   6.063   6.366   4.930  1.4565 -2.2096 -1.3642
 6677TIP3    H241447   5.976   6.251   4.885 -1.6308 -0.7924  0.6153
 6678TIP3   OH241448   0.555   6.670   2.673  0.2284  0.2731  0.4215
 6678TIP3    H141449   0.512   6.673   2.759  2.2777  0.8219  1.4890
 6678TIP3    H241450   0.488   6.699   2.612 -1.3074 -0.1593  1.8247
 6679TIP3   OH241451   5.488   5.808  11.191 -0.2181 -0.0951  0.4165
 6679TIP3    H141452   5.565   5.848  11.232 -0.5803 -0.0343  1.0466
 6679TIP3    H241453   5.488   5.718  11.224 -0.3758 -0.1181  0.3508
 6680TIP3   OH241454   4.938   2.562   1.871 -0.3923  0.3349 -0.8649
 6680TIP3    H141455   4.984   2.535   1.951  0.3085  0.8088 -1.0964
 6680TIP3    H241456   5.006   2.562   1.803 -0.4713  2.0674 -1.0018
 6681TIP3   OH241457   6.142   3.009   4.982  0.0862  0.5098  0.3663
 6681TIP3    H141458   6.166   3.036   5.071  0.0743  1.9818 -0.0524
 6681TIP3    H241459   6.089   3.081   4.948 -0.6999 -0.4527 -0.5168
 6682TIP3   OH241460   1.363   4.118   6.559 -0.2436 -0.4976  0.2259
 6682TIP3    H141461   1.341   4.202   6.520 -0.8439 -0.0965  1.3955
 6682TIP3    H241462   1.281   4.085   6.594  0.4835 -0.2277  2.2833
 6683TIP3   OH241463   1.022   6.424  13.035 -0.2028 -0.2233  0.0280
 6683TIP3    H141464   0.957   6.485  13.072 -0.8583 -2.0721  2.1097
 6683TIP3    H241465   1.104   6.474  13.034 -0.7627  0.7909  1.4232
 6684TIP3   OH241466   5.943   5.329   0.623  0.4905 -0.4068  0.5693
 6684TIP3    H141467   5.967   5.394   0.689  0.5354 -0.4595  0.6042
 6684TIP3    H241468   5.847   5.329   0.624  0.4898 -0.1928  0.4243
 6685TIP3   OH241469   1.821   1.965  12.979  0.6265  0.2721 -0.0128
 6685TIP3    H141470   1.901   1.932  13.021  1.3714  1.1083 -0.7310
 6685TIP3    H241471   1.852   2.006  12.898 -0.7531 -1.3115 -1.4350
 6686TIP3   OH241472   6.315   3.813   3.020  0.2626 -0.7012 -0.0587
 6686TIP3    H141473   6.221   3.799   3.030 -0.0818  0.8331 -0.8704
 6686TIP3    H241474   6.329   3.903   3.048  1.4537 -0.8223 -0.2105
 6687TIP3   OH241475   0.143   0.243  16.206  0.1291  0.2858  0.1091
 6687TIP3    H141476   0.194   0.255  16.126  0.3916 -0.5153  0.1450
 6687TIP3    H241477   0.063   0.294  16.191 -0.3716 -0.8201 -1.1752
 6688TIP3   OH241478   4.779   2.183   4.824 -0.1643  0.9399  0.3681
 6688TIP3    H141479   4.852   2.154   4.877  0.3775  2.6734  0.6184
 6688TIP3    H241480   4.819   2.217   4.744 -0.7655  0.9683  0.0721
 6689TIP3   OH241481   5.481   3.188  15.592 -0.6705  0.1596 -1.2781
 6689TIP3    H141482   5.546   3.220  15.655  0.1380 -0.2802 -1.8577
 6689TIP3    H241483   5.398   3.189  15.639 -0.1063 -0.0324 -0.2492
 6690TIP3   OH241484   1.797   4.329   4.923  0.2285  0.3360  0.3564
 6690TIP3    H141485   1.747   4.372   4.854 -1.0416 -2.7412 -0.8415
 6690TIP3    H241486   1.754   4.354   5.004 -0.4185  1.3017 -0.2654
 6691TIP3   OH241487   3.869   0.697  12.345  0.4067 -0.9071 -0.3950
 6691TIP3    H141488   3.791   0.713  12.399  1.3885 -0.3718  0.9035
 6691TIP3    H241489   3.938   0.676  12.407  1.5273 -0.4937 -1.4606
 6692TIP3   OH241490   3.049   5.277  12.057 -0.0681 -0.3364  0.5609
 6692TIP3    H141491   3.112   5.246  12.121  2.0342 -0.6600 -1.5133
 6692TIP3    H241492   3.066   5.371  12.050  0.1620 -0.4115  0.0440
 6693TIP3   OH241493   4.807   0.824   4.559  0.1017 -0.4225 -0.6269
 6693TIP3    H141494   4.755   0.759   4.512 -1.4147 -0.4585  0.9945
 6693TIP3    H241495   4.765   0.908   4.539 -0.1838 -0.3723  0.1525
 6694TIP3   OH241496   2.357   4.853   2.348 -0.4088 -0.6474 -0.1929
 6694TIP3    H141497   2.331   4.800   2.273  1.6230  0.3782 -1.7123
 6694TIP3    H241498   2.414   4.796   2.400 -0.2971 -0.7700 -0.4483
 6695TIP3   OH241499   2.900   3.415   4.312  0.4078 -0.3746  0.2443
 6695TIP3    H141500   2.905   3.434   4.218  0.5593 -0.5204  0.2221
 6695TIP3    H241501   2.815   3.372   4.323  0.3354 -0.2441  0.1940
 6696TIP3   OH241502   6.137   4.422   6.100 -0.2975  0.8019  0.1754
 6696TIP3    H141503   6.150   4.466   6.016 -0.4132  2.6153  1.0510
 6696TIP3    H241504   6.042   4.417   6.110 -0.3047 -0.7455 -0.4291
 6697TIP3   OH241505   0.342   0.489   0.395  0.0163  0.3893 -0.1138
 6697TIP3    H141506   0.351   0.544   0.317 -0.0078  1.8129  0.8508
 6697TIP3    H241507   0.384   0.406   0.371  2.9407  1.8704 -0.5907
 6698TIP3   OH241508   1.076   2.837   4.691  0.0468  0.6853  0.4782
 6698TIP3    H141509   1.153   2.878   4.652 -1.0180  1.6285 -0.7584
 6698TIP3    H241510   1.009   2.905   4.687 -1.4808 -0.7992 -0.6209
 6699TIP3   OH241511   0.760   1.980  14.043  0.3698 -0.4018  0.1112
 6699TIP3    H141512   0.761   1.913  14.111  2.1300 -1.6647 -1.0438
 6699TIP3    H241513   0.847   1.974  14.002  0.2365  1.9355 -0.6956
 6700TIP3   OH241514   4.957   5.886  12.512  0.5082 -0.3024 -0.3400
 6700TIP3    H141515   5.037   5.907  12.465  0.8851 -2.0173 -0.5311
 6700TIP3    H241516   4.986   5.867  12.602  0.0078  1.3069  0.1872
 6701TIP3   OH241517   5.140   1.448  16.595  0.2960  1.0125  0.2450
 6701TIP3    H141518   5.216   1.417  16.645  1.1992 -0.1509 -1.7272
 6701TIP3    H241519   5.141   1.396  16.515 -2.1162  1.5748 -0.2361
 6702TIP3   OH241520   2.088   6.399   3.459 -0.2771 -0.4885 -0.4507
 6702TIP3    H141521   2.003   6.442   3.462  0.0616  0.1335  0.9480
 6702TIP3    H241522   2.094   6.350   3.540  0.9800  0.0499 -0.1820
 6703TIP3   OH241523   0.855   4.069   5.316  0.3175 -0.3599  0.5252
 6703TIP3    H141524   0.804   4.101   5.390 -0.3826 -0.6787  0.1842
 6703TIP3    H241525   0.795   4.070   5.242  1.4912  1.6657 -0.4956
 6704TIP3   OH241526   2.958   5.543   5.223  0.0204 -0.3571  0.0102
 6704TIP3    H141527   3.019   5.542   5.297 -1.9726 -2.8043  1.7945
 6704TIP3    H241528   2.889   5.603   5.250 -0.1496 -0.3656 -0.3970
 6705TIP3   OH241529   3.520   0.262   1.613 -0.1395 -0.1290  0.4887
 6705TIP3    H141530   3.463   0.211   1.669 -0.2759 -0.0665  0.4081
 6705TIP3    H241531   3.595   0.286   1.668  0.5416 -1.4688  0.1869
 6706TIP3   OH241532   2.650   5.446   3.264 -0.7062 -0.7136 -0.4519
 6706TIP3    H141533   2.600   5.429   3.184  0.6057  1.1098 -1.7513
 6706TIP3    H241534   2.634   5.539   3.282  1.2190 -0.3867 -0.2258
 6707TIP3   OH241535   3.015   4.758  15.180 -0.0290 -0.1741  0.6845
 6707TIP3    H141536   3.016   4.678  15.234 -1.0717 -0.8062 -0.1813
 6707TIP3    H241537   3.103   4.794  15.188  0.4614 -1.4093  1.1004
 6708TIP3   OH241538   5.229   0.905   1.267 -0.2672  0.0762  0.0071
 6708TIP3    H141539   5.199   0.931   1.180  0.0938  0.2225 -0.0765
 6708TIP3    H241540   5.250   0.812   1.258  0.8852  0.3461 -0.3876
 6709TIP3   OH241541   5.419   0.704   1.482  0.6695  0.1177 -0.0891
 6709TIP3    H141542   5.374   0.786   1.502 -1.0425 -0.5761 -0.8511
 6709TIP3    H241543   5.499   0.730   1.438  0.1682  1.3769 -0.2875
 6710TIP3   OH241544   4.228   4.921  11.593 -0.0389  0.3874 -0.1297
 6710TIP3    H141545   4.277   4.964  11.522 -1.7717  1.0063 -1.0217
 6710TIP3    H241546   4.137   4.940  11.573 -0.9935 -3.6163 -0.5586
 6711TIP3   OH241547   4.885   1.690   0.652 -0.9085  0.9586  0.2563
 6711TIP3    H141548   4.846   1.668   0.736  2.1842  1.4155  1.9358
 6711TIP3    H241549   4.956   1.627   0.640  0.5244  2.6216 -0.5780
 6712TIP3   OH241550   0.369   4.249   3.961  0.1842  0.2825 -0.1562
 6712TIP3    H141551   0.275   4.266   3.957 -0.1604 -1.1048  1.1652
 6712TIP3    H241552   0.381   4.170   3.909  0.5292  0.1675  0.0962
 6713TIP3   OH241553   0.243   1.357   1.261  0.1989 -0.2019  0.1580
 6713TIP3    H141554   0.187   1.286   1.295  0.5232  0.2877  1.8318
 6713TIP3    H241555   0.185   1.432   1.255  0.3079 -0.0992  0.3653
 6714TIP3   OH241556   0.428   0.322  10.808  0.1627 -0.1002  0.3388
 6714TIP3    H141557   0.441   0.259  10.878  0.1352 -0.5112 -0.0178
 6714TIP3    H241558   0.475   0.284  10.733  1.1106  0.8486  0.4178
 6715TIP3   OH241559   5.883   0.158   1.273  0.4311  0.3588  0.1513
 6715TIP3    H141560   5.793   0.187   1.262  0.2518 -0.7750 -1.9487
 6715TIP3    H241561   5.936   0.235   1.255 -0.1095  0.5452 -0.6960
 6716TIP3   OH241562   3.073   4.238  15.633 -0.3258  0.0553 -0.7342
 6716TIP3    H141563   3.032   4.293  15.700  0.2095  0.5340 -0.7843
 6716TIP3    H241564   3.144   4.193  15.679  0.0303  0.3698 -0.9652
 6717TIP3   OH241565   3.424   1.175   0.697  0.5057  0.4709  0.0713
 6717TIP3    H141566   3.338   1.142   0.722  0.7949  0.9308  1.7746
 6717TIP3    H241567   3.454   1.225   0.773  1.2047  2.4440 -1.3995
 6718TIP3   OH241568   6.489   2.544  11.095  0.1634 -0.4434 -0.1857
 6718TIP3    H141569   6.414   2.567  11.150  0.6974  1.1357 -0.0635
 6718TIP3    H241570   6.521   2.628  11.062  0.3348 -1.2778 -2.3060
 6719TIP3   OH241571   0.832   3.134   2.494  0.4348  0.3357  0.3450
 6719TIP3    H141572   0.844   3.143   2.589 -0.3179 -0.5902  0.5396
 6719TIP3    H241573   0.866   3.047   2.473  0.5766  0.5252 -0.2361
 6720TIP3   OH241574   4.973   0.998  12.742 -0.0691  0.5287  0.0373
 6720TIP3    H141575   5.009   1.038  12.663  0.1204 -0.2207 -0.2597
 6720TIP3    H241576   4.935   0.915  12.713 -0.4267  0.4653  0.6530
 6721TIP3   OH241577   5.660   6.123  12.700  0.4021 -0.0408 -0.1666
 6721TIP3    H141578   5.688   6.097  12.612 -0.2710 -1.0850 -0.0961
 6721TIP3    H241579   5.741   6.143  12.746  0.8792 -0.8374 -0.6246
 6722TIP3   OH241580   1.248   1.791   3.025  0.5849 -0.5081  1.0595
 6722TIP3    H141581   1.230   1.783   3.119  1.5880 -0.3374  1.2697
 6722TIP3    H241582   1.289   1.708   3.001  0.5229 -0.4690  0.8146
 6723TIP3   OH241583   3.149   1.941   6.190 -0.1741 -0.4732 -0.4729
 6723TIP3    H141584   3.183   1.990   6.115  0.1268  0.0364 -0.0120
 6723TIP3    H241585   3.201   1.972   6.264 -0.4178 -1.0267 -0.0657
 6724TIP3   OH241586   2.318   2.161  12.613  0.5073 -0.7347 -0.4736
 6724TIP3    H141587   2.327   2.083  12.559 -0.0680  0.1391 -1.8960
 6724TIP3    H241588   2.409   2.184  12.637  0.7827 -1.0895 -1.1592
 6725TIP3   OH241589   0.012   5.276  17.292  0.0772 -0.5920  0.5615
 6725TIP3    H141590   0.098   5.268  17.250  1.1105 -0.7049  2.5907
 6725TIP3    H241591   0.001   5.370  17.304 -1.0848 -0.4029 -1.5709
 6726TIP3   OH241592   4.160   6.713  17.384 -0.4893 -0.0416  0.2125
 6726TIP3    H141593   4.200   6.800  17.378 -1.4148  0.2910 -1.9408
 6726TIP3    H241594   4.176   6.673  17.298 -1.3786 -1.4205  0.6570
 6727TIP3   OH241595   1.852   3.718   2.044  0.1566 -0.1487  0.5154
 6727TIP3    H141596   1.789   3.652   2.013  0.7149 -0.4605  0.0244
 6727TIP3    H241597   1.932   3.700   1.994  0.2506  1.0416  0.2158
 6728TIP3   OH241598   0.727   3.893  13.007  1.3489  0.0428 -0.4496
 6728TIP3    H141599   0.808   3.844  13.019  1.3925  0.0641 -0.6637
 6728TIP3    H241600   0.660   3.826  12.993  1.4974  0.0613 -1.2825
 6729TIP3   OH241601   2.038   5.087  13.717  0.4498 -0.4685 -0.0187
 6729TIP3    H141602   1.961   5.061  13.767  0.2833 -0.7531 -0.4172
 6729TIP3    H241603   2.112   5.061  13.771  0.2658  0.0358  0.4807
 6730TIP3   OH241604   4.645   1.609   0.250 -0.0684  0.2499  0.3622
 6730TIP3    H141605   4.634   1.704   0.255 -0.9597  0.1833 -0.0367
 6730TIP3    H241606   4.566   1.574   0.292 -1.0700 -0.2950 -1.8190
 6731TIP3   OH241607   1.219   3.023   0.140 -0.5413 -0.2731 -0.2873
 6731TIP3    H141608   1.313   3.001   0.145  0.0353  2.1185  0.4954
 6731TIP3    H241609   1.183   2.993   0.223 -0.0644  0.4387  0.1845
 6732TIP3   OH241610   0.726   4.614   2.221 -0.9699 -0.1512 -0.5261
 6732TIP3    H141611   0.706   4.552   2.291 -0.7520  2.0427  1.6101
 6732TIP3    H241612   0.646   4.666   2.210 -0.0843  1.4541  0.2585
 6733TIP3   OH241613   2.346   6.702  12.635  0.4561 -0.7277 -0.1492
 6733TIP3    H141614   2.399   6.628  12.665  0.5138  0.1482  2.0757
 6733TIP3    H241615   2.410   6.768  12.607  0.4405 -0.9676 -0.7579
 6734TIP3   OH241616   5.408   6.528   6.048  0.6787  0.0581  0.4314
 6734TIP3    H141617   5.481   6.523   6.109  3.0277  1.9198 -1.9993
 6734TIP3    H241618   5.356   6.603   6.078  1.7854  0.9306  0.2214
 6735TIP3   OH241619   1.790   0.395  12.188 -0.0492  0.4309  0.1875
 6735TIP3    H141620   1.799   0.432  12.100 -2.7659  0.6112 -0.0978
 6735TIP3    H241621   1.842   0.454  12.244  1.6798  0.3383 -1.2295
 6736TIP3   OH241622   6.496   4.805  11.692 -0.0460  0.1403  0.1252
 6736TIP3    H141623   6.556   4.844  11.756  1.1025 -1.7428  0.2884
 6736TIP3    H241624   6.423   4.866  11.686  0.0354  0.6281  2.8726
 6737TIP3   OH241625   3.524   2.731  11.890 -0.1573  0.0441  0.3312
 6737TIP3    H141626   3.486   2.806  11.934  2.1388  0.8430  1.1263
 6737TIP3    H241627   3.568   2.682  11.960 -0.5941 -1.3831 -0.3590
 6738TIP3   OH241628   1.475   1.401   0.166 -0.4735 -0.2851 -0.8272
 6738TIP3    H141629   1.381   1.402   0.184 -0.3645 -1.4911 -0.0547
 6738TIP3    H241630   1.512   1.457   0.234 -0.6449  0.3865 -1.2783
 6739TIP3   OH241631   3.224   0.626   4.757  0.4647 -0.4414  0.3588
 6739TIP3    H141632   3.273   0.616   4.675 -0.0685 -0.0161 -0.0187
 6739TIP3    H241633   3.221   0.720   4.771 -1.5562 -0.3379 -0.4480
 6740TIP3   OH241634   0.500   1.822   0.701  0.0281  0.0814  0.5276
 6740TIP3    H141635   0.424   1.767   0.714  0.5608 -0.7799  0.0660
 6740TIP3    H241636   0.466   1.912   0.708 -1.9086 -0.0708 -3.6775
 6741TIP3   OH241637   4.863   2.193  11.066 -0.7051  0.2550  0.2713
 6741TIP3    H141638   4.825   2.188  10.978 -0.0102 -0.2758 -0.0099
 6741TIP3    H241639   4.870   2.102  11.095  0.9062  0.2811  0.0588
 6742TIP3   OH241640   3.991   5.519  13.529 -0.3609  0.2631  0.3256
 6742TIP3    H141641   3.916   5.473  13.490 -0.6764  1.2820 -0.3179
 6742TIP3    H241642   3.994   5.603  13.483  0.6952  0.5618  0.9063
 6743TIP3   OH241643   0.720   4.816  15.536  0.6624  0.0963 -0.1768
 6743TIP3    H141644   0.744   4.879  15.604  0.8631  0.2232 -0.3639
 6743TIP3    H241645   0.625   4.815  15.536  0.6593  0.4856 -0.2557
 6744TIP3   OH241646   6.139   6.017   5.699 -0.2082  0.3070  0.5150
 6744TIP3    H141647   6.110   6.065   5.620  1.3291  0.3517 -0.0579
 6744TIP3    H241648   6.159   5.929   5.667  0.3594  0.3068  0.8665
 6745TIP3   OH241649   3.577   3.326   1.774  0.4745  0.4432 -0.0941
 6745TIP3    H141650   3.502   3.293   1.823  1.2834 -3.2670 -1.0389
 6745TIP3    H241651   3.606   3.403   1.823 -1.9034  0.0599  2.1332
 6746TIP3   OH241652   2.634   5.985  13.017  0.2050 -0.1788  0.0049
 6746TIP3    H141653   2.617   5.891  13.010  2.4479 -0.5379 -1.9139
 6746TIP3    H241654   2.561   6.026  12.970 -2.6679 -0.5637  3.6205
 6747TIP3   OH241655   5.695   1.935   1.929 -0.0572  0.2211 -0.3986
 6747TIP3    H141656   5.643   1.934   2.009  1.2377  1.4498  0.5292
 6747TIP3    H241657   5.669   1.857   1.881  0.5864 -1.7359  2.1956
 6748TIP3   OH241658   3.325   2.091   0.051  0.0047  0.1592 -0.7738
 6748TIP3    H141659   3.398   2.148   0.074 -0.4331  0.3060  0.3362
 6748TIP3    H241660   3.249   2.150   0.050 -0.5665 -0.4666  1.0406
 6749TIP3   OH241661   4.047   3.801   2.367  0.0206  0.8659 -0.1036
 6749TIP3    H141662   4.024   3.827   2.278 -0.7999 -1.4404 -0.6544
 6749TIP3    H241663   3.983   3.846   2.423 -0.8387  0.6818 -0.9145
 6750TIP3   OH241664   3.609   6.181   2.441  0.6276 -0.0487 -0.6088
 6750TIP3    H141665   3.659   6.221   2.370  1.4000 -0.7316 -0.4679
 6750TIP3    H241666   3.674   6.166   2.510  0.7053 -2.8675 -1.2060
 6751TIP3   OH241667   4.389   3.629  16.376 -0.7313 -0.2551  0.8092
 6751TIP3    H141668   4.303   3.645  16.416 -1.1582 -1.0772  0.2307
 6751TIP3    H241669   4.407   3.537  16.393 -1.5224 -1.0091 -1.9609
 6752TIP3   OH241670   1.762   2.231   1.160  0.7550 -0.2596  0.4665
 6752TIP3    H141671   1.822   2.160   1.137  1.9593  0.8932 -0.0675
 6752TIP3    H241672   1.817   2.293   1.209 -0.0609  0.7117  0.1727
 6753TIP3   OH241673   1.445   3.561  12.348  0.1736  0.3168  0.3178
 6753TIP3    H141674   1.447   3.466  12.349  2.0589  0.3326  0.0930
 6753TIP3    H241675   1.529   3.588  12.384 -0.6935  1.9261  1.2819
 6754TIP3   OH241676   5.274   3.063  13.484 -0.0150  0.0390 -0.0139
 6754TIP3    H141677   5.322   3.010  13.420  0.5130 -0.9985  1.1954
 6754TIP3    H241678   5.343   3.104  13.537 -0.4465  0.8535 -0.0734
 6755TIP3   OH241679   0.328   0.576   3.492  0.1099  0.8703  0.4744
 6755TIP3    H141680   0.294   0.542   3.574 -0.7316  1.0050  0.1887
 6755TIP3    H241681   0.408   0.624   3.517  0.1076  0.5279  1.1444
 6756TIP3   OH241682   6.309   5.036   1.099  0.3114 -0.7596 -0.7144
 6756TIP3    H141683   6.363   4.994   1.167 -0.4741 -2.1761 -0.9198
 6756TIP3    H241684   6.236   4.975   1.086 -3.2709  2.4927  1.9168
 6757TIP3   OH241685   0.746   2.938  10.983  0.1610 -0.7949 -0.3747
 6757TIP3    H141686   0.678   2.994  10.947 -0.2674 -1.3956 -0.5199
 6757TIP3    H241687   0.719   2.922  11.074  2.4284  2.6414  1.1156
 6758TIP3   OH241688   5.474   1.175   2.037  0.1557 -0.0938  0.0260
 6758TIP3    H141689   5.505   1.124   2.112 -0.2966  0.1394  0.3819
 6758TIP3    H241690   5.552   1.219   2.003  0.4159 -0.4361  0.1774
 6759TIP3   OH241691   6.687   2.378  12.676  0.1972 -0.4505  0.1026
 6759TIP3    H141692   6.682   2.474  12.670  0.4590 -0.5418 -2.3898
 6759TIP3    H241693   6.595   2.350  12.678  0.1193 -0.1870  0.7328
 6760TIP3   OH241694   1.664   6.538  11.672  0.3222 -0.0724  0.4948
 6760TIP3    H141695   1.678   6.477  11.600 -0.8519 -0.5257  0.6203
 6760TIP3    H241696   1.626   6.485  11.742 -0.6315  0.7608  0.6416
 6761TIP3   OH241697   6.287   6.045   4.560  0.1451 -0.1605  0.4083
 6761TIP3    H141698   6.216   5.994   4.522 -0.0072  1.6811 -2.0017
 6761TIP3    H241699   6.245   6.101   4.624 -0.0057 -1.4727  1.4964
 6762TIP3   OH241700   1.801   3.956   0.610 -0.1724 -0.1885 -0.0559
 6762TIP3    H141701   1.732   4.009   0.650 -1.0418 -1.6202  0.4581
 6762TIP3    H241702   1.882   3.987   0.650 -0.6132  0.9309 -0.0011
 6763TIP3   OH241703   5.531   0.106  13.754  0.4081 -0.5621  0.1578
 6763TIP3    H141704   5.606   0.060  13.716  1.5353 -0.0079  1.6419
 6763TIP3    H241705   5.474   0.036  13.785  1.6946 -1.0185  1.6103
 6764TIP3   OH241706   6.584   6.139   5.110  0.0533 -0.1285 -0.3410
 6764TIP3    H141707   6.628   6.221   5.090  0.1961 -0.8149 -3.3543
 6764TIP3    H241708   6.518   6.162   5.175  1.0828  2.0241  0.0354
 6765TIP3   OH241709   3.341   3.324   1.964 -0.0648  0.6705 -0.1660
 6765TIP3    H141710   3.283   3.391   1.928 -0.1477  1.9313  2.1382
 6765TIP3    H241711   3.372   3.361   2.046  0.6380 -1.7590  0.7468
 6766TIP3   OH241712   1.763   2.313  11.244 -0.1118  0.1246 -0.3974
 6766TIP3    H141713   1.721   2.260  11.176 -1.5393  0.0995  0.4549
 6766TIP3    H241714   1.780   2.397  11.202  0.9107 -0.5380 -1.3605
 6767TIP3   OH241715   3.336   1.224  13.999 -0.0011  0.1046 -0.1463
 6767TIP3    H141716   3.429   1.226  14.020 -0.1706  0.3578  0.5835
 6767TIP3    H241717   3.329   1.158  13.929  0.7206  0.0862 -0.2086
 6768TIP3   OH241718   2.170   4.139  15.756 -0.3586 -0.1104  0.0844
 6768TIP3    H141719   2.241   4.168  15.812 -0.6642  2.4578 -0.7162
 6768TIP3    H241720   2.213   4.101  15.679  0.1749  1.2809 -0.3236
 6769TIP3   OH241721   4.347   0.234   6.280  0.6625 -0.3928  0.0017
 6769TIP3    H141722   4.333   0.144   6.307  1.0759 -0.3948  0.2162
 6769TIP3    H241723   4.393   0.275   6.354  0.2003  0.0750  0.0394
 6770TIP3   OH241724   2.578   0.728  12.288 -0.8742  0.3972 -0.2425
 6770TIP3    H141725   2.483   0.722  12.293 -0.8163 -2.2912 -0.6167
 6770TIP3    H241726   2.609   0.662  12.351  0.6178 -1.0586 -2.3510
 6771TIP3   OH241727   6.347   6.747   2.241 -0.3139  0.1806  0.2311
 6771TIP3    H141728   6.425   6.771   2.191 -0.0290  1.0239  1.0623
 6771TIP3    H241729   6.372   6.667   2.287 -0.6814 -0.7795 -1.1902
 6772TIP3   OH241730   0.016   0.937   1.520  0.7025 -0.2004 -0.2390
 6772TIP3    H141731  -0.062   0.891   1.550  0.6660  1.0166  1.6855
 6772TIP3    H241732   0.030   0.905   1.431  0.7993 -4.0490  0.9835
 6773TIP3   OH241733   4.123   5.320  13.018  0.4381 -0.0072 -0.2876
 6773TIP3    H141734   4.107   5.410  12.992 -1.0124  0.2182  1.2181
 6773TIP3    H241735   4.053   5.300  13.080  2.2335 -1.3057  1.4523
 6774TIP3   OH241736   1.233   4.099  11.530  0.4739  0.0611 -0.9221
 6774TIP3    H141737   1.258   4.188  11.504  2.9467 -0.6258 -1.0762
 6774TIP3    H241738   1.272   4.088  11.616  0.3978 -0.9839 -1.0189
 6775TIP3   OH241739   5.584   3.073   0.091  0.1108 -0.1923 -0.0544
 6775TIP3    H141740   5.654   3.010   0.106  1.3913  0.8030 -1.5073
 6775TIP3    H241741   5.586   3.132   0.166 -0.1561 -1.0190  0.6126
 6776TIP3   OH241742   1.095   2.478  11.789  0.2057 -0.2861 -0.0954
 6776TIP3    H141743   1.075   2.565  11.755 -0.3123 -0.1487  0.5445
 6776TIP3    H241744   1.015   2.451  11.834  0.6187 -0.7776  0.3537
 6777TIP3   OH241745   1.121   2.285  14.603  0.0529 -0.1998 -0.3914
 6777TIP3    H141746   1.092   2.207  14.557  0.3436 -0.4340 -0.1824
 6777TIP3    H241747   1.120   2.260  14.696  0.8139 -0.1890 -0.3695
 6778TIP3   OH241748   4.934   3.911  15.389 -0.0068  0.0325  0.4183
 6778TIP3    H141749   4.905   3.842  15.330 -0.3093  1.2567 -0.9063
 6778TIP3    H241750   4.885   3.896  15.470  0.7216 -1.9161  0.5600
 6779TIP3   OH241751   6.640   5.392  15.409  0.2946  0.2179 -0.0798
 6779TIP3    H141752   6.628   5.394  15.314 -1.1742  1.2891  0.1027
 6779TIP3    H241753   6.589   5.317  15.438 -1.5043  1.4443  0.0983
 6780TIP3   OH241754   1.702   3.147   4.515 -0.4649 -0.4843 -0.5135
 6780TIP3    H141755   1.686   3.053   4.520 -1.3732 -0.3249 -0.1614
 6780TIP3    H241756   1.727   3.162   4.424 -1.5634 -0.8970 -0.8998
 6781TIP3   OH241757   6.124   2.392   1.125  0.6611  0.0867 -0.1590
 6781TIP3    H141758   6.192   2.390   1.058  1.6902  1.0673  0.8056
 6781TIP3    H241759   6.054   2.445   1.087  0.4105 -0.9298 -1.1615
 6782TIP3   OH241760   0.673   5.524  14.860 -0.1117 -0.1635  0.0636
 6782TIP3    H141761   0.631   5.608  14.878 -1.2448 -1.1519  2.3505
 6782TIP3    H241762   0.610   5.476  14.805  0.1350  0.1094 -0.4675
 6783TIP3   OH241763   2.851   2.101  12.590 -0.0395 -0.5470 -0.1432
 6783TIP3    H141764   2.803   2.024  12.620  0.2734 -1.6696 -2.3248
 6783TIP3    H241765   2.880   2.079  12.501  3.5547  0.4623  0.5961
 6784TIP3   OH241766   4.806   4.206   1.512  0.4655  0.1766  0.1252
 6784TIP3    H141767   4.847   4.248   1.587  1.4453  1.2363 -0.9720
 6784TIP3    H241768   4.752   4.274   1.473 -1.2022 -0.7742  0.6623
 6785TIP3   OH241769   0.095   4.147  13.767 -0.5088 -0.0967 -0.5686
 6785TIP3    H141770   0.172   4.187  13.808  0.2054 -1.6025 -0.3999
 6785TIP3    H241771   0.100   4.174  13.676 -0.1976  0.4129 -0.4086
 6786TIP3   OH241772   1.114   6.538  15.058  0.2114 -0.3235 -0.0191
 6786TIP3    H141773   1.031   6.574  15.089 -0.2547 -0.3495 -1.1930
 6786TIP3    H241774   1.135   6.469  15.121 -0.8288 -0.5352  0.1213
 6787TIP3   OH241775   0.620   2.214   0.203  0.2829  0.9480  0.6499
 6787TIP3    H141776   0.545   2.273   0.208 -0.4144  0.5185 -2.5349
 6787TIP3    H241777   0.582   2.126   0.206  0.6788  0.7228 -0.3879
 6788TIP3   OH241778   6.667   2.677   4.029  0.3118  0.1947 -0.4363
 6788TIP3    H141779   6.732   2.617   4.065  1.3428 -0.4632 -3.1478
 6788TIP3    H241780   6.583   2.632   4.039  0.6327 -0.1898  0.5716
 6789TIP3   OH241781   6.516   0.961  15.813  0.2620 -0.0518 -0.3870
 6789TIP3    H141782   6.562   0.946  15.730  0.8382 -0.0033 -0.0793
 6789TIP3    H241783   6.567   0.912  15.878  0.4784  0.8404  0.1310
 6790TIP3   OH241784   2.769   4.859  13.931 -0.4880 -0.3360  0.5932
 6790TIP3    H141785   2.846   4.813  13.965 -1.7362 -1.2593  2.3317
 6790TIP3    H241786   2.805   4.930  13.878  1.5507 -0.6612  1.4566
 6791TIP3   OH241787   4.515   2.189  11.370 -1.1027  0.3189  0.7427
 6791TIP3    H141788   4.527   2.117  11.432 -2.7478  0.9938  1.9119
 6791TIP3    H241789   4.436   2.165  11.321 -0.3630  0.2589 -0.4549
 6792TIP3   OH241790   1.253   2.610   4.295  0.3821  0.6675  0.0252
 6792TIP3    H141791   1.325   2.561   4.335  0.3035  2.0468  2.0007
 6792TIP3    H241792   1.295   2.690   4.262 -0.3675  2.2628  2.6400
 6793TIP3   OH241793   6.125   3.729  16.118  0.2714 -0.9198 -0.0846
 6793TIP3    H141794   6.153   3.645  16.155 -0.6200 -0.0928  2.7846
 6793TIP3    H241795   6.113   3.785  16.195 -2.8645  0.7032 -1.5791
 6794TIP3   OH241796   5.356   3.962  15.511  0.0490 -0.2966 -0.6306
 6794TIP3    H141797   5.334   3.917  15.592  0.8363 -0.7215 -0.6425
 6794TIP3    H241798   5.310   4.046  15.516 -1.0937 -0.9127 -0.4173
 6795TIP3   OH241799   2.116   5.269   1.823 -0.4680 -0.6504  0.0621
 6795TIP3    H141800   2.078   5.320   1.894 -1.4382  0.2433 -1.0715
 6795TIP3    H241801   2.187   5.324   1.789 -1.5257 -0.0008 -1.1719
 6796TIP3   OH241802   3.609   5.199  11.626  0.6063 -0.4512  0.3271
 6796TIP3    H141803   3.628   5.106  11.616  1.0157 -0.5925  2.1646
 6796TIP3    H241804   3.543   5.203  11.696 -1.6104  0.4698 -1.6620
 6797TIP3   OH241805   5.862   4.987   2.696  0.3236  0.6013 -0.1719
 6797TIP3    H141806   5.854   5.071   2.651  0.9761  0.7404 -0.0364
 6797TIP3    H241807   5.862   4.922   2.625 -1.0606  0.6297 -0.2358
 6798TIP3   OH241808   3.666   4.074  14.497  0.2437 -0.0521 -0.9542
 6798TIP3    H141809   3.586   4.022  14.489 -0.1910  0.4832 -0.1886
 6798TIP3    H241810   3.643   4.145  14.558  1.0279  0.6336 -1.4316
 6799TIP3   OH241811   1.828   1.214  11.715  0.7305  0.1204 -0.2749
 6799TIP3    H141812   1.826   1.309  11.722 -0.0701  0.1646 -1.0016
 6799TIP3    H241813   1.882   1.196  11.638 -0.7126  0.0694 -1.3083
 6800TIP3   OH241814   3.431   3.490   4.617 -0.1310 -0.5975  0.3982
 6800TIP3    H141815   3.401   3.474   4.528 -1.6804  1.6921  0.4380
 6800TIP3    H241816   3.525   3.502   4.609 -0.2340 -0.5464 -0.9135
 6801TIP3   OH241817   4.375   0.774   1.259 -0.2583 -0.0258 -0.9176
 6801TIP3    H141818   4.434   0.780   1.184  3.5930 -0.3769  1.7960
 6801TIP3    H241819   4.384   0.684   1.291 -1.3046  0.2706  0.3094
 6802TIP3   OH241820   4.148   3.064  16.875  0.4961  0.4080  0.2968
 6802TIP3    H141821   4.229   3.014  16.867  1.6105  2.3479 -1.9236
 6802TIP3    H241822   4.112   3.065  16.786 -0.8993  1.2722  0.8379
 6803TIP3   OH241823   3.562   1.986   2.764 -0.4309  0.6547 -0.0079
 6803TIP3    H141824   3.546   2.035   2.844 -0.9237 -1.2126  1.1027
 6803TIP3    H241825   3.657   1.985   2.755 -0.3886  1.1905  0.3251
 6804TIP3   OH241826   0.135   5.366   2.249  0.3860 -0.3130  0.3048
 6804TIP3    H141827   0.105   5.286   2.206  0.0568 -0.6639  1.1631
 6804TIP3    H241828   0.055   5.404   2.287  0.3339  1.0348 -1.0340
 6805TIP3   OH241829   4.132   5.670  15.549 -0.2469 -0.7263  0.1371
 6805TIP3    H141830   4.224   5.644  15.548 -0.3829 -1.2415  0.7392
 6805TIP3    H241831   4.129   5.745  15.608 -0.0808 -0.1812 -0.5369
 6806TIP3   OH241832   0.660   5.621  16.415  0.0339 -0.8096  0.2207
 6806TIP3    H141833   0.701   5.559  16.355  1.1555  0.7782 -0.7358
 6806TIP3    H241834   0.733   5.673  16.449 -0.9426  0.4564  0.4356
 6807TIP3   OH241835   1.169   2.700   2.053 -0.0423  0.2329 -0.8938
 6807TIP3    H141836   1.144   2.732   2.140 -0.6063 -0.3640 -0.8217
 6807TIP3    H241837   1.263   2.682   2.060  0.2622  1.7558 -0.9176
 6808TIP3   OH241838   6.168   2.127  12.603  0.1628 -0.5330 -0.1103
 6808TIP3    H141839   6.085   2.105  12.560 -0.3798 -0.4198  0.8434
 6808TIP3    H241840   6.221   2.166  12.534 -1.0009  0.4605 -0.4860
 6809TIP3   OH241841   0.300   4.593  15.306 -0.5263  0.4142 -0.2686
 6809TIP3    H141842   0.340   4.597  15.219 -0.6201 -0.2651 -0.3489
 6809TIP3    H241843   0.369   4.556  15.362 -0.3716  1.1025  0.0091
 6810TIP3   OH241844   3.797   5.386   0.177 -0.7350  0.1619  0.2790
 6810TIP3    H141845   3.704   5.406   0.169 -0.9611 -0.4401  1.2228
 6810TIP3    H241846   3.799   5.291   0.192 -0.1098  0.4382  2.1750
 6811TIP3   OH241847   0.699   5.371  10.773 -0.1977 -0.0952 -0.1446
 6811TIP3    H141848   0.672   5.437  10.709  0.2294  0.8947  0.6672
 6811TIP3    H241849   0.709   5.290  10.722 -0.3951  0.5446 -1.2196
 6812TIP3   OH241850   5.966   1.936   4.949  0.0643  1.0678 -0.0201
 6812TIP3    H141851   6.038   1.998   4.955  0.2413  1.0715 -1.6893
 6812TIP3    H241852   5.896   1.974   5.003  1.3156  0.9794  1.7672
 6813TIP3   OH241853   2.564   3.668  14.610 -0.1137 -0.2137  0.0107
 6813TIP3    H141854   2.617   3.710  14.543 -2.2744  0.5324 -1.3600
 6813TIP3    H241855   2.474   3.682  14.581 -1.0627 -2.5525  1.4906
 6814TIP3   OH241856   2.624   4.088   2.970  0.1399  0.0692 -0.2738
 6814TIP3    H141857   2.715   4.067   2.950 -0.2597  0.1142 -2.3300
 6814TIP3    H241858   2.585   4.004   2.995  0.4849 -0.1523 -0.4665
 6815TIP3   OH241859   6.276   4.844   3.756 -0.3552  0.1779  0.0412
 6815TIP3    H141860   6.335   4.866   3.828 -0.5469  2.1452 -0.3280
 6815TIP3    H241861   6.332   4.803   3.691  0.6784  2.0431 -0.3146
 6816TIP3   OH241862   3.024   5.618   2.203  1.0567  0.2063 -0.2518
 6816TIP3    H141863   3.013   5.711   2.224  0.8794  0.1698 -0.1772
 6816TIP3    H241864   2.953   5.599   2.143  0.3874 -0.1557  0.6294
 6817TIP3   OH241865   4.970   0.434   1.132  0.3480  0.4194 -0.7749
 6817TIP3    H141866   5.012   0.388   1.059  0.5236 -0.8431  0.0986
 6817TIP3    H241867   5.000   0.524   1.123  2.6244 -0.2624 -0.6522
 6818TIP3   OH241868   5.521   0.227   2.908  0.2154  0.0020 -0.3885
 6818TIP3    H141869   5.442   0.227   2.963  1.0012  1.5385  0.8130
 6818TIP3    H241870   5.570   0.151   2.938  0.4539  0.6067  0.8239
 6819TIP3   OH241871   4.506   5.111  16.565 -0.1580 -0.5773 -0.1098
 6819TIP3    H141872   4.551   5.070  16.639 -0.5695 -2.0711 -0.6521
 6819TIP3    H241873   4.570   5.107  16.493  0.3225  1.0645  0.1912
 6820TIP3   OH241874   4.687   6.037  13.281  0.3556  0.9942  0.2080
 6820TIP3    H141875   4.747   6.037  13.355 -0.0199  1.0196  0.5124
 6820TIP3    H241876   4.722   6.103  13.221  0.1832  1.5768  0.7462
 6821TIP3   OH241877   4.650   2.439   3.746 -0.6130 -0.4709  0.1562
 6821TIP3    H141878   4.587   2.412   3.813 -0.7619 -1.1349 -0.2370
 6821TIP3    H241879   4.651   2.366   3.685  0.5469 -0.4666  0.1565
 6822TIP3   OH241880   3.004   0.976  17.395  0.3461 -0.5168 -0.2198
 6822TIP3    H141881   2.974   0.913  17.329  0.6817  0.6332 -1.5169
 6822TIP3    H241882   3.097   0.955  17.408  0.4339 -0.3621 -0.5804
 6823TIP3   OH241883   1.034   4.723  15.710 -0.0281 -0.3282  0.7781
 6823TIP3    H141884   0.959   4.672  15.681 -0.3593 -0.5048  1.9038
 6823TIP3    H241885   1.094   4.721  15.635 -1.5458  0.6892 -0.5243
 6824TIP3   OH241886   5.381   1.711  11.797  0.3344 -0.6837  0.3630
 6824TIP3    H141887   5.460   1.669  11.765  0.1142 -1.6764  1.0830
 6824TIP3    H241888   5.309   1.656  11.766 -0.1954  0.8202 -1.2643
 6825TIP3   OH241889   2.992   1.416  11.873  0.1906 -0.3216  0.9476
 6825TIP3    H141890   2.957   1.493  11.918 -0.0900  0.2556 -0.2167
 6825TIP3    H241891   2.935   1.344  11.900 -1.7542  0.5352 -0.6393
 6826TIP3   OH241892   2.897   5.166   1.584 -0.1219  0.1898  0.0339
 6826TIP3    H141893   2.865   5.083   1.619  0.0643 -0.2563 -0.8119
 6826TIP3    H241894   2.966   5.140   1.522 -1.2792  0.8366 -1.6032
 6827TIP3   OH241895   3.090   4.971  12.710 -0.2048 -0.5497 -0.5082
 6827TIP3    H141896   3.046   4.887  12.726 -0.5741  0.1095  2.8752
 6827TIP3    H241897   3.180   4.948  12.691  0.0063 -1.7963  1.6474
 6828TIP3   OH241898   5.320   4.760  17.160  0.0363 -0.2990  0.1850
 6828TIP3    H141899   5.242   4.808  17.132 -0.0945  0.7644  2.1949
 6828TIP3    H241900   5.385   4.828  17.177  0.4142 -0.9294  1.4000
 6829TIP3   OH241901   4.244   1.731  15.466  0.0711  0.2904  0.2472
 6829TIP3    H141902   4.222   1.640  15.483  1.4382 -0.1330 -0.1734
 6829TIP3    H241903   4.255   1.770  15.553  0.5371 -0.2175  0.4192
 6830TIP3   OH241904   0.996   2.102   0.269  0.0415  0.4151  0.2738
 6830TIP3    H141905   1.077   2.122   0.223 -0.5288  0.8440 -0.5647
 6830TIP3    H241906   0.980   2.009   0.251  0.0569  0.4690 -0.0111
 6831TIP3   OH241907   3.341   4.527   1.858 -0.0005  0.5632  0.5162
 6831TIP3    H141908   3.298   4.441   1.854  0.2447  0.4675 -0.1750
 6831TIP3    H241909   3.271   4.590   1.841  0.3678  0.3391 -2.1913
 6832TIP3   OH241910   4.333   4.410  15.151 -0.1469  0.0042  0.0115
 6832TIP3    H141911   4.251   4.371  15.121  0.6056 -1.5253 -0.1104
 6832TIP3    H241912   4.398   4.341  15.142  0.9656  0.8607  1.1082
 6833TIP3   OH241913   5.445   0.456  15.828 -0.0809  0.0416  0.3767
 6833TIP3    H141914   5.397   0.496  15.900 -2.4717 -1.5418 -0.2216
 6833TIP3    H241915   5.508   0.524  15.800  1.1178  0.6301  3.9820
 6834TIP3   OH241916   2.318   0.721   1.110  0.4846 -0.2524 -0.2913
 6834TIP3    H141917   2.398   0.749   1.065  0.4059 -0.0955 -0.3334
 6834TIP3    H241918   2.312   0.779   1.186 -0.0662  0.3310 -0.7668
 6835TIP3   OH241919   0.613   5.813   2.471 -0.1770 -0.2237 -0.3952
 6835TIP3    H141920   0.572   5.734   2.435  0.6618 -0.3982 -0.9848
 6835TIP3    H241921   0.632   5.868   2.395  2.8933 -1.1909 -0.4544
 6836TIP3   OH241922   3.307   6.382  14.864 -0.5339 -0.2845 -0.4693
 6836TIP3    H141923   3.385   6.386  14.809 -1.0666 -0.8980 -1.2893
 6836TIP3    H241924   3.318   6.301  14.914  0.4002  0.7328  1.0607
 6837TIP3   OH241925   3.935   1.643   5.971  0.1581  0.6155 -0.0169
 6837TIP3    H141926   3.949   1.723   6.023 -3.3679  1.2362  0.1917
 6837TIP3    H241927   3.910   1.577   6.036 -0.9139  0.4677 -0.5649
 6838TIP3   OH241928   3.255   3.961  11.986 -0.1381  0.5235 -0.2957
 6838TIP3    H141929   3.315   3.930  11.918 -0.0598 -1.4689  0.6329
 6838TIP3    H241930   3.217   3.881  12.023 -0.6512  1.5923  1.5906
 6839TIP3   OH241931   3.466   1.654   0.780  0.4437 -0.4587 -0.1645
 6839TIP3    H141932   3.410   1.727   0.804  1.6493  0.8685 -1.2543
 6839TIP3    H241933   3.405   1.588   0.745 -1.1151 -1.5679  3.9764
 6840TIP3   OH241934   3.532   6.215  12.856  0.8641 -0.1689 -0.5988
 6840TIP3    H141935   3.570   6.148  12.912 -0.6933  0.0030  0.7282
 6840TIP3    H241936   3.603   6.239  12.795  1.6471 -2.4833 -0.6666
 6841TIP3   OH241937   3.802   4.579  16.314 -0.4356 -0.0394  0.4545
 6841TIP3    H141938   3.870   4.512  16.316 -0.2392 -0.0837 -2.5508
 6841TIP3    H241939   3.849   4.662  16.322 -0.1327 -0.1236 -0.3284
 6842TIP3   OH241940   6.575   6.199  13.300  0.3089  0.0323  0.0213
 6842TIP3    H141941   6.497   6.255  13.303  0.3474  0.0476  1.0763
 6842TIP3    H241942   6.552   6.123  13.353  1.6222  0.8687  1.8911
 6843TIP3   OH241943   0.677   2.953   0.278 -0.4366 -0.6754  0.1051
 6843TIP3    H141944   0.768   2.939   0.305  0.0220  1.3570 -0.2541
 6843TIP3    H241945   0.682   3.023   0.213 -2.3661  0.2404  0.8843
 6844TIP3   OH241946   4.588   2.720   2.860  0.0953  0.1001 -0.2425
 6844TIP3    H141947   4.603   2.782   2.932 -2.2241  0.2114  0.2348
 6844TIP3    H241948   4.674   2.681   2.843  0.8513  0.5670  2.1373
 6845TIP3   OH241949   0.165   3.497   0.600  0.1561  0.2631 -0.3102
 6845TIP3    H141950   0.089   3.542   0.637  1.7817  2.7047  0.3088
 6845TIP3    H241951   0.232   3.501   0.669  1.6166  0.3537 -1.6654
 6846TIP3   OH241952   0.562   3.728   0.034 -0.2905  0.0010 -0.3008
 6846TIP3    H141953   0.645   3.685   0.054  0.0544  0.5309 -0.5466
 6846TIP3    H241954   0.571   3.754  -0.058  0.5133  2.7069  0.4444
 6847TIP3   OH241955   4.455   1.738  11.868  0.6257 -0.9904 -0.6609
 6847TIP3    H141956   4.469   1.645  11.885 -1.3943 -0.8044  3.2473
 6847TIP3    H241957   4.462   1.779  11.954 -5.3554  1.3552 -0.7673
 6848TIP3   OH241958   4.524   6.293  14.827  0.2423 -0.1186 -0.2946
 6848TIP3    H141959   4.519   6.383  14.794  1.6487 -0.1583 -0.7154
 6848TIP3    H241960   4.547   6.303  14.919 -0.4301 -0.0449 -0.1307
 6849TIP3   OH241961   5.375   3.284   3.945  0.3738  0.4776 -0.0801
 6849TIP3    H141962   5.396   3.208   3.999 -0.7776 -0.3167 -0.6954
 6849TIP3    H241963   5.280   3.295   3.954  0.3454  1.0913 -0.9412
 6850TIP3   OH241964   5.102   6.129  15.794  0.0168  0.3060 -0.2513
 6850TIP3    H141965   5.084   6.077  15.716  0.4747 -0.3559  0.0786
 6850TIP3    H241966   5.146   6.207  15.761 -1.3644  0.8889 -0.8338
 6851TIP3   OH241967   6.170   2.557   5.940 -0.0014  0.0791  0.1747
 6851TIP3    H141968   6.213   2.513   6.013 -0.3233  0.5992  0.6790
 6851TIP3    H241969   6.081   2.521   5.941 -0.0731  0.2590  0.1824
 6852TIP3   OH241970   2.193   2.798   5.065  0.1376  0.2318  0.2724
 6852TIP3    H141971   2.156   2.725   5.115 -0.0345  1.1355  1.5314
 6852TIP3    H241972   2.288   2.787   5.074  0.2570 -1.5724 -2.1988
 6853TIP3   OH241973   1.454   4.422   3.146  0.4844  1.0632  0.0142
 6853TIP3    H141974   1.423   4.332   3.131 -1.0674  2.0086 -3.5508
 6853TIP3    H241975   1.550   4.414   3.146  0.4035 -0.7359  1.5915
 6854TIP3   OH241976   2.177   0.563   4.146 -0.3709 -0.3484 -0.4914
 6854TIP3    H141977   2.240   0.633   4.127 -0.6430  0.0959  0.1937
 6854TIP3    H241978   2.224   0.482   4.126  0.6994 -0.0673  0.6925
 6855TIP3   OH241979   1.700   2.844  13.962 -0.5130  0.6825 -0.5791
 6855TIP3    H141980   1.670   2.920  14.011  1.9224  0.4970  1.4715
 6855TIP3    H241981   1.653   2.770  14.001  1.1039  0.5900  1.3820
 6856TIP3   OH241982   4.171   1.861  16.203 -0.1842 -0.0474 -0.1148
 6856TIP3    H141983   4.101   1.916  16.239 -0.3081  0.3205 -0.9031
 6856TIP3    H241984   4.249   1.916  16.206 -0.3273  0.2088 -0.9884
 6857TIP3   OH241985   5.550   5.092   2.111  0.2879 -0.2421  0.4025
 6857TIP3    H141986   5.459   5.095   2.142 -0.4864  1.5761 -1.7728
 6857TIP3    H241987   5.602   5.083   2.191 -1.7100  0.7484  1.9156
 6858TIP3   OH241988   5.813   5.172  15.674  0.0741 -0.4812  0.8723
 6858TIP3    H141989   5.791   5.231  15.746  2.0809 -1.7329  2.6575
 6858TIP3    H241990   5.806   5.085  15.712 -0.9323 -1.3287 -1.1311
 6859TIP3   OH241991   1.073   5.212  15.340 -0.3879 -0.7816 -0.2818
 6859TIP3    H141992   1.095   5.251  15.425  0.6564  1.9010 -1.6784
 6859TIP3    H241993   0.989   5.250  15.317 -0.7422 -1.6260 -0.4075
 6860TIP3   OH241994   3.349   0.926   4.078 -0.4993 -0.0302  0.7494
 6860TIP3    H141995   3.300   0.982   4.018  0.9473  0.5406  0.0588
 6860TIP3    H241996   3.411   0.879   4.023 -0.9916 -1.5847  1.4544
 6861TIP3   OH241997   1.911   1.547  10.697 -0.2435 -0.1699  0.4468
 6861TIP3    H141998   1.859   1.503  10.765  0.2274 -0.3030  0.7244
 6861TIP3    H241999   2.001   1.543  10.729 -0.0941  0.3149  0.1042
 6862TIP3   OH242000   4.446   0.333   1.533  0.3840 -0.1732 -0.2738
 6862TIP3    H142001   4.409   0.405   1.482 -0.4919  0.3803  1.1033
 6862TIP3    H242002   4.511   0.294   1.475  0.3517  1.2629 -1.3249
 6863TIP3   OH242003   0.607   0.397   3.403 -0.0660 -0.1218 -0.3185
 6863TIP3    H142004   0.658   0.374   3.325  0.7408 -0.7220  0.3725
 6863TIP3    H242005   0.592   0.314   3.448 -2.1576 -0.0444 -0.7782
 6864TIP3   OH242006   1.720   1.768   6.923 -0.3936  1.0517  0.3194
 6864TIP3    H142007   1.625   1.774   6.911 -0.6119 -0.4115  1.0816
 6864TIP3    H242008   1.749   1.708   6.854 -0.6076 -1.5216  2.3554
 6865TIP3   OH242009   2.985   2.626  11.728  0.7214 -0.4434  0.1331
 6865TIP3    H142010   2.949   2.674  11.653 -0.5944  1.9068  2.1085
 6865TIP3    H242011   3.074   2.660  11.738 -0.3955  2.3472  1.8878
 6866TIP3   OH242012   4.795   6.359  14.698 -0.4203 -0.4277 -0.6856
 6866TIP3    H142013   4.845   6.437  14.674  0.3129 -0.6494  0.1021
 6866TIP3    H242014   4.795   6.358  14.793 -0.9707 -1.0509 -0.6841
 6867TIP3   OH242015   0.256   4.401   0.327  0.7366 -0.1884 -0.3052
 6867TIP3    H142016   0.286   4.318   0.364 -0.6720 -0.6421 -0.1271
 6867TIP3    H242017   0.304   4.468   0.376  1.5279 -0.8771 -0.1202
 6868TIP3   OH242018   3.650   2.411  13.701  0.5844  0.0350 -0.4089
 6868TIP3    H142019   3.683   2.335  13.749  0.3178 -0.0623 -0.3785
 6868TIP3    H242020   3.717   2.478  13.713  0.0348  0.3685  0.9865
 6869TIP3   OH242021   3.888   2.783   0.715  0.0795 -0.0034 -0.0637
 6869TIP3    H142022   3.847   2.701   0.742  1.1847 -1.1011 -1.5032
 6869TIP3    H242023   3.849   2.803   0.630  0.8199  0.1947 -0.3695
 6870TIP3   OH242024   3.097   6.185   3.473 -0.4215 -0.1349 -0.2181
 6870TIP3    H142025   3.131   6.114   3.418 -0.5473 -0.1559 -0.2706
 6870TIP3    H242026   3.175   6.229   3.507 -0.2269 -2.4408  2.7022
 6871TIP3   OH242027   1.183   3.160   4.996  0.2662  0.8640 -0.0314
 6871TIP3    H142028   1.242   3.085   5.006  0.1405  0.7661 -0.0138
 6871TIP3    H242029   1.240   3.232   4.968  0.7775  1.3285  2.0199
 6872TIP3   OH242030   6.008   1.014  13.089 -0.2871  0.0627  0.3384
 6872TIP3    H142031   6.029   1.100  13.054  1.0345 -0.1023  0.6689
 6872TIP3    H242032   6.087   0.986  13.135 -0.2825 -1.7573 -0.6406
 6873TIP3   OH242033   0.808   1.425   5.219 -0.0691  0.6841  0.0909
 6873TIP3    H142034   0.882   1.386   5.266  0.0441 -0.2818 -0.8662
 6873TIP3    H242035   0.741   1.439   5.287 -0.3956 -1.8693  0.3927
 6874TIP3   OH242036   3.773   3.640  15.456 -0.2914 -0.0211  0.1586
 6874TIP3    H142037   3.820   3.633  15.373 -1.3137 -1.1510 -0.3496
 6874TIP3    H242038   3.840   3.665  15.519  1.2553 -2.5133 -0.3501
 6875TIP3   OH242039   4.069   2.030   5.071  0.0652 -0.4043 -0.2828
 6875TIP3    H142040   4.129   2.104   5.079 -0.3657 -0.0439 -0.3969
 6875TIP3    H242041   3.984   2.064   5.099 -0.0540 -0.9606  0.0518
 6876TIP3   OH242042   5.368   0.503   2.691  0.5421  0.0109 -0.3090
 6876TIP3    H142043   5.363   0.492   2.786  1.7504 -0.8010 -0.3150
 6876TIP3    H242044   5.362   0.597   2.677  0.3919  0.1430  0.5643
 6877TIP3   OH242045   1.813   5.067  14.731 -0.7812 -0.9003  0.5438
 6877TIP3    H142046   1.901   5.038  14.755  0.6125  3.3534  1.4549
 6877TIP3    H242047   1.807   5.052  14.637  1.7025  0.2162  0.1263
 6878TIP3   OH242048   2.150   0.372   2.260 -0.1438  0.0291  0.6797
 6878TIP3    H142049   2.245   0.358   2.267  0.1245  1.3964  0.0928
 6878TIP3    H242050   2.113   0.284   2.266  1.0013 -0.3996  3.0852
 6879TIP3   OH242051   2.168   6.719  15.421 -0.0263  0.5799  0.2213
 6879TIP3    H142052   2.196   6.794  15.473 -0.3086  1.1190 -0.3903
 6879TIP3    H242053   2.223   6.722  15.343 -0.5493  0.6011 -0.1558
 6880TIP3   OH242054   6.011   2.110  16.543  0.6947  0.8440 -0.4636
 6880TIP3    H142055   6.060   2.159  16.476  1.6358 -0.5803 -0.8526
 6880TIP3    H242056   6.073   2.100  16.615 -0.3895  2.5883  0.8141
 6881TIP3   OH242057   3.524   6.054  13.750 -1.1268 -0.3724 -0.9974
 6881TIP3    H142058   3.552   6.029  13.838  3.2557  0.8271 -1.7787
 6881TIP3    H242059   3.434   6.021  13.743 -0.7997 -2.8342  2.9381
 6882TIP3   OH242060   5.322   6.717  13.892  0.1283  0.4753  0.3252
 6882TIP3    H142061   5.261   6.790  13.905  2.0053  2.1209  0.5217
 6882TIP3    H242062   5.280   6.662  13.827 -1.1378  2.0612 -0.2769
 6883TIP3   OH242063   5.104   6.711  12.260  0.4255 -0.3626  0.6763
 6883TIP3    H142064   5.021   6.667  12.275  0.0189  0.0601 -0.2613
 6883TIP3    H242065   5.158   6.645  12.217 -0.0989 -0.0450 -0.5019
 6884TIP3   OH242066   4.266   3.361  16.224 -0.0315  0.1468 -0.0140
 6884TIP3    H142067   4.281   3.323  16.311  1.4487 -0.7804 -0.6369
 6884TIP3    H242068   4.175   3.391  16.227 -0.6111 -1.5436  1.2346
 6885TIP3   OH242069   2.345   5.237   0.783 -0.9991 -0.3347 -0.2019
 6885TIP3    H142070   2.304   5.231   0.870  1.4348 -1.0796  0.9751
 6885TIP3    H242071   2.369   5.330   0.774 -0.6087 -0.3945  0.2330
 6886TIP3   OH242072   2.763   3.750  14.015 -0.1220 -0.4700  0.4705
 6886TIP3    H142073   2.825   3.690  13.974 -0.1753  0.3383 -0.8515
 6886TIP3    H242074   2.762   3.827  13.958 -2.8125 -0.7100  0.0857
 6887TIP3   OH242075   3.576   0.289   5.766 -0.1560  0.2109 -0.2701
 6887TIP3    H142076   3.630   0.365   5.787 -0.5417  0.4780 -0.2380
 6887TIP3    H242077   3.638   0.216   5.762  0.2052  0.5124 -0.2271
 6888TIP3   OH242078   6.738   6.378  16.658  0.2995  0.6447  0.2223
 6888TIP3    H142079   6.784   6.296  16.638 -1.6897 -0.2637 -0.9963
 6888TIP3    H242080   6.768   6.440  16.592 -1.5540 -0.5191 -1.8682
 6889TIP3   OH242081   0.877   6.597  17.214 -0.0573 -0.2169  0.3209
 6889TIP3    H142082   0.795   6.596  17.165  1.0430  0.0603 -1.6219
 6889TIP3    H242083   0.877   6.681  17.260 -1.0821 -0.4509  0.7738
 6890TIP3   OH242084   3.422   4.361   2.589 -0.3562  0.5070 -0.6771
 6890TIP3    H142085   3.463   4.291   2.539 -1.8645 -0.4712 -0.6105
 6890TIP3    H242086   3.489   4.429   2.595  1.1408 -0.8934 -0.7973
 6891TIP3   OH242087   2.432   2.390   4.925  0.3495  0.1581 -0.2839
 6891TIP3    H142088   2.522   2.412   4.947  0.4201 -1.9695  1.9479
 6891TIP3    H242089   2.439   2.312   4.871 -0.1567  0.1493 -0.3417
 6892TIP3   OH242090   0.952   4.117   1.370 -0.3793 -0.3564  0.2140
 6892TIP3    H142091   1.043   4.147   1.367 -0.3384 -0.5075 -0.1056
 6892TIP3    H242092   0.942   4.063   1.292 -0.5483 -0.9106  0.6097
 6893TIP3   OH242093   5.999   5.623   5.462  0.0451 -0.2301 -0.5003
 6893TIP3    H142094   5.933   5.675   5.508 -0.0158  1.3920 -2.3056
 6893TIP3    H242095   5.949   5.552   5.420 -0.2128 -0.3407 -0.0174
 6894TIP3   OH242096   2.921   6.076   5.819 -0.2262 -0.1515  0.6795
 6894TIP3    H142097   3.001   6.107   5.777 -0.4563 -0.8419 -0.3066
 6894TIP3    H242098   2.921   5.982   5.803 -1.1167 -0.1910  0.8767
 6895TIP3   OH242099   2.455   3.977   6.090 -0.3240 -0.4000 -0.2469
 6895TIP3    H142100   2.432   4.018   6.173  0.6037 -0.2811 -0.0270
 6895TIP3    H242101   2.516   3.907   6.115 -1.4217 -1.5404 -0.6633
 6896TIP3   OH242102   4.010   4.794  15.742 -0.4880  0.1229  0.1911
 6896TIP3    H142103   4.008   4.764  15.833 -2.1804 -0.6477 -0.0479
 6896TIP3    H242104   3.990   4.715  15.690 -1.0468  0.8459 -0.7303
 6897TIP3   OH242105   5.909   5.894   5.427 -0.1660 -0.2272 -0.0430
 6897TIP3    H142106   5.862   5.855   5.501 -0.8854 -1.5858 -1.1542
 6897TIP3    H242107   5.997   5.909   5.459 -0.5127 -0.6401  1.1342
 6898TIP3   OH242108   3.150   0.077   1.623 -0.4413  0.3032 -0.5072
 6898TIP3    H142109   3.200   0.013   1.572 -2.4874 -0.1936 -2.0086
 6898TIP3    H242110   3.103   0.026   1.688 -1.3535  0.3677 -1.1018
 6899TIP3   OH242111   5.201   5.245  11.953 -0.3910  0.2495 -0.2769
 6899TIP3    H142112   5.210   5.152  11.970 -1.2427 -0.5049 -3.4184
 6899TIP3    H242113   5.292   5.276  11.943 -0.1398 -0.5190 -0.4267
 6900TIP3   OH242114   3.762   0.026   0.346 -0.4725 -0.4005  0.2577
 6900TIP3    H142115   3.831   0.090   0.329  0.1696 -1.4718 -1.5071
 6900TIP3    H242116   3.683   0.068   0.313 -0.0562 -0.4721 -0.9055
 6901TIP3   OH242117   3.085   2.198   5.140  0.4166 -0.3587 -0.4637
 6901TIP3    H142118   3.073   2.282   5.096  0.0442  0.2264  0.7166
 6901TIP3    H242119   3.030   2.137   5.090 -1.5991  0.7054  0.3299
 6902TIP3   OH242120   5.225   4.754  11.246 -0.1449 -0.6031 -1.0702
 6902TIP3    H142121   5.196   4.770  11.156  1.6430 -0.0592 -1.5935
 6902TIP3    H242122   5.319   4.738  11.238  0.1718  0.0968  0.7668
 6903TIP3   OH242123   3.486   4.940  11.351  0.0308 -0.4905  0.2743
 6903TIP3    H142124   3.514   5.012  11.294  0.7704 -0.9486  0.0437
 6903TIP3    H242125   3.549   4.942  11.424 -2.4293  1.7903  2.5733
 6904TIP3   OH242126   2.162   5.572   3.203  0.3343  0.1937  0.4530
 6904TIP3    H142127   2.186   5.653   3.246 -1.5116  0.4888  1.0231
 6904TIP3    H242128   2.196   5.580   3.113 -0.5952  1.9944  0.2261
 6905TIP3   OH242129   0.588   5.582   4.029 -0.0078  0.8538  0.2092
 6905TIP3    H142130   0.625   5.640   3.963  0.5407 -0.5173 -0.7446
 6905TIP3    H242131   0.495   5.576   4.007 -0.1573  1.7089  0.5899
 6906TIP3   OH242132   4.206   2.605   4.129  0.2408  0.1442  0.1634
 6906TIP3    H142133   4.218   2.700   4.137  1.2186  0.0156  0.4003
 6906TIP3    H242134   4.295   2.570   4.133 -0.1597 -0.8366  0.8075
 6907TIP3   OH242135   5.616   3.896   2.131 -0.1422 -0.4356  0.8847
 6907TIP3    H142136   5.607   3.959   2.060 -0.0746 -0.4770  0.8388
 6907TIP3    H242137   5.544   3.916   2.191 -0.7638 -0.9907  0.3448
 6908TIP3   OH242138   1.697   5.722  14.372  0.7872  0.3268  0.1193
 6908TIP3    H142139   1.776   5.687  14.414 -1.3056 -2.8075  1.8459
 6908TIP3    H242140   1.713   5.712  14.278  2.5966  0.2273  0.3952
 6909TIP3   OH242141   5.295   0.101   0.925  0.1931  0.5234  0.1194
 6909TIP3    H142142   5.373   0.083   0.873  0.5358 -0.9483  1.0970
 6909TIP3    H242143   5.236   0.028   0.907  0.3692 -0.0900  1.8702
 6910TIP3   OH242144   3.914   1.137   6.421  1.0453  0.4625  0.0555
 6910TIP3    H142145   3.829   1.171   6.449 -0.5563 -1.4389 -2.1206
 6910TIP3    H242146   3.970   1.145   6.498 -1.2846  1.1591  1.7649
 6911TIP3   OH242147   5.121   4.241  12.522 -0.5138 -0.0284 -0.0124
 6911TIP3    H142148   5.151   4.193  12.445  0.8432  0.6226  0.0953
 6911TIP3    H242149   5.073   4.316  12.486  1.5637  1.2230 -0.3067
 6912TIP3   OH242150   2.159   4.093  11.850 -0.8695 -0.0771  0.9966
 6912TIP3    H142151   2.203   4.058  11.772  2.5644  3.5334  0.9416
 6912TIP3    H242152   2.077   4.130  11.817 -0.9788 -1.3632 -0.2539
 6913TIP3   OH242153   4.067   2.980   6.197 -0.2030 -0.3016 -0.1132
 6913TIP3    H142154   3.994   2.918   6.188 -0.9643  0.5675 -0.1718
 6913TIP3    H242155   4.121   2.966   6.120 -1.5412  0.5650 -1.2551
 6914TIP3   OH242156   5.168   5.749   2.553  0.4727  0.0847 -0.5480
 6914TIP3    H142157   5.145   5.680   2.616 -1.3339  0.3480 -0.8774
 6914TIP3    H242158   5.198   5.702   2.476 -0.5696 -0.3597 -0.7006
 6915TIP3   OH242159   5.990   4.053  14.873 -0.5796 -0.1116  0.1717
 6915TIP3    H142160   5.966   3.962  14.853  0.4815 -0.6048  1.0405
 6915TIP3    H242161   5.936   4.105  14.814 -0.9461 -1.3230 -0.6053
 6916TIP3   OH242162   6.130   0.554  13.030  0.2024 -0.5982  0.0029
 6916TIP3    H142163   6.115   0.554  13.125  1.5133 -3.2175  0.2932
 6916TIP3    H242164   6.202   0.617  13.018  0.5614 -0.8181  0.8766
 6917TIP3   OH242165   2.753   3.642   3.364  0.0074  1.1296  0.7137
 6917TIP3    H142166   2.804   3.720   3.386  1.4462  0.5182 -0.2655
 6917TIP3    H242167   2.761   3.635   3.269 -0.6907  0.1800  0.7116
 6918TIP3   OH242168   2.319   1.230  13.544  0.1505 -0.0188 -0.1470
 6918TIP3    H142169   2.338   1.161  13.607  1.6266  0.1849 -0.3384
 6918TIP3    H242170   2.356   1.309  13.583 -2.1575  0.8758  0.4313
 6919TIP3   OH242171   0.031   4.939  13.927  0.1362  0.3083 -0.1015
 6919TIP3    H142172  -0.020   4.915  13.849  0.7922  0.0718 -0.4634
 6919TIP3    H242173   0.075   4.858  13.952 -1.2453 -0.0302  1.4416
 6920TIP3   OH242174   5.194   1.000  14.151  0.5321 -0.0551  0.0909
 6920TIP3    H142175   5.286   0.982  14.130  0.3859  1.2538 -1.9519
 6920TIP3    H242176   5.146   0.924  14.118  0.6954  0.2201 -0.8079
 6921TIP3   OH242177   5.893   5.070   0.367  0.2716 -0.2417 -0.0504
 6921TIP3    H142178   5.891   4.977   0.346  2.6922 -0.3622 -0.0536
 6921TIP3    H242179   5.918   5.113   0.286  1.5630  0.1204  0.5043
 6922TIP3   OH242180   1.699   1.327   0.748  0.5797  0.2877  0.3029
 6922TIP3    H142181   1.670   1.262   0.812  2.4083 -0.3112  0.5803
 6922TIP3    H242182   1.734   1.275   0.675  3.4599  0.8337  1.1683
 6923TIP3   OH242183   3.573   4.450  15.853 -0.2119  0.5743 -0.3130
 6923TIP3    H142184   3.531   4.402  15.925  1.4865  0.2484  0.4955
 6923TIP3    H242185   3.558   4.395  15.777 -1.7758  0.7732 -0.1973
 6924TIP3   OH242186   5.298   6.581  12.467  0.3427  0.1366 -0.2227
 6924TIP3    H142187   5.209   6.617  12.470 -0.3136 -1.3732 -0.7032
 6924TIP3    H242188   5.325   6.591  12.376  0.7716  0.8185 -0.0247
 6925TIP3   OH242189   6.627   1.276   3.969  0.0281 -0.3776  0.1458
 6925TIP3    H142190   6.574   1.198   3.988 -1.8480  0.3590 -1.6815
 6925TIP3    H242191   6.709   1.241   3.932  0.8542 -1.5305  2.8116
 6926TIP3   OH242192   1.770   2.411  14.848 -0.5969 -0.2412 -0.3793
 6926TIP3    H142193   1.839   2.473  14.825  0.2337 -1.8310 -2.4885
 6926TIP3    H242194   1.798   2.328  14.809 -1.0534 -2.3451  3.3196
 6927TIP3   OH242195   2.809   4.719  14.399 -0.1001  0.4981  0.4696
 6927TIP3    H142196   2.888   4.763  14.369 -0.2758 -0.2366 -1.1739
 6927TIP3    H242197   2.743   4.739  14.333 -0.6936 -0.6316  0.6855
 6928TIP3   OH242198   6.174   4.129  14.577  0.5597  0.5301 -0.3081
 6928TIP3    H142199   6.233   4.054  14.569  0.0346  0.1468 -0.6748
 6928TIP3    H242200   6.105   4.111  14.514 -0.0219  0.9057  0.2165
 6929TIP3   OH242201   1.960   6.645   0.192 -0.1477 -0.3433  0.1220
 6929TIP3    H142202   1.953   6.604   0.106 -0.6664 -0.1308  0.0593
 6929TIP3    H242203   1.908   6.725   0.184 -0.5664 -0.5468  0.7724
 6930TIP3   OH242204   4.729   0.573   3.527 -0.1861 -0.1466  0.3848
 6930TIP3    H142205   4.780   0.648   3.559  1.2430 -0.5077 -0.9130
 6930TIP3    H242206   4.690   0.535   3.605 -0.0272  1.2882  1.2040
 6931TIP3   OH242207   1.411   1.000  17.007  0.1728 -0.4645  0.1853
 6931TIP3    H142208   1.449   1.083  17.036  0.2523 -0.1399 -0.8081
 6931TIP3    H242209   1.436   0.937  17.075  1.1370  0.0729  0.3502
 6932TIP3   OH242210   6.740   4.611   6.699 -0.1061  0.2052 -0.0986
 6932TIP3    H142211   6.684   4.561   6.640  0.1935  0.0882 -0.2837
 6932TIP3    H242212   6.679   4.661   6.753 -0.3604  0.9647 -1.0767
 6933TIP3   OH242213   4.304   5.629  11.379  0.1297 -0.4741  0.0097
 6933TIP3    H142214   4.316   5.562  11.311 -0.7016 -1.2510  0.5958
 6933TIP3    H242215   4.393   5.649  11.408  0.4080 -1.2775 -0.2381
 6934TIP3   OH242216   4.225   4.315   4.129 -0.7301  0.3734 -0.2765
 6934TIP3    H142217   4.245   4.241   4.186  2.2476  2.1097  1.1848
 6934TIP3    H242218   4.213   4.276   4.042  1.6743 -1.8354  0.2508
 6935TIP3   OH242219   1.388   6.112  16.585  0.2165 -1.0912  0.5141
 6935TIP3    H142220   1.444   6.041  16.617  1.3373 -0.4397  0.0607
 6935TIP3    H242221   1.448   6.185  16.568 -0.7470 -0.4165 -0.1535
 6936TIP3   OH242222   1.911   0.772  13.193  0.4118 -0.3093  0.6866
 6936TIP3    H142223   1.861   0.702  13.152 -0.7595 -0.2304  1.8985
 6936TIP3    H242224   1.964   0.728  13.259  1.8219 -0.3647 -0.4500
 6937TIP3   OH242225   5.302   2.352   3.226 -0.7958  0.7723  0.1873
 6937TIP3    H142226   5.237   2.285   3.248 -1.0743  0.6109 -1.0382
 6937TIP3    H242227   5.327   2.332   3.136 -0.1421  1.7306  0.1408
 6938TIP3   OH242228   5.082   3.758  10.577  0.2008  0.5632 -0.4686
 6938TIP3    H142229   4.988   3.772  10.588  0.1932  1.0101 -1.0639
 6938TIP3    H242230   5.122   3.811  10.647  0.0241  0.5964 -0.3908
 6939TIP3   OH242231   2.653   3.055  10.784 -0.5380 -0.5165  0.2183
 6939TIP3    H142232   2.616   3.128  10.735 -1.3942 -2.1302 -1.6786
 6939TIP3    H242233   2.668   3.091  10.872  0.0866  2.1889 -0.8833
 6940TIP3   OH242234   6.544   1.509   3.833  0.2019 -0.2646 -0.3550
 6940TIP3    H142235   6.467   1.546   3.874 -0.0644 -0.2929 -0.8206
 6940TIP3    H242236   6.559   1.426   3.879 -0.5407 -0.6605 -0.8168
 6941TIP3   OH242237   3.637   1.544  14.808  0.1715 -0.1849 -0.6374
 6941TIP3    H142238   3.566   1.580  14.861  0.2322  0.1891 -0.8051
 6941TIP3    H242239   3.695   1.502  14.872 -0.3382 -0.7284 -0.5323
 6942TIP3   OH242240   3.478   5.136   4.549 -0.0651 -0.1142 -0.0643
 6942TIP3    H142241   3.515   5.177   4.627 -2.1548 -0.2067  1.0437
 6942TIP3    H242242   3.436   5.056   4.581  1.6891 -1.8389 -1.7990
 6943TIP3   OH242243   0.776   1.717   4.138 -0.1600  0.6491 -0.0760
 6943TIP3    H142244   0.802   1.774   4.067 -0.5645  1.0396  0.0797
 6943TIP3    H242245   0.796   1.629   4.108  0.4455  0.8726 -0.3283
 6944TIP3   OH242246   0.613   5.141  16.716  0.3022  0.0866  0.7861
 6944TIP3    H142247   0.647   5.053  16.730  0.8444  0.3255  1.0083
 6944TIP3    H242248   0.691   5.194  16.697 -0.1086  0.3483 -0.2228
 6945TIP3   OH242249   6.388   0.481   0.230 -0.2392 -0.1739  0.0376
 6945TIP3    H142250   6.452   0.419   0.194 -0.1156  0.3546 -0.6660
 6945TIP3    H242251   6.318   0.485   0.164  0.5189  1.6590 -0.7212
 6946TIP3   OH242252   5.273   3.639   6.047 -0.0385 -0.3176  0.0841
 6946TIP3    H142253   5.275   3.693   6.126  1.9577  0.2211 -0.2878
 6946TIP3    H242254   5.237   3.696   5.979  1.5927  0.4226 -0.1905
 6947TIP3   OH242255   3.281   0.899   6.006  0.5287  0.1850  0.5404
 6947TIP3    H142256   3.256   0.912   5.914 -0.6280  1.0784  0.9518
 6947TIP3    H242257   3.355   0.840   6.003  1.3373  1.2158 -1.0629
 6948TIP3   OH242258   1.191   6.057   3.968 -0.5039 -0.2441 -0.7262
 6948TIP3    H142259   1.144   6.116   3.909 -0.9212  1.8275  1.5335
 6948TIP3    H242260   1.267   6.028   3.918  0.2243  2.9574 -1.6760
 6949TIP3   OH242261   2.942   1.549   3.393  0.2090 -0.1501 -0.4482
 6949TIP3    H142262   2.879   1.534   3.464  0.4769 -2.9363 -0.6929
 6949TIP3    H242263   3.025   1.567   3.438  0.5340 -2.5574  0.0759
 6950TIP3   OH242264   6.404   5.456   1.390  0.0741  0.1475  0.4336
 6950TIP3    H142265   6.433   5.384   1.333 -0.0817  0.3777  0.0567
 6950TIP3    H242266   6.430   5.535   1.344 -0.1077  0.3380  0.6573
 6951TIP3   OH242267   5.503   0.524   5.457  0.5815  0.4162 -0.0732
 6951TIP3    H142268   5.480   0.525   5.364 -1.0647  0.3752  0.3028
 6951TIP3    H242269   5.584   0.473   5.461  2.1901  2.6326 -1.7565
 6952TIP3   OH242270   6.507   2.912  13.586 -0.0143  0.1163 -0.0247
 6952TIP3    H142271   6.542   2.888  13.500 -0.1824 -0.4484  0.0606
 6952TIP3    H242272   6.427   2.961  13.567 -0.3115 -0.4219 -0.1923
 6953TIP3   OH242273   0.879   1.306  10.925  0.8544 -0.4565  0.5614
 6953TIP3    H142274   0.900   1.219  10.961 -1.2513 -0.7439  1.2364
 6953TIP3    H242275   0.937   1.366  10.972  1.1841 -1.3162  1.2865
 6954TIP3   OH242276   1.321   2.914  16.830  0.6852  0.0065 -0.2629
 6954TIP3    H142277   1.274   2.991  16.864 -0.3831 -1.2604  1.2711
 6954TIP3    H242278   1.411   2.925  16.861  0.6734  0.8753 -0.4969
 6955TIP3   OH242279   2.538   0.250   4.433 -0.0174  0.1081 -0.0868
 6955TIP3    H142280   2.534   0.345   4.424 -2.8244  0.0998 -0.0262
 6955TIP3    H242281   2.563   0.235   4.524  0.9669  0.7536 -0.2388
 6956TIP3   OH242282   4.939   3.932  12.370  0.2837  0.0606 -0.0959
 6956TIP3    H142283   4.869   3.868  12.380  1.1133 -0.6828  1.1746
 6956TIP3    H242284   4.957   3.963  12.459  2.7619 -1.0876 -0.1174
 6957TIP3   OH242285   1.181   3.609  17.115  0.3492 -0.4544  0.0696
 6957TIP3    H142286   1.224   3.688  17.083 -1.1790 -0.6433 -2.8448
 6957TIP3    H242287   1.103   3.641  17.161  0.9564 -0.2586  0.9965
 6958TIP3   OH242288   1.559   3.638  13.473  0.4772  0.3907  0.3540
 6958TIP3    H142289   1.483   3.681  13.433  0.2798 -0.9411 -0.7265
 6958TIP3    H242290   1.607   3.600  13.400  0.8173 -0.9584  1.2506
 6959TIP3   OH242291   3.492   2.420   3.851  0.0019  0.0557 -0.3957
 6959TIP3    H142292   3.569   2.417   3.907  0.3970 -1.4953 -0.9905
 6959TIP3    H242293   3.523   2.396   3.764 -1.0215  0.0945 -0.7926
 6960TIP3   OH242294   2.461   4.487   0.326 -0.8487 -0.3539  0.1812
 6960TIP3    H142295   2.368   4.495   0.304 -0.2298 -0.3625 -2.7785
 6960TIP3    H242296   2.505   4.547   0.266  0.9758  1.4465  3.0613
 6961TIP3   OH242297   1.014   4.639  16.229  0.8623 -0.6994  0.3988
 6961TIP3    H142298   0.992   4.556  16.186 -3.1216  1.5095 -2.4581
 6961TIP3    H242299   1.026   4.701  16.157 -2.7991  2.5213  2.1757
 6962TIP3   OH242300   3.760   5.398   2.117 -0.3894  0.4502  0.0992
 6962TIP3    H142301   3.839   5.382   2.170 -0.6198  0.3661  0.4223
 6962TIP3    H242302   3.735   5.311   2.086 -1.1388  0.2715  1.1329
 6963TIP3   OH242303   1.398   6.081   2.508 -0.5740  0.0258 -0.3267
 6963TIP3    H142304   1.429   6.056   2.421 -1.3968  2.3249 -1.3531
 6963TIP3    H242305   1.317   6.129   2.492  0.1006  1.9472  1.5478
 6964TIP3   OH242306   2.022   0.732   5.562 -0.1530 -0.2330 -0.2718
 6964TIP3    H142307   2.087   0.681   5.610  0.0289  0.4906  0.2665
 6964TIP3    H242308   1.949   0.741   5.624 -0.3272 -0.1260 -0.4903
 6965TIP3   OH242309   2.354   2.398  11.343  0.1421  0.2078  0.2297
 6965TIP3    H142310   2.263   2.388  11.314  0.1235  2.0876 -0.4525
 6965TIP3    H242311   2.402   2.334  11.291 -0.5650  0.3288 -0.6010
 6966TIP3   OH242312   0.048   0.614   5.299  0.3162 -0.6381  0.2653
 6966TIP3    H142313   0.115   0.649   5.240  1.7531 -0.1973  2.0219
 6966TIP3    H242314  -0.007   0.690   5.319 -1.2558 -1.1757 -1.7928
 6967TIP3   OH242315   1.813   3.108   3.969 -0.0938  0.0075 -0.8813
 6967TIP3    H142316   1.780   3.034   3.918 -0.0779 -0.8295  0.2901
 6967TIP3    H242317   1.752   3.180   3.951 -1.0880 -0.7836 -0.7187
 6968TIP3   OH242318   6.440   2.244  15.171 -0.1447 -0.5896  0.5693
 6968TIP3    H142319   6.466   2.320  15.118 -0.4326  0.7257  2.2131
 6968TIP3    H242320   6.347   2.232  15.151  0.6379 -2.9287 -2.4654
 6969TIP3   OH242321   6.687   5.840   5.886 -0.1605  0.7403  0.1712
 6969TIP3    H142322   6.700   5.882   5.971  1.3810 -0.2048  0.4349
 6969TIP3    H242323   6.709   5.748   5.902 -0.7609  0.3735 -1.0469
 6970TIP3   OH242324   4.329   0.026   1.631  0.9302 -0.1578 -0.3466
 6970TIP3    H142325   4.338   0.029   1.727  1.9818 -3.1661 -0.2126
 6970TIP3    H242326   4.419   0.019   1.599  0.5589  0.2373 -1.5346
 6971TIP3   OH242327   5.951   6.301  10.642  0.1700  0.6871 -0.5473
 6971TIP3    H142328   5.900   6.243  10.585  1.1356 -0.1784 -0.5564
 6971TIP3    H242329   5.925   6.389  10.616 -2.6174  0.3277  0.6107
 6972TIP3   OH242330   6.077   5.516   3.559 -0.2771 -0.4121  0.2906
 6972TIP3    H142331   6.135   5.454   3.516  1.3299  2.3729 -1.8992
 6972TIP3    H242332   6.108   5.520   3.650  2.2367  0.1212 -0.5358
 6973TIP3   OH242333   4.272   5.091  13.964  0.1146 -0.6208 -0.1626
 6973TIP3    H142334   4.221   5.016  13.934 -0.1517 -0.9856  1.1030
 6973TIP3    H242335   4.347   5.052  14.009 -0.2882 -0.1652  0.9523
 6974TIP3   OH242336   4.469   5.628  14.231  0.0112  0.2922 -0.0600
 6974TIP3    H142337   4.541   5.565  14.239 -1.0682 -1.0030 -0.2216
 6974TIP3    H242338   4.499   5.689  14.163  2.3961  1.8951  2.1997
 6975TIP3   OH242339   6.740   6.335  11.474 -0.4804 -0.3903  0.1779
 6975TIP3    H142340   6.699   6.276  11.411 -1.7722  0.9265 -0.2679
 6975TIP3    H242341   6.833   6.333  11.451 -0.6057 -1.6314 -0.3178
 6976TIP3   OH242342   2.374   3.316   1.040  0.2422 -0.0422  0.0766
 6976TIP3    H142343   2.437   3.266   1.092  0.8974 -0.7960 -1.3873
 6976TIP3    H242344   2.335   3.252   0.980  0.3281  0.9942 -1.1280
 6977TIP3   OH242345   4.915   4.934   6.156 -0.4018 -0.0226 -0.2404
 6977TIP3    H142346   4.867   5.008   6.193 -0.3713 -0.3064  0.3766
 6977TIP3    H242347   4.950   4.967   6.073  0.1068  0.8404  0.3028
 6978TIP3   OH242348   1.493   0.294  13.548 -0.0606  0.1958 -0.5571
 6978TIP3    H142349   1.511   0.305  13.454  2.4457 -0.3026 -0.2087
 6978TIP3    H242350   1.445   0.211  13.553 -0.0179  0.1081 -1.3894
 6979TIP3   OH242351   3.857   1.868   3.506  0.1701 -0.3878 -0.2045
 6979TIP3    H142352   3.866   1.821   3.588  0.7722 -1.1431 -0.6916
 6979TIP3    H242353   3.851   1.800   3.439 -0.3805  0.2077 -0.7870
 6980TIP3   OH242354   2.732   5.678  11.194  0.0141  0.1322  0.3091
 6980TIP3    H142355   2.687   5.646  11.272  0.5094  0.3642  0.6931
 6980TIP3    H242356   2.800   5.613  11.177 -1.0830 -0.7684 -0.8725
 6981TIP3   OH242357   4.233   3.683  15.662  0.2330  0.3058  0.0438
 6981TIP3    H142358   4.138   3.678  15.672  0.2502 -0.5740 -0.1538
 6981TIP3    H242359   4.246   3.732  15.580 -0.0559  0.2530 -0.0348
 6982TIP3   OH242360   4.339   2.414  15.997  0.1164  0.0337  0.2649
 6982TIP3    H142361   4.270   2.467  15.956  0.1047 -0.2816 -0.1312
 6982TIP3    H242362   4.383   2.474  16.056  0.4894  0.6588 -0.6275
 6983TIP3   OH242363   6.219   5.254   4.083 -0.3808 -0.0942  0.3919
 6983TIP3    H142364   6.227   5.342   4.121  2.0264 -0.5682  1.1368
 6983TIP3    H242365   6.226   5.194   4.157  2.3326 -0.9887 -0.4932
 6984TIP3   OH242366   2.316   3.195   3.044 -0.2907 -0.6042 -0.1361
 6984TIP3    H142367   2.346   3.149   3.123  0.3386 -1.8022 -1.0465
 6984TIP3    H242368   2.319   3.129   2.975  1.7094  1.0535 -1.7546
 6985TIP3   OH242369   4.838   4.653  15.867  0.0777 -0.0201  0.3472
 6985TIP3    H142370   4.923   4.610  15.856  0.1720  0.3551 -0.4334
 6985TIP3    H242371   4.857   4.730  15.920  0.6530  1.3091 -1.6774
 6986TIP3   OH242372   6.751   5.125   2.118  0.0025  0.0710 -0.2053
 6986TIP3    H142373   6.693   5.177   2.062 -1.5121 -0.1359  1.0964
 6986TIP3    H242374   6.835   5.125   2.072 -1.2300 -0.3236 -2.5991
 6987TIP3   OH242375   4.393   5.139  17.307  0.1823  0.4958 -0.2519
 6987TIP3    H142376   4.412   5.232  17.323  1.5778  0.0428  0.9679
 6987TIP3    H242377   4.327   5.117  17.373  0.3733  0.4709 -0.0638
 6988TIP3   OH242378   0.958   5.922  17.017 -0.2951  0.4785 -0.8334
 6988TIP3    H142379   0.977   5.999  17.072 -1.3965  0.3192 -0.2085
 6988TIP3    H242380   0.982   5.847  17.072 -1.3127  0.3208 -0.5808
 6989TIP3   OH242381   4.715   0.680  15.198 -0.5303  0.6065  0.1590
 6989TIP3    H142382   4.751   0.714  15.116 -0.3465  1.5735  0.6164
 6989TIP3    H242383   4.776   0.713  15.265 -0.3012 -0.7274  0.6269
 6990TIP3   OH242384   0.452   4.881  15.471  0.3325  0.4745 -0.1190
 6990TIP3    H142385   0.387   4.951  15.465  0.2847  0.4987  0.6414
 6990TIP3    H242386   0.476   4.863  15.380 -0.5143  0.6716 -0.3924
 6991TIP3   OH242387   5.564   0.974   2.492  0.1263  0.8828  0.1059
 6991TIP3    H142388   5.584   0.941   2.580  0.4166 -0.7109 -0.5278
 6991TIP3    H242389   5.645   0.960   2.442 -0.6536 -0.1393 -0.9303
 6992TIP3   OH242390   5.253   1.211  16.064 -0.4283  0.3024  0.4564
 6992TIP3    H142391   5.197   1.254  16.000 -0.9255  1.2608  1.4971
 6992TIP3    H242392   5.270   1.125  16.027 -1.2524  0.5910 -0.6446
 6993TIP3   OH242393   5.626   2.535   5.532  0.2765 -0.0643 -0.4545
 6993TIP3    H142394   5.628   2.540   5.436  0.7604  2.5942 -0.3750
 6993TIP3    H242395   5.542   2.574   5.556  0.8661  0.8105  0.2372
 6994TIP3   OH242396   6.046   6.101   0.379 -0.0024  0.0004 -0.1613
 6994TIP3    H142397   6.066   6.084   0.471 -2.1794  3.4084  1.1425
 6994TIP3    H242398   6.115   6.160   0.350 -0.7909  1.1193  0.1885
 6995TIP3   OH242399   2.936   0.839   6.578 -0.2156  0.1594 -0.1073
 6995TIP3    H142400   2.992   0.892   6.634 -1.6872  0.2885  1.3487
 6995TIP3    H242401   2.988   0.762   6.558  1.0695  1.0267 -0.2165
 6996TIP3   OH242402   0.785   4.395   5.503  0.0652 -0.2003 -0.3048
 6996TIP3    H142403   0.766   4.305   5.528 -2.1599 -0.2575 -1.9258
 6996TIP3    H242404   0.832   4.387   5.420  0.6526  0.1139 -0.0015
 6997TIP3   OH242405   4.691   0.180  16.688 -0.8374  0.1724 -0.4195
 6997TIP3    H142406   4.718   0.123  16.616 -1.2620 -1.2245  0.4828
 6997TIP3    H242407   4.597   0.167  16.695 -0.5967 -1.0066  1.4012
 6998TIP3   OH242408   0.808   2.950  14.168 -0.2228  0.6510 -0.1549
 6998TIP3    H142409   0.891   2.988  14.140  0.4209 -0.7064 -0.1413
 6998TIP3    H242410   0.825   2.915  14.255 -0.9395  0.7758  0.0386
 6999TIP3   OH242411   0.330   5.232   3.098 -0.6683  0.0379  0.6063
 6999TIP3    H142412   0.280   5.312   3.083 -0.2717 -0.1261 -2.1669
 6999TIP3    H242413   0.404   5.260   3.151 -1.1023  1.2902  0.5892
 7000TIP3   OH242414   0.248   3.682  13.240  0.3116 -0.3157 -0.1761
 7000TIP3    H142415   0.206   3.662  13.157  1.6903 -1.5207 -0.6369
 7000TIP3    H242416   0.185   3.655  13.306 -0.5134 -0.0162 -0.8333
 7001TIP3   OH242417   1.369   5.479  13.920  0.1488 -1.0112 -0.8171
 7001TIP3    H142418   1.407   5.494  14.006  2.7482  1.0795 -2.1993
 7001TIP3    H242419   1.434   5.426  13.874 -1.7749 -3.2155 -1.1891
 7002TIP3   OH242420   6.009   3.602  13.959 -0.0929  0.1701 -0.7890
 7002TIP3    H142421   5.914   3.617  13.960 -0.1396 -0.1337  0.7749
 7002TIP3    H242422   6.022   3.541  13.885 -1.3946 -1.3838  0.1975
 7003TIP3   OH242423   2.803   1.504   5.126  0.6095 -0.0066 -0.1736
 7003TIP3    H142424   2.874   1.543   5.177  0.4519 -0.8548  0.7009
 7003TIP3    H242425   2.746   1.578   5.104  1.2225  0.5197 -0.0269
 7004TIP3   OH242426   4.473   1.956   4.116 -0.2644  0.1072  0.2573
 7004TIP3    H142427   4.493   1.997   4.201  1.7318  0.5451 -0.3583
 7004TIP3    H242428   4.433   1.872   4.139  0.9672 -0.1428  1.6803
 7005TIP3   OH242429   4.496   0.115   6.670  0.2597 -0.1184 -0.3230
 7005TIP3    H142430   4.548   0.151   6.742  0.7120 -1.2918 -0.0268
 7005TIP3    H242431   4.405   0.126   6.698  0.4178 -0.1080  0.2079
 7006TIP3   OH242432   4.113   2.717   3.911  0.2566  0.0830 -0.3387
 7006TIP3    H142433   4.127   2.678   3.825  0.7288 -2.7923  0.9534
 7006TIP3    H242434   4.137   2.649   3.974 -0.5197  1.8985  2.1084
 7007TIP3   OH242435   1.857   1.068   1.935 -0.0654 -0.0269 -0.2196
 7007TIP3    H142436   1.938   1.016   1.936 -0.3488 -0.5580 -1.9149
 7007TIP3    H242437   1.875   1.139   1.874 -0.3919  0.7341  0.5447
 7008TIP3   OH242438   3.497   0.396  13.451  0.1606  0.3175  0.3417
 7008TIP3    H142439   3.557   0.325  13.474  0.3737 -0.0835 -1.2992
 7008TIP3    H242440   3.442   0.359  13.381  0.1538  1.7035 -0.4171
 7009TIP3   OH242441   2.928   4.561   4.826 -0.0327 -0.0164  0.3417
 7009TIP3    H142442   2.879   4.634   4.864  0.7457  0.3162  0.7177
 7009TIP3    H242443   3.015   4.567   4.865 -0.0220 -1.2956  0.5700
 7010TIP3   OH242444   3.220   1.369  16.175 -0.6522 -0.4867 -0.1316
 7010TIP3    H142445   3.294   1.430  16.176  0.1143 -1.4032 -0.3871
 7010TIP3    H242446   3.220   1.333  16.086 -0.3077 -1.8106  0.3918
 7011TIP3   OH242447   0.964   5.322  11.727  0.2390  0.0122  0.6828
 7011TIP3    H142448   0.884   5.372  11.744 -0.3882 -1.2058  1.4924
 7011TIP3    H242449   0.981   5.336  11.633 -1.7877 -0.8876  0.1177
 7012TIP3   OH242450   4.879   0.029  14.926  0.4001  0.1607 -0.0820
 7012TIP3    H142451   4.923   0.060  15.006 -0.2171  1.0928 -0.0997
 7012TIP3    H242452   4.902  -0.064  14.922  1.8335  0.4713  0.2675
 7013TIP3   OH242453   5.201   6.429   2.758  0.0693 -0.4627  0.5916
 7013TIP3    H142454   5.269   6.368   2.728  2.0063  1.3988  0.9437
 7013TIP3    H242455   5.174   6.475   2.680  0.8950  0.3526  0.7660
 7014TIP3   OH242456   3.257   4.850  14.751 -0.1464 -0.4684  0.3990
 7014TIP3    H142457   3.175   4.848  14.702 -1.0532  1.8758  1.6244
 7014TIP3    H242458   3.266   4.762  14.788 -1.7848 -0.9559 -0.2912
 7015TIP3   OH242459   1.272   2.495  11.296  0.3175  0.0777 -0.0782
 7015TIP3    H142460   1.341   2.562  11.295  0.8723 -0.4170 -2.7479
 7015TIP3    H242461   1.223   2.510  11.215 -1.8366 -0.5391  1.0244
 7016TIP3   OH242462   2.881   1.569   2.821 -0.1379  0.8877  0.5414
 7016TIP3    H142463   2.865   1.487   2.868  1.1674  0.1747 -0.2058
 7016TIP3    H242464   2.973   1.589   2.840 -0.0298  1.3869 -0.4664
 7017TIP3   OH242465   1.012   2.729  16.329  0.1625  0.1073 -0.5463
 7017TIP3    H142466   0.947   2.710  16.261 -0.7587 -0.3780  0.4427
 7017TIP3    H242467   1.011   2.651  16.385 -0.5202  1.2765  1.1356
 7018TIP3   OH242468   6.709   0.480   4.002  0.7207  0.0812 -0.2538
 7018TIP3    H142469   6.776   0.541   3.972  0.5622  1.1911  1.4514
 7018TIP3    H242470   6.757   0.413   4.051  0.6998  0.2686  0.0303
 7019TIP3   OH242471   5.449   2.733  13.729  0.3258  0.1028  0.1357
 7019TIP3    H142472   5.370   2.747  13.781  1.1307 -0.4472  1.5558
 7019TIP3    H242473   5.485   2.821  13.717 -0.6302  0.3962 -0.7898
 7020TIP3   OH242474   4.610   0.257   1.733  0.0852 -1.0993  0.0905
 7020TIP3    H142475   4.579   0.310   1.806 -0.3932 -0.7207 -0.3854
 7020TIP3    H242476   4.553   0.280   1.659  0.1726 -1.9165 -0.2492
 7021TIP3   OH242477   2.438   4.267  16.164  0.0349 -0.3522 -0.2384
 7021TIP3    H142478   2.432   4.359  16.140  0.3632 -0.1063  0.5854
 7021TIP3    H242479   2.433   4.266  16.260 -0.4584 -1.2297 -0.2585
 7022TIP3   OH242480   0.566   6.422   1.756  0.6116  0.7536 -0.4448
 7022TIP3    H142481   0.532   6.511   1.749 -1.0203  0.2854  0.7986
 7022TIP3    H242482   0.588   6.413   1.849 -3.1417 -1.3603  0.4456
 7023TIP3   OH242483   3.285   2.077  17.183  0.0257 -0.3319  0.2237
 7023TIP3    H142484   3.303   2.104  17.273  0.8385 -0.1726  0.0191
 7023TIP3    H242485   3.245   2.153  17.142 -0.4422 -0.4378  0.4689
 7024TIP3   OH242486   1.157   1.620  11.627 -0.3200  0.3352 -0.5585
 7024TIP3    H142487   1.074   1.615  11.579 -1.2845  0.1674  1.0349
 7024TIP3    H242488   1.154   1.705  11.671  0.4992  0.4583 -0.7359
 7025TIP3   OH242489   0.253   0.238  17.121  0.4950 -0.4590  0.1775
 7025TIP3    H142490   0.203   0.311  17.085  0.3630 -0.0732  1.1150
 7025TIP3    H242491   0.345   0.266  17.115  0.4654 -0.3430  0.2670
 7026TIP3   OH242492   3.525   4.328   6.612 -0.5956 -0.4398 -0.5135
 7026TIP3    H142493   3.482   4.242   6.610 -1.0115 -0.2795  0.4370
 7026TIP3    H242494   3.459   4.388   6.576 -1.4867 -0.1003  1.4895
 7027TIP3   OH242495   0.715   5.143  11.622  0.7199  0.4598 -0.1550
 7027TIP3    H142496   0.807   5.161  11.641  0.8794 -0.3712 -0.0859
 7027TIP3    H242497   0.715   5.053  11.588 -0.1586  0.1556  0.6132
 7028TIP3   OH242498   5.192   6.093  12.916 -0.0683  1.0810 -0.4755
 7028TIP3    H142499   5.287   6.102  12.916 -0.1788  2.4997 -1.1610
 7028TIP3    H242500   5.164   6.132  13.000 -0.0623  0.8581 -0.3695
 7029TIP3   OH242501   5.457   6.655   1.653 -0.1606 -0.2656  0.1217
 7029TIP3    H142502   5.430   6.588   1.715  2.7196 -1.4542  0.2867
 7029TIP3    H242503   5.531   6.699   1.696 -1.4206  2.5096 -0.3464
 7030TIP3   OH242504   2.899   3.721   5.900 -0.6840  0.2025 -0.3420
 7030TIP3    H142505   2.918   3.663   5.973  0.4926 -0.8508 -1.4164
 7030TIP3    H242506   2.879   3.662   5.827 -0.4161  1.1589 -1.2246
 7031TIP3   OH242507   4.909   1.746  16.940 -0.8659  0.2478  0.0338
 7031TIP3    H142508   4.957   1.802  17.000  2.0038  1.5901 -3.1613
 7031TIP3    H242509   4.976   1.697  16.893 -2.8138 -0.2706 -2.4596
 7032TIP3   OH242510   1.185   2.361  15.318  0.0331  0.2612 -0.5318
 7032TIP3    H142511   1.205   2.267  15.313  0.7995  0.4841 -2.0355
 7032TIP3    H242512   1.090   2.364  15.333  0.1703 -0.7443  0.8031
 7033TIP3   OH242513   6.706   0.138   5.515 -0.8776  0.3140 -0.5252
 7033TIP3    H142514   6.797   0.155   5.491 -0.4564 -0.0612  0.7328
 7033TIP3    H242515   6.687   0.202   5.583 -0.7524 -1.1286  0.9419
 7034TIP3   OH242516   5.683   1.318   1.967  0.2531 -0.4311  0.1007
 7034TIP3    H142517   5.641   1.401   1.989 -3.2902 -1.9484 -0.1550
 7034TIP3    H242518   5.675   1.312   1.871 -1.9519 -2.0898  0.3148
 7035TIP3   OH242519   3.870   2.755   1.736 -0.3000  0.1346  0.4900
 7035TIP3    H142520   3.851   2.843   1.705 -1.2370 -0.8683 -2.0199
 7035TIP3    H242521   3.958   2.736   1.702 -1.1730 -0.8206 -1.4247
 7036TIP3   OH242522   2.031   2.558  16.901  0.1798  0.1148 -0.1120
 7036TIP3    H142523   2.063   2.524  16.817  0.1241  0.8557 -0.4466
 7036TIP3    H242524   2.108   2.555  16.958  1.0019  2.1552 -0.9947
 7037TIP3   OH242525   2.572   2.002  14.757  0.3270  0.4194 -0.3244
 7037TIP3    H142526   2.482   1.976  14.779  0.8624 -1.9277 -0.6143
 7037TIP3    H242527   2.586   2.083  14.806 -1.4186  0.0045  0.9827
 7038TIP3   OH242528   0.217   6.045   5.325  0.2062 -0.4101 -0.7665
 7038TIP3    H142529   0.153   6.012   5.262  0.6965 -0.3957 -1.2785
 7038TIP3    H242530   0.292   6.070   5.272  0.3414  0.3105 -0.2475
 7039TIP3   OH242531   6.612   3.960   5.786 -0.2986 -0.3240 -0.5684
 7039TIP3    H142532   6.699   3.991   5.811 -0.7158  0.2999  0.1575
 7039TIP3    H242533   6.555   4.035   5.803 -0.7877 -0.2708 -2.3235
 7040TIP3   OH242534   0.205   6.548   3.813 -0.2289 -0.0874  0.1735
 7040TIP3    H142535   0.290   6.564   3.773 -1.3347  0.6550 -2.0597
 7040TIP3    H242536   0.209   6.457   3.842  1.6164  0.2043  0.9410
 7041TIP3   OH242537   3.534   1.778  11.552 -0.3827  0.0968 -0.4422
 7041TIP3    H142538   3.625   1.771  11.580 -0.7995 -0.3385  0.8826
 7041TIP3    H242539   3.513   1.872  11.562 -0.9034 -0.2087  2.1496
 7042TIP3   OH242540   1.398   0.423  15.575  0.1521  0.6880  0.5157
 7042TIP3    H142541   1.304   0.432  15.556 -0.1239  0.6226  1.8043
 7042TIP3    H242542   1.404   0.424  15.670  1.5621  1.5783  0.4439
 7043TIP3   OH242543   4.753   1.050  13.178 -0.7363 -0.0972 -0.3648
 7043TIP3    H142544   4.739   1.094  13.262 -0.4259  0.0085 -0.3666
 7043TIP3    H242545   4.675   1.070  13.127 -1.0384 -0.3675 -0.0119
 7044TIP3   OH242546   5.218   0.824  11.710  0.8525 -0.5243 -0.1160
 7044TIP3    H142547   5.201   0.899  11.767  1.0963 -0.1006 -0.5927
 7044TIP3    H242548   5.156   0.758  11.738 -0.5238  0.4419 -0.7889
 7045TIP3   OH242549   6.242   0.212  13.412  0.1226  0.2817 -0.4606
 7045TIP3    H142550   6.230   0.279  13.344  0.0531  0.5077 -0.2265
 7045TIP3    H242551   6.255   0.131  13.363 -0.7154  0.3087 -0.7411
 7046TIP3   OH242552   0.425   5.381  16.356  0.2703 -0.1771 -0.4799
 7046TIP3    H142553   0.409   5.286  16.356  0.5728 -0.2304 -1.1388
 7046TIP3    H242554   0.401   5.409  16.444  0.3966 -0.9027 -0.2115
 7047TIP3   OH242555   6.328   0.446   4.694  0.0301  0.0894 -0.3671
 7047TIP3    H142556   6.372   0.401   4.622  0.5388  0.6438 -0.4157
 7047TIP3    H242557   6.363   0.535   4.690  2.3433 -0.5678  2.3750
 7048TIP3   OH242558   1.063   1.133   0.536  0.2713 -0.1515  0.1906
 7048TIP3    H142559   1.043   1.178   0.618  1.0903 -0.3184  0.4863
 7048TIP3    H242560   0.978   1.127   0.491 -0.1254  0.2349  0.8707
 7049TIP3   OH242561   2.034   4.902  12.519 -0.6832  0.2000  0.4875
 7049TIP3    H142562   1.976   4.976  12.538  0.5432  1.0684  1.0175
 7049TIP3    H242563   2.120   4.942  12.509 -0.4284 -0.8351 -2.0978
 7050TIP3   OH242564   2.366   2.951   3.888  0.3415 -0.4691  0.1921
 7050TIP3    H142565   2.345   2.914   3.802 -1.5958 -2.1934  1.3185
 7050TIP3    H242566   2.289   3.005   3.909  0.3906 -0.7932  1.2200
 7051TIP3   OH242567   2.971   5.703  13.674 -0.2575 -0.1826  0.0452
 7051TIP3    H142568   2.985   5.759  13.597 -0.7703  0.9472  0.7518
 7051TIP3    H242569   2.890   5.657  13.655 -0.6786  0.5072  0.1324
 7052TIP3   OH242570   3.911   1.868  16.001 -0.3116  0.4143 -0.0152
 7052TIP3    H142571   3.979   1.834  15.942  0.6102  0.6589  0.8705
 7052TIP3    H242572   3.960   1.916  16.068 -1.3864  0.7651  0.5383
 7053TIP3   OH242573   2.841   6.251   3.016  0.6024 -0.2505  0.2946
 7053TIP3    H142574   2.934   6.231   3.031  0.5189 -1.5026 -0.7025
 7053TIP3    H242575   2.839   6.290   2.928  0.6354  3.5787  1.8064
 7054TIP3   OH242576   4.345   6.008   3.312 -0.4196  0.1007  0.3714
 7054TIP3    H142577   4.363   6.053   3.229  0.5639 -1.1400 -0.1234
 7054TIP3    H242578   4.384   6.065   3.379 -0.0032  0.4470 -0.1522
 7055TIP3   OH242579   0.517   6.318  12.910  0.0212 -0.1004 -0.1732
 7055TIP3    H142580   0.461   6.319  12.988  0.5200  3.4470  0.3434
 7055TIP3    H242581   0.606   6.310  12.944  0.3124  2.2895 -0.1481
 7056TIP3   OH242582   6.428   2.729  13.991  0.0570 -0.4820 -0.3468
 7056TIP3    H142583   6.444   2.823  13.999  1.0092 -0.6634 -0.0337
 7056TIP3    H242584   6.459   2.707  13.903 -0.0799 -0.5195 -0.3861
 7057TIP3   OH242585   6.414   4.853   5.628 -0.2207 -0.0559  0.5833
 7057TIP3    H142586   6.478   4.893   5.688  0.3136  1.6050 -0.9977
 7057TIP3    H242587   6.344   4.918   5.621 -2.3179 -1.9439  2.4659
 7058TIP3   OH242588   4.380   5.760   3.416  0.5556 -0.0708 -0.2635
 7058TIP3    H142589   4.379   5.700   3.342  3.5235  1.2787 -1.6019
 7058TIP3    H242590   4.366   5.846   3.376  2.0961  0.6695  0.7102
 7059TIP3   OH242591   1.615   3.328  11.738  0.2041  0.0845  0.6359
 7059TIP3    H142592   1.691   3.370  11.779 -0.6443  1.4071  0.9490
 7059TIP3    H242593   1.637   3.235  11.735  1.0932  0.1903  2.3818
 7060TIP3   OH242594   3.397   1.559   2.437 -0.1968 -0.0823  0.3962
 7060TIP3    H142595   3.323   1.517   2.392  1.0487  0.8271 -2.7647
 7060TIP3    H242596   3.414   1.503   2.512 -2.0941 -2.0936 -0.5596
 7061TIP3   OH242597   5.149   4.313   2.201 -0.2462 -0.3692  0.7630
 7061TIP3    H142598   5.131   4.219   2.197 -0.8167 -0.2403  0.2029
 7061TIP3    H242599   5.070   4.354   2.168  0.9705  0.2290 -1.6285
 7062TIP3   OH242600   2.481   5.902   5.400 -0.3161 -0.6302 -0.1277
 7062TIP3    H142601   2.552   5.956   5.433 -0.1318 -1.6502  1.2716
 7062TIP3    H242602   2.519   5.814   5.393 -1.2243 -1.0403 -0.0657
 7063TIP3   OH242603   2.450   5.552  14.919 -0.1981 -0.3555 -0.6348
 7063TIP3    H142604   2.477   5.612  14.850 -0.1057  2.5329  1.6843
 7063TIP3    H242605   2.522   5.554  14.982 -1.1720 -1.1370  0.5504
 7064TIP3   OH242606   6.134   4.505   5.836  0.3747 -0.0311 -0.4491
 7064TIP3    H142607   6.115   4.563   5.762 -1.7876  0.8645  0.7003
 7064TIP3    H242608   6.229   4.512   5.848  0.6954  0.3185 -2.6652
 7065TIP3   OH242609   1.198   0.362  11.692 -0.2152 -0.2371 -0.4657
 7065TIP3    H142610   1.274   0.362  11.634  0.6777  0.6471  0.6654
 7065TIP3    H242611   1.219   0.297  11.759 -0.8328 -0.5864 -0.6059
 7066TIP3   OH242612   5.122   1.176  13.540  0.2116  0.2161 -0.1778
 7066TIP3    H142613   5.057   1.106  13.545  0.0638  0.3460 -0.2761
 7066TIP3    H242614   5.072   1.257  13.551  0.2818  0.3457 -0.7818
 7067TIP3   OH242615   5.060   0.134  15.113 -0.1571 -0.2375  0.1291
 7067TIP3    H142616   5.085   0.133  15.205 -2.9997 -1.5785  1.0020
 7067TIP3    H242617   5.132   0.092  15.067  0.7643 -0.6651  1.9071
 7068TIP3   OH242618   2.751   0.279  15.897 -0.2810  0.0320 -0.4422
 7068TIP3    H142619   2.817   0.333  15.854 -0.2163 -1.0560 -1.7614
 7068TIP3    H242620   2.679   0.273  15.834 -1.2451  0.4074  0.5869
 7069TIP3   OH242621   0.597   0.567  16.642 -0.3291  0.1886  0.3541
 7069TIP3    H142622   0.619   0.594  16.731  0.5228  0.7768 -0.0168
 7069TIP3    H242623   0.668   0.509  16.616 -1.2710 -1.0836  0.5251
 7070TIP3   OH242624   4.008   3.732   4.505 -0.1691 -0.3829 -0.2225
 7070TIP3    H142625   4.005   3.650   4.455 -0.5141  0.1354 -1.0621
 7070TIP3    H242626   3.925   3.775   4.486  0.6283  0.8815 -1.0209
 7071TIP3   OH242627   3.419   1.863   4.694  0.3336  0.2821  0.0704
 7071TIP3    H142628   3.407   1.907   4.778 -0.3054  0.7634 -0.2643
 7071TIP3    H242629   3.333   1.827   4.673  0.9245 -1.4684  0.5084
 7072TIP3   OH242630   3.530   1.613   6.803  0.0394 -0.0436  0.2520
 7072TIP3    H142631   3.463   1.567   6.854  0.7057 -2.3873 -0.8448
 7072TIP3    H242632   3.485   1.689   6.767 -1.4965 -0.5031  1.1056
 7073TIP3   OH242633   0.819   4.271  16.816  0.7544 -0.3603  0.4430
 7073TIP3    H142634   0.753   4.203  16.797  0.2886 -0.2563  1.6040
 7073TIP3    H242635   0.826   4.271  16.912  1.4305  0.5992  0.4031
 7074TIP3   OH242636   3.959   1.542   5.645 -0.2507 -0.1386 -0.0470
 7074TIP3    H142637   3.982   1.590   5.725 -1.3727 -1.0386  0.8561
 7074TIP3    H242638   3.906   1.468   5.676  0.4047 -1.2673 -1.5060
 7075TIP3   OH242639   3.154   0.731   3.815  0.2605  0.0661  0.1451
 7075TIP3    H142640   3.109   0.737   3.730 -1.6931  1.3466  1.2104
 7075TIP3    H242641   3.243   0.761   3.797  0.2336 -0.7820 -1.6596
 7076TIP3   OH242642   0.653   0.496   3.996  0.1374 -0.1864  0.3826
 7076TIP3    H142643   0.698   0.449   3.926  0.0225  1.5397 -0.9174
 7076TIP3    H242644   0.722   0.526   4.054  0.6442  1.4954 -1.0031
 7077TIP3   OH242645   0.608   3.606  13.023 -0.0997 -0.3081 -0.2845
 7077TIP3    H142646   0.570   3.655  13.096  3.1771  1.1913  0.6292
 7077TIP3    H242647   0.564   3.640  12.946  0.0607  2.0715  0.5923
 7078TIP3   OH242648   6.396   3.634  16.850  0.1226 -0.5640  0.0753
 7078TIP3    H142649   6.380   3.685  16.930 -0.0960  1.3242 -1.1072
 7078TIP3    H242650   6.440   3.555  16.880  1.2503  0.7008  1.9458
 7079TIP3   OH242651   3.618   5.541  13.049  0.0271 -0.5187 -0.3133
 7079TIP3    H142652   3.619   5.614  13.111 -1.0637  0.5491 -1.5048
 7079TIP3    H242653   3.593   5.465  13.102  2.1834 -0.2871  1.1535
 7080TIP3   OH242654   0.056   0.055  13.319 -0.3370 -0.2371 -0.0717
 7080TIP3    H142655   0.059   0.100  13.404 -0.6470 -0.2649 -0.0474
 7080TIP3    H242656   0.017   0.118  13.259  1.1160  0.2808 -0.5054
 7081TIP3   OH242657   3.490   0.266   0.839  0.0442  0.7450  0.3003
 7081TIP3    H142658   3.578   0.280   0.874 -0.0442 -0.6460  1.1600
 7081TIP3    H242659   3.503   0.247   0.746  0.9265 -1.6593  0.8379
 7082TIP3   OH242660   2.827   3.424   0.464  0.3502  0.0017 -0.2682
 7082TIP3    H142661   2.783   3.501   0.501  0.8009 -0.3474  1.0142
 7082TIP3    H242662   2.828   3.360   0.535 -0.4385 -1.3900 -1.4617
 7083TIP3   OH242663   4.664   0.389   5.080 -0.0622 -0.2133 -0.0348
 7083TIP3    H142664   4.632   0.321   5.140 -1.6962 -0.1961 -0.8215
 7083TIP3    H242665   4.601   0.460   5.089  0.9594  0.7307 -0.1092
 7084TIP3   OH242666   0.733   0.870   5.518 -0.2893  0.1430  0.4633
 7084TIP3    H142667   0.772   0.807   5.579  2.0297 -0.1410 -1.2129
 7084TIP3    H242668   0.805   0.927   5.492 -1.5040  1.0937 -1.0072
 7085TIP3   OH242669   4.994   0.940   6.046 -0.0016 -0.1934 -0.0132
 7085TIP3    H142670   5.055   0.934   5.973  0.2766 -0.6661  0.2578
 7085TIP3    H242671   5.050   0.950   6.123 -0.2676  3.8848 -0.1173
 7086TIP3   OH242672   2.666   2.544  15.470 -0.0991  0.1993 -0.0370
 7086TIP3    H142673   2.593   2.605  15.461  0.7914  1.2727 -0.3460
 7086TIP3    H242674   2.706   2.541  15.383  1.1178  0.8417  0.4645
 7087TIP3   OH242675   2.238   5.578  12.314 -0.0072  0.3482  0.0630
 7087TIP3    H142676   2.303   5.578  12.243 -0.9640 -0.3712 -0.8375
 7087TIP3    H242677   2.200   5.490  12.312 -0.1119  0.3445  1.4303
 7088TIP3   OH242678   2.224   2.067  13.807 -0.0863  0.1739 -0.4740
 7088TIP3    H142679   2.166   2.124  13.857  1.6240 -0.5837  2.6873
 7088TIP3    H242680   2.166   2.002  13.766 -1.6787  1.4983 -0.4152
 7089TIP3   OH242681   3.490   1.135   2.758  0.0799  0.0194  0.1778
 7089TIP3    H142682   3.416   1.074   2.750  1.4173 -1.5193 -1.5862
 7089TIP3    H242683   3.475   1.199   2.688  0.3324 -0.2373 -0.1177
 7090TIP3   OH242684   2.281   5.759   2.568 -0.3893 -0.0796  0.3422
 7090TIP3    H142685   2.188   5.783   2.565 -0.1053  1.1641  1.0074
 7090TIP3    H242686   2.282   5.674   2.613 -1.1271  0.3105  1.1199
 7091TIP3   OH242687   2.970   6.409   4.146  0.1135  0.1480 -0.3041
 7091TIP3    H142688   2.891   6.433   4.098 -0.2191  1.8393  0.9896
 7091TIP3    H242689   3.024   6.364   4.081 -2.0627 -1.4993 -1.0815
 7092TIP3   OH242690   4.316   5.683   2.450  0.3657  0.1557  0.1064
 7092TIP3    H142691   4.288   5.591   2.453  0.1348  0.0996 -1.8911
 7092TIP3    H242692   4.410   5.680   2.464  0.2082 -0.2718  1.0984
 7093TIP3   OH242693   6.474   2.966   1.226  0.2890 -0.3121  0.0587
 7093TIP3    H142694   6.428   3.036   1.272 -0.7050 -1.8248  1.4669
 7093TIP3    H242695   6.550   3.009   1.187  0.8739  1.2082  2.6214
 7094TIP3   OH242696   1.972   0.358  12.585  0.4400 -0.1442  0.1566
 7094TIP3    H142697   2.016   0.331  12.666  0.1013  0.3207  0.5050
 7094TIP3    H242698   2.026   0.430  12.552  0.5692 -0.3235 -0.0239
 7095TIP3   OH242699   3.488   1.705   2.716 -0.6221 -0.0339 -0.5220
 7095TIP3    H142700   3.489   1.703   2.811  0.6186 -0.6090 -0.5227
 7095TIP3    H242701   3.487   1.798   2.693 -1.5498  0.1036  0.0313
 7096TIP3   OH242702   3.563   1.968  14.546 -0.5657  0.6261 -0.0339
 7096TIP3    H142703   3.585   1.982  14.638  0.8851 -1.1890 -0.0319
 7096TIP3    H242704   3.648   1.968  14.501 -1.1942  0.8210 -1.2670
 7097TIP3   OH242705   4.840   0.008   1.385 -0.1656  0.9132 -0.4961
 7097TIP3    H142706   4.895   0.063   1.441 -0.9929  1.5792 -0.3182
 7097TIP3    H242707   4.855  -0.081   1.417 -0.6888  1.2852  0.8615
 7098TIP3   OH242708   5.411   6.007  12.601 -0.4180 -0.5953  0.0647
 7098TIP3    H142709   5.441   5.916  12.607  0.8991 -0.2175 -0.4323
 7098TIP3    H242710   5.462   6.053  12.668 -1.1089 -0.2199  0.3390
 7099TIP3   OH242711   4.209   1.738   0.708 -0.3095  0.3370  0.3347
 7099TIP3    H142712   4.287   1.784   0.677  0.3400 -1.3056 -0.5761
 7099TIP3    H242713   4.160   1.804   0.756 -0.2842  2.4966 -2.3605
 7100TIP3   OH242714   3.093   4.106   3.802 -0.5175 -0.0163 -0.0201
 7100TIP3    H142715   3.099   4.036   3.867  2.8451 -0.1955 -0.3518
 7100TIP3    H242716   3.102   4.186   3.853 -1.6023  0.0619  0.0705
 7101TIP3   OH242717   3.250   5.611  14.474 -0.1029 -0.4838 -1.2232
 7101TIP3    H142718   3.305   5.625  14.551  0.1685 -0.7907 -1.3559
 7101TIP3    H242719   3.229   5.699  14.443 -0.5166 -0.3585 -0.5882
 7102TIP3   OH242720   1.024   4.627  16.828 -0.1032 -0.8023 -0.5516
 7102TIP3    H142721   0.976   4.705  16.855 -1.3149 -1.8945  0.6206
 7102TIP3    H242722   1.093   4.660  16.770 -0.5653  1.1216 -0.0880
 7103TIP3   OH242723   3.896   0.192  14.440  0.3150 -0.2901 -0.5909
 7103TIP3    H142724   3.810   0.229  14.456  1.5880  2.4255  0.5215
 7103TIP3    H242725   3.889   0.153  14.352 -1.5070  1.5703 -1.3520
 7104TIP3   OH242726   4.242   5.247   0.092 -0.2682 -0.2747  0.3846
 7104TIP3    H142727   4.326   5.264   0.135  0.2278 -0.7467 -0.3822
 7104TIP3    H242728   4.177   5.270   0.158  0.4280  1.4622  0.5184
 7105TIP3   OH242729   4.709   2.586   5.592 -0.1655 -0.0144  0.5896
 7105TIP3    H142730   4.624   2.566   5.551 -0.9275  1.6187  1.2894
 7105TIP3    H242731   4.715   2.525   5.666 -1.3468  0.6931  1.3001
 7106TIP3   OH242732   0.854   4.027   1.125  0.2814 -0.2852  0.2174
 7106TIP3    H142733   0.898   4.108   1.100  1.5074 -1.0468 -0.1431
 7106TIP3    H242734   0.773   4.027   1.073 -1.3025  2.1306  2.3608
 7107TIP3   OH242735   4.030   2.047  13.528 -0.2304  0.7056 -0.3030
 7107TIP3    H142736   4.115   2.022  13.492 -0.4580 -0.1106 -0.2962
 7107TIP3    H242737   3.968   1.985  13.489 -1.0736  2.2350 -1.5134
 7108TIP3   OH242738   5.570   1.165   0.836  1.2101 -0.2328  0.3463
 7108TIP3    H142739   5.475   1.168   0.848  1.1264 -0.0565 -0.2911
 7108TIP3    H242740   5.589   1.245   0.786  1.3881 -1.3676 -1.4995
 7109TIP3   OH242741   3.438   1.914   3.682  0.9492  0.4180 -0.0297
 7109TIP3    H142742   3.373   1.978   3.711 -0.7374 -1.5996  0.9463
 7109TIP3    H242743   3.521   1.946   3.717  0.3359  2.4846 -0.3215
 7110TIP3   OH242744   0.759   5.897  13.048 -0.5218 -0.2059 -0.1915
 7110TIP3    H142745   0.689   5.921  13.109 -0.1293 -1.1863  0.7013
 7110TIP3    H242746   0.739   5.944  12.968 -2.5803 -0.9369 -0.1869
 7111TIP3   OH242747   6.563   4.969  17.087 -0.5205  0.2463  0.0554
 7111TIP3    H142748   6.638   4.942  17.035 -0.0708 -0.5506  1.0849
 7111TIP3    H242749   6.492   4.982  17.024  0.0443 -0.5629 -0.7572
 7112TIP3   OH242750   4.883   1.010  10.689 -0.5925 -0.3570 -0.0208
 7112TIP3    H142751   4.876   1.097  10.651  0.1559 -0.9152 -1.4891
 7112TIP3    H242752   4.792   0.983  10.705 -0.8540  0.3879 -0.2438
 7113TIP3   OH242753   2.450   4.274   3.744  0.1671  0.4001 -0.7581
 7113TIP3    H142754   2.447   4.181   3.767 -2.4244  0.2736 -1.2952
 7113TIP3    H242755   2.431   4.277   3.651 -1.5017  1.5153 -0.4307
 7114TIP3   OH242756   0.922   1.577  11.470 -0.7980  0.3353  0.2072
 7114TIP3    H142757   0.862   1.644  11.503 -2.1810 -0.8411  0.1680
 7114TIP3    H242758   0.875   1.495  11.482  1.6517 -0.9196  2.2096
 7115TIP3   OH242759   1.973   3.497   0.662 -0.2239 -0.5507 -0.0846
 7115TIP3    H142760   1.915   3.573   0.672 -0.4196 -0.5381 -1.1615
 7115TIP3    H242761   1.914   3.422   0.661  0.1321 -1.0191  3.5223
 7116TIP3   OH242762   2.751   2.940  16.508 -0.3962 -0.3373  0.5865
 7116TIP3    H142763   2.737   2.983  16.592 -0.0570 -2.2518  1.7041
 7116TIP3    H242764   2.685   2.871  16.506 -0.9304  0.1842 -1.1198
 7117TIP3   OH242765   5.127   1.507   1.753 -0.3119  0.1169 -0.0800
 7117TIP3    H142766   5.032   1.520   1.764 -0.2218  0.6115  0.1540
 7117TIP3    H242767   5.147   1.431   1.806 -0.7492 -0.6325 -0.9530
 7118TIP3   OH242768   4.630   1.285  14.880 -0.1757 -0.3174 -0.6884
 7118TIP3    H142769   4.649   1.335  14.959 -2.1960  1.5226 -1.2670
 7118TIP3    H242770   4.661   1.197  14.899 -1.0610 -0.0732  2.3409
 7119TIP3   OH242771   1.142   4.761  16.636 -0.2464 -0.2296  0.5052
 7119TIP3    H142772   1.102   4.844  16.609  0.6676  0.0264 -0.1149
 7119TIP3    H242773   1.227   4.786  16.672 -1.8999 -0.3851  5.1208
 7120TIP3   OH242774   2.026   5.422  12.432  0.7945  0.0873  0.0802
 7120TIP3    H142775   1.939   5.409  12.393  1.5301  0.6049 -1.8114
 7120TIP3    H242776   2.015   5.497  12.491 -0.5628 -1.2948  1.7041
 7121TIP3   OH242777   3.722   1.054   6.761  1.0588  0.0279 -0.2862
 7121TIP3    H142778   3.798   1.000   6.739  0.8592  0.1151 -1.2159
 7121TIP3    H242779   3.756   1.143   6.766  0.9263  0.1408 -1.2455
 7122TIP3   OH242780   3.478   0.855  15.406 -0.5946  0.2978  0.6241
 7122TIP3    H142781   3.442   0.852  15.495 -1.0679 -1.6940  0.4188
 7122TIP3    H242782   3.564   0.815  15.414  0.0067  1.5025  0.4168
 7123TIP3   OH242783   5.649   3.172   1.883 -0.0009  0.3856  0.2014
 7123TIP3    H142784   5.695   3.095   1.849  0.9542  1.4315 -0.9839
 7123TIP3    H242785   5.557   3.144   1.891  0.5680 -1.3153  1.2689
 7124TIP3   OH242786   2.090   4.813   5.106  0.5401 -0.1425 -0.4106
 7124TIP3    H142787   2.131   4.760   5.174  0.2758  0.1891  0.0158
 7124TIP3    H242788   2.010   4.847   5.148  0.8338  0.7922 -0.5884
 7125TIP3   OH242789   3.707   3.971  15.355 -0.1533  0.1470  0.1871
 7125TIP3    H142790   3.684   4.048  15.303 -0.5267 -0.8699 -1.2119
 7125TIP3    H242791   3.624   3.924  15.366  0.2957 -0.7222 -0.1053
 7126TIP3   OH242792   4.044   1.905  13.207  0.2873  0.3594 -0.4887
 7126TIP3    H142793   4.021   1.989  13.247  0.1785  0.0583  0.0935
 7126TIP3    H242794   3.962   1.873  13.170  0.2215  0.2767 -0.2722
 7127TIP3   OH242795   5.337   0.980  12.094 -0.0512 -0.3996  0.1643
 7127TIP3    H142796   5.309   0.892  12.068 -0.1984 -0.2502 -0.1972
 7127TIP3    H242797   5.422   0.967  12.134 -0.7531 -0.8964  1.5459
 7128TIP3   OH242798   5.644   2.911   4.222 -0.4870  0.0020  1.0843
 7128TIP3    H142799   5.689   2.993   4.239 -1.3268  0.4784  1.0354
 7128TIP3    H242800   5.643   2.902   4.127  3.0790 -2.0371  1.0638
 7129TIP3   OH242801   0.682   4.821   2.812 -0.3733 -0.7152  0.1214
 7129TIP3    H142802   0.763   4.771   2.804 -0.5431 -1.1829  1.2329
 7129TIP3    H242803   0.654   4.808   2.902 -0.3406  1.5236  0.5152
 7130TIP3   OH242804   0.256   6.353   1.089 -0.6779  0.1238  0.3116
 7130TIP3    H142805   0.204   6.302   1.028  0.9111 -1.9666  0.5911
 7130TIP3    H242806   0.344   6.355   1.051  0.2123 -0.7466  2.1906
 7131TIP3   OH242807   3.692   6.339  11.618  0.0692 -0.1338  0.2494
 7131TIP3    H142808   3.783   6.315  11.604  0.5741  0.1320  2.5856
 7131TIP3    H242809   3.671   6.399  11.547  2.0195  0.5350  0.1793
 7132TIP3   OH242810   2.997   5.334   2.948 -0.3914  0.6476  0.0721
 7132TIP3    H142811   2.925   5.385   2.910 -1.4255  0.0284  1.1223
 7132TIP3    H242812   2.954   5.258   2.987  0.5322  1.3485  2.6672
 7133TIP3   OH242813   5.765   1.453  13.639 -0.6611 -0.2578  0.3201
 7133TIP3    H142814   5.794   1.527  13.585 -0.8840 -1.7015 -1.9050
 7133TIP3    H242815   5.700   1.491  13.698 -0.8450  1.3398 -0.8345
 7134TIP3   OH242816   5.139   4.446  12.055  0.4198  0.0205  0.2665
 7134TIP3    H142817   5.065   4.493  12.018  0.7063  0.5428  0.3371
 7134TIP3    H242818   5.108   4.414  12.139  0.6420  1.2976  0.8543
 7135TIP3   OH242819   3.926   6.003  15.528 -0.1205  0.4509  0.3991
 7135TIP3    H142820   3.928   5.917  15.571 -1.0445  0.0695 -0.2947
 7135TIP3    H242821   3.835   6.016  15.505 -0.4833  2.7459  2.6569
 7136TIP3   OH242822   4.434   6.587   0.853  0.1964  0.0236  0.2675
 7136TIP3    H142823   4.377   6.510   0.863 -0.0752  0.1639 -0.1816
 7136TIP3    H242824   4.385   6.657   0.896 -0.4749  0.3863 -1.0497
 7137TIP3   OH242825   0.019   5.568   0.924  0.7055 -0.3201 -0.6407
 7137TIP3    H142826   0.014   5.543   1.017  1.9447 -0.3658 -0.5754
 7137TIP3    H242827  -0.025   5.496   0.878  1.9625 -1.3784 -0.2445
 7138TIP3   OH242828   0.223   1.713  12.815  0.3956 -0.2019  0.2665
 7138TIP3    H142829   0.303   1.676  12.776 -0.0361 -1.6366  0.6688
 7138TIP3    H242830   0.167   1.731  12.739  1.2771  1.3598 -0.0652
 7139TIP3   OH242831   6.310   5.051   0.470 -0.3137  0.6151  0.2003
 7139TIP3    H142832   6.371   5.123   0.490  0.7501 -0.4282  0.8093
 7139TIP3    H242833   6.246   5.054   0.541  0.3926  0.2518  0.8608
 7140TIP3   OH242834   0.176   6.317  17.135 -0.0176  0.3688  0.5037
 7140TIP3    H142835   0.118   6.243  17.153 -0.6900 -0.2416 -3.2920
 7140TIP3    H242836   0.123   6.377  17.084  1.4909  1.8875  0.6423
 7141TIP3   OH242837   6.672   5.463   1.156  0.2056  0.1021  0.3546
 7141TIP3    H142838   6.716   5.382   1.183 -0.8370 -2.0962 -3.6986
 7141TIP3    H242839   6.585   5.458   1.193  0.5257  0.0107  1.1073
 7142TIP3   OH242840   6.009   4.244  17.136 -0.2040  0.1701  0.2700
 7142TIP3    H142841   6.086   4.212  17.090  0.6265  0.5622  1.3405
 7142TIP3    H242842   5.957   4.288  17.069  0.4259 -0.2354 -0.4956
 7143TIP3   OH242843   1.912   5.391  14.661 -0.0066 -0.7040 -0.2258
 7143TIP3    H142844   1.844   5.362  14.722 -0.5752  3.6562  1.5936
 7143TIP3    H242845   1.993   5.379  14.710 -0.0154 -1.0722 -0.2978
 7144TIP3   OH242846   2.890   4.519   1.968  0.0634  0.3267 -0.3500
 7144TIP3    H142847   2.957   4.485   1.908 -1.9183 -1.3751 -1.7270
 7144TIP3    H242848   2.857   4.598   1.925 -0.5788 -0.2721 -0.9804
 7145TIP3   OH242849   2.383   0.327  12.659  0.4755  0.3586  0.4491
 7145TIP3    H142850   2.455   0.266  12.680  0.7872  0.3887 -0.4735
 7145TIP3    H242851   2.383   0.332  12.564  0.1361  1.4378  0.4877
 7146TIP3   OH242852   5.042   4.115   1.133 -0.2901 -0.2178 -0.3938
 7146TIP3    H142853   5.048   4.121   1.038  0.4807  2.1722 -0.2718
 7146TIP3    H242854   4.953   4.146   1.153 -0.7859 -1.6092 -0.3544
 7147TIP3   OH242855   3.114   6.620  12.901  0.5834  0.5116 -0.2199
 7147TIP3    H142856   3.115   6.536  12.947  4.2967  0.0358 -0.8551
 7147TIP3    H242857   3.062   6.677  12.957 -2.3923 -2.1908  0.0549
 7148TIP3   OH242858   6.459   0.653  15.051  0.4682  0.7913 -0.2018
 7148TIP3    H142859   6.471   0.586  15.118  0.6152 -0.3181 -1.2884
 7148TIP3    H242860   6.495   0.733  15.089 -0.5526  0.4833  1.4801
 7149TIP3   OH242861   3.868   5.703   5.193 -0.0962  0.2882 -0.1022
 7149TIP3    H142862   3.821   5.756   5.128 -0.1032  0.9876  0.4616
 7149TIP3    H242863   3.867   5.756   5.273 -0.2003 -0.6094  0.5143
 7150TIP3   OH242864   3.432   1.738  16.036 -0.6731 -0.2245  0.0567
 7150TIP3    H142865   3.355   1.752  15.981 -1.9964  0.3455  1.9440
 7150TIP3    H242866   3.436   1.643  16.048  0.9976 -0.6280 -2.7510
 7151TIP3   OH242867   1.757   0.053  12.969  0.3440  0.3907  0.1823
 7151TIP3    H142868   1.709   0.038  13.050  0.8923  2.8987  1.0571
 7151TIP3    H242869   1.812  -0.025  12.959 -0.8059 -0.6115  1.4065
 7152TIP3   OH242870   4.034   3.001   3.896 -0.0937  0.4871  0.7458
 7152TIP3    H142871   4.103   2.935   3.895  1.3401  1.9372  0.4402
 7152TIP3    H242872   4.036   3.037   3.984 -0.3549  0.6442  0.6898
 7153TIP3   OH242873   6.152   2.737  12.609 -0.0367 -0.5487 -0.5865
 7153TIP3    H142874   6.207   2.730  12.531 -0.4478  0.1238 -0.9544
 7153TIP3    H242875   6.062   2.735  12.575 -0.2166  0.4914 -0.2196
 7154TIP3   OH242876   2.442   4.640  10.905  0.1923 -0.4348  0.4557
 7154TIP3    H142877   2.524   4.643  10.955  1.1503  0.6573 -1.0579
 7154TIP3    H242878   2.441   4.722  10.856 -1.8253 -0.4444  0.4186
 7155TIP3   OH242879   2.981   2.941  17.047  0.0218  0.4151  0.4307
 7155TIP3    H142880   3.057   2.990  17.013 -0.4310  1.3333  0.7123
 7155TIP3    H242881   2.906   2.992  17.019 -0.4458  0.1183  1.1282
 7156TIP3   OH242882   5.124   0.263  12.106 -0.3736  0.3487  0.1535
 7156TIP3    H142883   5.056   0.232  12.046 -1.0322  2.0484 -0.0364
 7156TIP3    H242884   5.202   0.272  12.052 -0.6638  0.7792 -0.2001
 7157TIP3   OH242885   4.759   2.240  10.829  0.5295  0.8192 -0.5608
 7157TIP3    H142886   4.736   2.333  10.821  2.1744  1.2266 -0.9904
 7157TIP3    H242887   4.756   2.208  10.739 -1.9725 -0.0921 -0.2218
 7158TIP3   OH242888   4.303   1.292  11.293 -0.1032 -0.9710  0.0176
 7158TIP3    H142889   4.346   1.268  11.375  1.9294 -0.9129 -0.9630
 7158TIP3    H242890   4.351   1.243  11.226 -1.1022 -0.2956 -1.2325
 7159TIP3   OH242891   5.191   5.585  11.565  0.4748  0.3372  0.3370
 7159TIP3    H142892   5.137   5.528  11.619  0.6384 -0.7936 -0.6322
 7159TIP3    H242893   5.256   5.622  11.625  1.7584 -2.2327  0.6827
 7160TIP3   OH242894   1.105   3.712   1.428 -0.7081  0.2754  0.2281
 7160TIP3    H142895   1.032   3.762   1.465  1.1462  1.8552  1.9778
 7160TIP3    H242896   1.097   3.625   1.468 -0.5747  1.0079  1.9185
 7161TIP3   OH242897   0.105   6.754   5.905 -0.1011  0.4448  0.1136
 7161TIP3    H142898   0.098   6.811   5.828 -0.7175 -0.3476 -0.4421
 7161TIP3    H242899   0.038   6.787   5.965 -0.2849  0.4774 -0.1042
 7162TIP3   OH242900   0.787   2.795  12.335 -0.2988  0.1323  0.3682
 7162TIP3    H142901   0.875   2.768  12.310 -0.3269 -3.2867  3.1458
 7162TIP3    H242902   0.801   2.874  12.389  0.9595  0.1269  0.0830
 7163TIP3   OH242903   5.463   3.122   4.406  0.7700 -0.0176  0.4752
 7163TIP3    H142904   5.447   3.121   4.500 -2.6576  1.1813  0.0760
 7163TIP3    H242905   5.460   3.215   4.382 -0.2258 -0.3791 -0.9784
 7164TIP3   OH242906   0.568   0.161  14.441 -0.4647 -0.3141 -0.3557
 7164TIP3    H142907   0.568   0.066  14.436 -2.7709 -0.3744 -0.4931
 7164TIP3    H242908   0.658   0.185  14.463  0.2688 -2.4792 -0.8165
 7165TIP3   OH242909   0.444   3.837  14.481  0.6828  0.5908 -0.0392
 7165TIP3    H142910   0.478   3.787  14.407 -0.3700  0.7343 -0.6439
 7165TIP3    H242911   0.381   3.897  14.442 -1.4995 -0.7928  1.1565
 7166TIP3   OH242912   6.214   1.995  17.032 -0.0109  0.1557  0.0448
 7166TIP3    H142913   6.265   1.965  17.107  0.3722  1.0145  0.1347
 7166TIP3    H242914   6.128   1.956  17.045  0.8211 -2.0325 -0.5601
 7167TIP3   OH242915   2.611   1.495  14.643  0.0335 -0.4040 -0.1961
 7167TIP3    H142916   2.545   1.475  14.577 -0.1704 -1.3923  0.3011
 7167TIP3    H242917   2.636   1.586  14.625 -0.7820 -0.3246 -0.9653
 7168TIP3   OH242918   2.555   4.767   1.120  0.4705  0.7165 -0.2665
 7168TIP3    H142919   2.557   4.687   1.172 -0.8036  0.7660 -0.0985
 7168TIP3    H242920   2.501   4.744   1.044 -0.7846  1.6776  0.2911
 7169TIP3   OH242921   3.299   1.831  15.662  0.0281  0.3625 -0.3933
 7169TIP3    H142922   3.269   1.781  15.738 -0.9904  1.6902  0.1355
 7169TIP3    H242923   3.353   1.770  15.612 -2.8189 -1.9388 -0.9187
 7170TIP3   OH242924   2.925   6.603  15.174  0.1869 -0.2179 -0.0187
 7170TIP3    H142925   3.010   6.594  15.131  0.7396 -0.4143  1.0942
 7170TIP3    H242926   2.944   6.645  15.258 -0.6634 -1.2364  0.7120
 7171TIP3   OH242927   1.115   1.307   2.389 -0.4664 -0.6861  0.4614
 7171TIP3    H142928   1.166   1.227   2.399 -0.7784 -0.8213  1.0011
 7171TIP3    H242929   1.164   1.359   2.325 -0.3529 -1.3791 -0.0260
 7172TIP3   OH242930   4.615   0.024   5.020 -0.2179  0.3238  0.3737
 7172TIP3    H142931   4.699  -0.021   5.035 -0.3074 -0.1067 -0.3722
 7172TIP3    H242932   4.594   0.064   5.105  0.7642  0.4821  0.5618
 7173TIP3   OH242933   6.517   3.096  16.440 -0.3597 -0.0762  0.0044
 7173TIP3    H142934   6.510   3.192  16.444 -0.2308 -0.0413 -0.5464
 7173TIP3    H242935   6.441   3.068  16.389 -0.2855 -0.2488 -0.0136
 7174TIP3   OH242936   5.225   6.292   3.939 -0.1732 -1.4098  0.0010
 7174TIP3    H142937   5.192   6.210   3.903 -3.9071 -0.8891  1.6997
 7174TIP3    H242938   5.148   6.333   3.979  1.8061  2.2714  0.4862
 7175TIP3   OH242939   2.956   2.650   2.033  0.1472 -0.3262 -0.1457
 7175TIP3    H142940   3.040   2.637   1.990 -0.5379  0.1322 -1.7057
 7175TIP3    H242941   2.900   2.580   1.998 -0.0419 -0.8107  1.1016
 7176TIP3   OH242942   1.262   6.285  13.326  0.3551 -0.3685 -0.3082
 7176TIP3    H142943   1.342   6.236  13.345  1.2481  0.8225 -0.8450
 7176TIP3    H242944   1.224   6.302  13.412  2.4827  1.9167  0.3089
 7177TIP3   OH242945   1.281   0.375   0.951 -0.2086  0.5110 -0.6924
 7177TIP3    H142946   1.306   0.332   0.869 -0.7171 -0.5173 -0.3233
 7177TIP3    H242947   1.361   0.377   1.003 -0.4491 -1.1581 -0.2143
 7178TIP3   OH242948   1.166   0.721  14.324 -0.3298 -0.3826 -0.0113
 7178TIP3    H142949   1.111   0.704  14.401 -0.1183  1.3302  0.5488
 7178TIP3    H242950   1.104   0.728  14.251 -1.0160  2.1828  0.7140
 7179TIP3   OH242951   6.504   4.597  11.192 -0.5013  0.1031 -0.4127
 7179TIP3    H142952   6.573   4.608  11.257 -1.1744  2.2349  0.0239
 7179TIP3    H242953   6.513   4.507  11.161  2.3173  0.2562 -0.2344
 7180TIP3   OH242954   1.184   6.081  14.070  0.4075  0.2547 -0.0146
 7180TIP3    H142955   1.184   5.986  14.064  0.5688  0.1894  0.8551
 7180TIP3    H242956   1.238   6.100  14.147  0.1341  1.0322 -0.0047
 7181TIP3   OH242957   5.903   5.428  12.501  0.0765 -0.5239 -0.3072
 7181TIP3    H142958   5.891   5.349  12.553  0.7730 -1.6125 -1.7528
 7181TIP3    H242959   5.949   5.399  12.422  2.8305  1.7534  0.3005
 7182TIP3   OH242960   4.296   0.291  14.321  0.0650  0.5997  0.2093
 7182TIP3    H142961   4.308   0.236  14.243 -1.9383 -0.6103  0.6589
 7182TIP3    H242962   4.248   0.234  14.382 -1.3426  2.5766  1.0382
 7183TIP3   OH242963   5.308   2.033   1.127 -0.1290  0.5167  0.2575
 7183TIP3    H142964   5.300   2.095   1.055 -1.5412  0.4536  0.3374
 7183TIP3    H242965   5.221   2.031   1.168  0.1274 -0.8432  0.8066
 7184TIP3   OH242966   0.725   6.551  15.849  0.0334  0.6089  0.1956
 7184TIP3    H142967   0.781   6.474  15.847  0.5186  0.9515  0.3344
 7184TIP3    H242968   0.716   6.577  15.757  0.5550  0.8666  0.2114
 7185TIP3   OH242969   4.928   0.268   0.830  0.0278 -0.8534 -0.1445
 7185TIP3    H142970   4.906   0.195   0.774  0.5785 -1.8696  0.9218
 7185TIP3    H242971   5.015   0.247   0.864 -0.3235 -0.3084  1.1503
 7186TIP3   OH242972   5.068   4.296  14.010  0.1950 -0.0383  0.2993
 7186TIP3    H142973   5.007   4.295  14.084  0.4272 -0.2292  0.4904
 7186TIP3    H242974   5.100   4.387  14.008 -0.3731  0.1565 -0.0354
 7187TIP3   OH242975   2.005   3.897  14.184  0.2800 -0.3265 -0.3210
 7187TIP3    H142976   2.051   3.951  14.120  1.7185 -0.2862  0.6995
 7187TIP3    H242977   2.069   3.881  14.253 -1.0949 -0.6901  0.9389
 7188TIP3   OH242978   6.429   3.178   0.606 -0.0457  0.0835 -0.2500
 7188TIP3    H142979   6.420   3.098   0.553  1.1817 -1.0615  1.1856
 7188TIP3    H242980   6.367   3.165   0.678 -0.6327  0.9521 -0.5871
 7189TIP3   OH242981   4.231   0.857  12.377  0.7192 -0.0599  1.0431
 7189TIP3    H142982   4.231   0.776  12.326 -0.7602 -0.3855  1.5089
 7189TIP3    H242983   4.190   0.922  12.320 -1.5765 -0.5868  1.9564
 7190TIP3   OH242984   0.636   4.940  11.890  0.0204  0.1657 -0.2467
 7190TIP3    H142985   0.708   4.897  11.844  0.4208  0.5149  0.0449
 7190TIP3    H242986   0.676   4.977  11.969 -0.3808  0.7604 -0.3123
 7191TIP3   OH242987   5.838   1.672  15.228  0.6995 -0.1778  0.2703
 7191TIP3    H142988   5.869   1.697  15.315 -0.2372  3.1674 -0.2167
 7191TIP3    H242989   5.878   1.737  15.170 -0.9271 -0.6109 -1.3931
 7192TIP3   OH242990   2.313   0.663   3.468 -0.1407 -0.0951 -0.1722
 7192TIP3    H142991   2.296   0.753   3.441  1.1318  0.3396  0.3952
 7192TIP3    H242992   2.274   0.656   3.555  1.1133  0.4009  0.4436
 7193TIP3   OH242993   3.745   3.920   4.797  0.0033 -0.0626 -0.2729
 7193TIP3    H142994   3.734   3.998   4.743 -0.0722  0.0955 -0.0322
 7193TIP3    H242995   3.683   3.856   4.761 -1.0379  0.4986  0.4776
 7194TIP3   OH242996   6.714   2.684   3.510 -0.9892  0.1855 -0.4379
 7194TIP3    H142997   6.740   2.776   3.503 -1.2345  0.3607  0.7292
 7194TIP3    H242998   6.618   2.687   3.513 -0.9843 -0.0610  0.0837
 7195TIP3   OH242999   3.620   4.712  11.230  0.2998 -0.1063  0.1391
 7195TIP3    H143000   3.561   4.636  11.229  0.3652 -0.2137 -2.6436
 7195TIP3    H243001   3.563   4.786  11.251 -0.2714 -0.5672  0.2457
 7196TIP3   OH243002   6.474   3.170  12.255 -0.1556  0.3520 -0.1480
 7196TIP3    H143003   6.441   3.227  12.185 -0.1562  1.0113  0.3844
 7196TIP3    H243004   6.456   3.082  12.223  1.7549  0.5424 -1.9390
 7197TIP3   OH243005   6.478   6.448   0.392  0.2508  0.4973  0.0427
 7197TIP3    H143006   6.458   6.392   0.467 -0.1989 -0.5993 -0.8623
 7197TIP3    H243007   6.484   6.536   0.428  1.2320 -0.1546  1.5607
 7198TIP3   OH243008   5.412   1.395   0.250  0.0716 -0.0748  0.3986
 7198TIP3    H143009   5.472   1.334   0.206  0.8864 -0.1389  1.5666
 7198TIP3    H243010   5.361   1.340   0.310 -0.7256  0.0818 -0.1127
 7199TIP3   OH243011   1.346   6.029   0.820 -0.0149  0.2170 -0.0196
 7199TIP3    H143012   1.389   5.980   0.890 -0.1958 -1.0360 -0.7589
 7199TIP3    H243013   1.407   6.024   0.746 -1.1993 -1.2242 -0.9460
 7200TIP3   OH243014   4.083   2.515  15.922  0.4851  0.0913  0.0367
 7200TIP3    H143015   4.001   2.501  15.968 -0.1869  0.3377 -1.0388
 7200TIP3    H243016   4.118   2.597  15.958 -0.4405  0.7191 -0.4475
 7201TIP3   OH243017   2.665   0.861  13.955  0.5770 -0.1314 -0.4546
 7201TIP3    H143018   2.574   0.860  13.926  0.5419 -0.2106 -0.3445
 7201TIP3    H243019   2.660   0.849  14.050  0.6453  0.9892 -0.2984
 7202TIP3   OH243020   3.062   3.384  12.985 -0.1617  0.1851  0.0391
 7202TIP3    H143021   3.084   3.348  12.899 -1.4551 -0.9127  0.1386
 7202TIP3    H243022   3.142   3.428  13.014  0.9304 -1.1226 -0.8697
 7203TIP3   OH243023   2.057   1.240  14.443  0.2419  0.3331 -0.5473
 7203TIP3    H143024   1.995   1.241  14.370  1.4480  3.4130 -1.7038
 7203TIP3    H243025   2.132   1.191  14.409 -0.5935 -1.4241  0.0346
 7204TIP3   OH243026   3.547   3.357   3.430 -0.3798  0.1128 -0.0816
 7204TIP3    H143027   3.482   3.424   3.409  1.0219  0.9937 -1.9785
 7204TIP3    H243028   3.631   3.397   3.406  0.4852 -2.4565 -1.7765
 7205TIP3   OH243029   1.221   6.614  13.033  0.2159 -0.7026  0.0714
 7205TIP3    H143030   1.217   6.708  13.049 -0.2006 -0.8190  0.6920
 7205TIP3    H243031   1.299   6.602  12.980  2.2088 -0.3891  2.7355
 7206TIP3   OH243032   0.959   3.752   1.124  0.4282 -0.1211 -0.2177
 7206TIP3    H143033   0.932   3.844   1.121 -1.1156 -0.5016  0.6404
 7206TIP3    H243034   0.941   3.725   1.214 -0.1176 -1.5240 -0.7223
 7207TIP3   OH243035   2.986   6.652   2.335  0.1734 -0.8957  0.8433
 7207TIP3    H143036   2.902   6.616   2.365  0.4706 -1.5846  0.8692
 7207TIP3    H243037   2.988   6.740   2.371  0.4832 -1.6561  2.8149
 7208TIP3   OH243038   6.298   1.609  16.291 -0.6010  0.0705 -0.2158
 7208TIP3    H143039   6.269   1.661  16.366 -0.5659  1.0787 -0.8801
 7208TIP3    H243040   6.217   1.587  16.245 -0.5378  0.3704 -0.4694
 7209TIP3   OH243041   4.869   5.720  10.770  0.0312 -0.4275  0.3869
 7209TIP3    H143042   4.851   5.811  10.793 -1.6946 -0.5829 -0.1634
 7209TIP3    H243043   4.916   5.724  10.687 -0.1906 -0.0345  0.2778
 7210TIP3   OH243044   2.241   4.739  13.625  0.3350 -0.6448 -0.3586
 7210TIP3    H143045   2.337   4.749  13.623  0.3219 -0.5330 -0.3885
 7210TIP3    H243046   2.221   4.691  13.545  0.2259  0.4832 -1.0150
 7211TIP3   OH243047   1.625   1.921  13.438 -0.1375  0.1111 -0.2857
 7211TIP3    H143048   1.677   1.965  13.371 -1.7596  0.7464 -1.1941
 7211TIP3    H243049   1.661   1.833  13.443  0.7718  0.4212 -1.1402
 7212TIP3   OH243050   1.878   4.682  17.220 -0.2748 -0.4268 -0.7803
 7212TIP3    H143051   1.877   4.778  17.220 -3.2707 -0.3576 -0.8017
 7212TIP3    H243052   1.916   4.659  17.135  1.3142  0.6768 -0.4158
 7213TIP3   OH243053   6.029   2.870   6.462 -0.2595  0.2728 -0.0961
 7213TIP3    H143054   5.968   2.819   6.516  1.1756 -0.6860  0.6979
 7213TIP3    H243055   6.010   2.961   6.484 -1.9837  0.0491 -0.5473
 7214TIP3   OH243056   5.898   1.414  11.367  0.1107  0.2196 -0.3319
 7214TIP3    H143057   5.805   1.399  11.350  0.1106 -0.9063  0.5502
 7214TIP3    H243058   5.942   1.337  11.331  0.6410  0.4293 -0.1472
 7215TIP3   OH243059   1.489   4.465   5.612 -0.1473 -0.0041  0.1827
 7215TIP3    H143060   1.441   4.384   5.630  0.8594 -0.4522  0.9689
 7215TIP3    H243061   1.575   4.436   5.581 -0.0676  0.7738 -0.3629
 7216TIP3   OH243062   2.897   3.335   3.332  0.7236  0.1239 -0.1782
 7216TIP3    H143063   2.937   3.419   3.310  2.0054 -0.2697  0.5494
 7216TIP3    H243064   2.852   3.308   3.251 -0.0914  1.6992 -0.2742
 7217TIP3   OH243065   3.206   2.591   1.080 -0.8839  0.5538  0.0947
 7217TIP3    H143066   3.237   2.677   1.106  1.2389 -0.3671  0.8205
 7217TIP3    H243067   3.255   2.570   1.001 -0.8642 -0.2636  0.3093
 7218TIP3   OH243068   5.151   5.535   3.536 -0.1299  0.4423  1.2527
 7218TIP3    H143069   5.065   5.499   3.515 -0.3315 -0.1556  2.9204
 7218TIP3    H243070   5.179   5.580   3.456 -1.0778 -1.0960  0.0035
 7219TIP3   OH243071   4.103   4.027  14.319  0.3264  0.8783  0.1608
 7219TIP3    H143072   4.029   4.007  14.376  0.4632  2.1457  0.8192
 7219TIP3    H243073   4.175   3.975  14.354  0.3316  1.4241  0.9723
 7220TIP3   OH243074   3.874   2.594  15.599  0.6887 -0.6618 -0.3005
 7220TIP3    H143075   3.960   2.596  15.557  1.3684 -2.4541  0.8765
 7220TIP3    H243076   3.887   2.639  15.682  0.2593 -0.1721 -0.4993
 7221TIP3   OH243077   2.994   1.286  13.260  0.1337  0.4604 -0.1106
 7221TIP3    H143078   2.966   1.368  13.301 -0.9721  0.2046 -0.3225
 7221TIP3    H243079   3.089   1.295  13.250  0.2238  1.1269  1.1519
 7222TIP3   OH243080   4.750   1.589   6.213  0.3791  0.5756 -0.1160
 7222TIP3    H143081   4.723   1.674   6.248 -0.5049  0.0513  0.4971
 7222TIP3    H243082   4.679   1.530   6.236  2.3308 -1.0341  2.2237
 7223TIP3   OH243083   6.161   0.582  13.307  0.1894 -0.2839 -0.0430
 7223TIP3    H143084   6.257   0.586  13.305  0.1989  0.9407  1.1680
 7223TIP3    H243085   6.138   0.602  13.398 -1.3105  2.7092 -0.9659
 7224TIP3   OH243086   0.833   2.916  14.461 -0.1699 -0.2952  0.1636
 7224TIP3    H143087   0.766   2.960  14.513  1.1387  0.2295  1.4548
 7224TIP3    H243088   0.899   2.983  14.445  0.0731 -0.8082 -1.0893
 7225TIP3   OH243089   6.333   1.372   5.764 -0.1803 -0.2362 -0.4600
 7225TIP3    H143090   6.277   1.428   5.818  1.2453  1.5557 -0.7629
 7225TIP3    H243091   6.281   1.355   5.685 -0.0440  2.1438 -1.1346
 7226TIP3   OH243092   2.288   4.897   1.362 -0.3630  0.2660 -0.1058
 7226TIP3    H143093   2.242   4.897   1.446 -0.8439  1.0484 -0.3536
 7226TIP3    H243094   2.376   4.927   1.383 -0.6419  0.9993  0.0508
 7227TIP3   OH243095   1.720   6.743  13.674  0.2084 -0.3330 -0.0081
 7227TIP3    H143096   1.757   6.671  13.726  0.1150  0.8197  1.7586
 7227TIP3    H243097   1.694   6.809  13.739 -0.8208  0.8019 -1.4807
 7228TIP3   OH243098   1.383   1.761   0.315 -0.3065  0.0133 -0.4531
 7228TIP3    H143099   1.342   1.786   0.232  0.2772  0.6254 -0.5647
 7228TIP3    H243100   1.327   1.798   0.382  0.4517  1.5096 -0.6149
 7229TIP3   OH243101   5.541   5.195   0.814 -0.5116 -0.0692 -0.1851
 7229TIP3    H143102   5.490   5.274   0.801  0.7217  1.1867  2.0226
 7229TIP3    H243103   5.491   5.144   0.878 -1.4650 -1.2841 -1.8415
 7230TIP3   OH243104   4.749   4.687  13.676 -0.4256  0.5084  0.4473
 7230TIP3    H143105   4.724   4.694  13.584 -1.5830 -1.5544  0.5411
 7230TIP3    H243106   4.843   4.668  13.673  0.0581  2.7314 -0.1625
 7231TIP3   OH243107   4.031   2.645   5.287 -0.5163  0.1324 -0.4138
 7231TIP3    H143108   3.974   2.600   5.225 -0.9054 -0.7408  0.5517
 7231TIP3    H243109   4.003   2.614   5.373  1.5812 -0.5405  0.0876
 7232TIP3   OH243110   5.171   1.020  12.964 -0.1275  0.0428 -0.0287
 7232TIP3    H143111   5.224   1.072  12.904 -0.7852  0.0072 -0.6611
 7232TIP3    H243112   5.149   0.942  12.915  0.5748 -0.6975  0.8024
 7233TIP3   OH243113   0.097   3.872  11.185 -0.3135 -0.0144  0.3256
 7233TIP3    H143114   0.085   3.784  11.149  0.7246  0.0967 -0.3490
 7233TIP3    H243115   0.023   3.884  11.244 -1.6061 -0.5456 -1.1356
 7234TIP3   OH243116   1.556   2.698   3.540 -0.4549 -0.2269  0.3573
 7234TIP3    H143117   1.557   2.719   3.447 -0.7175 -1.9924 -0.0893
 7234TIP3    H243118   1.519   2.775   3.582  3.3562  2.3509 -0.4697
 7235TIP3   OH243119   4.470   4.984  14.136  0.5572 -0.0331  0.0566
 7235TIP3    H143120   4.520   4.926  14.078 -0.6655  0.5422 -1.6412
 7235TIP3    H243121   4.537   5.038  14.178  1.4813 -0.4442 -0.8352
 7236TIP3   OH243122   2.276   4.269  10.893 -0.1524 -0.2672  0.1529
 7236TIP3    H143123   2.232   4.257  10.809  0.8031 -0.6669 -0.3031
 7236TIP3    H243124   2.259   4.188  10.940 -0.9093  0.0614  0.4578
 7237TIP3   OH243125   2.541   1.315  15.945 -0.5323  0.0655 -0.1624
 7237TIP3    H143126   2.466   1.255  15.942 -1.9011  1.7280 -0.8311
 7237TIP3    H243127   2.568   1.324  15.853  0.2386 -0.1757  0.0259
 7238TIP3   OH243128   2.712   3.636   3.959 -0.6300 -0.0840 -0.0784
 7238TIP3    H143129   2.677   3.627   3.871  1.3401 -0.2331 -0.8935
 7238TIP3    H243130   2.646   3.596   4.016 -2.4448  0.9861 -1.3355
 7239TIP3   OH243131   0.284   0.894   6.393 -0.4589 -0.2182  0.4613
 7239TIP3    H143132   0.201   0.856   6.421 -1.0086  0.8452  0.3224
 7239TIP3    H243133   0.325   0.926   6.473  0.2507 -1.5261  0.6503
 7240TIP3   OH243134   4.839   5.357   3.613 -0.1283 -0.1266 -0.3334
 7240TIP3    H143135   4.836   5.264   3.638  0.4092 -0.1854 -0.4749
 7240TIP3    H243136   4.765   5.396   3.660 -1.2740 -0.8946 -1.4100
 7241TIP3   OH243137   2.434   4.793  15.960  0.4931 -0.2153 -0.2238
 7241TIP3    H143138   2.358   4.767  16.013 -1.4598  0.7774 -2.3180
 7241TIP3    H243139   2.490   4.843  16.020  0.4608 -2.5124  1.8560
 7242TIP3   OH243140   3.971   5.772   4.382  0.3212 -0.1114  0.0448
 7242TIP3    H143141   4.035   5.837   4.355 -0.3745  1.4274  1.8990
 7242TIP3    H243142   3.888   5.820   4.387 -0.0295 -0.8469  2.4137
 7243TIP3   OH243143   1.138   3.257  16.456  0.0640 -0.0293  0.0661
 7243TIP3    H143144   1.158   3.166  16.434  0.9929  0.2010 -0.0905
 7243TIP3    H243145   1.197   3.277  16.528  2.1056  1.3664 -1.8602
 7244TIP3   OH243146   1.261   6.581   5.684 -0.7612 -0.0282  0.3526
 7244TIP3    H143147   1.248   6.632   5.764 -0.2945 -0.4014  0.6773
 7244TIP3    H243148   1.188   6.605   5.627 -0.9129  0.4918  0.7635
 7245TIP3   OH243149   2.105   3.712   2.976  0.2969  0.3527  0.2601
 7245TIP3    H143150   2.114   3.700   3.070  3.9608 -0.6093 -0.0541
 7245TIP3    H243151   2.169   3.780   2.954 -1.9924  2.1776 -1.3695
 7246TIP3   OH243152   1.185   4.138   3.430 -0.3896 -0.3817  0.1051
 7246TIP3    H143153   1.101   4.140   3.475  0.0455 -0.0949  0.9163
 7246TIP3    H243154   1.249   4.122   3.499  0.0545 -2.7538 -0.7632
 7247TIP3   OH243155   6.561   3.666  13.773  0.2164  0.0161  0.3982
 7247TIP3    H143156   6.611   3.584  13.773 -1.0925 -0.8366  2.1486
 7247TIP3    H243157   6.474   3.641  13.740  0.3593  1.1349 -0.9352
 7248TIP3   OH243158   4.294   6.126  14.980  0.1872  0.3601 -0.1583
 7248TIP3    H143159   4.269   6.218  14.978  1.3989  0.7369  0.8297
 7248TIP3    H243160   4.322   6.110  15.070  1.2750 -0.6030 -0.6286
 7249TIP3   OH243161   1.327   1.138  14.238 -0.7730  0.1588 -0.5470
 7249TIP3    H143162   1.313   1.065  14.298 -2.5682 -0.2697 -1.4386
 7249TIP3    H243163   1.252   1.196  14.251  0.1194  1.3714 -0.5600
 7250TIP3   OH243164   0.499   0.768   0.170  0.2878  0.0562 -0.0010
 7250TIP3    H143165   0.481   0.860   0.192  1.2315 -0.0650  1.4187
 7250TIP3    H243166   0.586   0.770   0.129 -0.0136 -0.1313 -0.6650
 7251TIP3   OH243167   5.996   6.271   6.052 -0.2433 -0.7163  0.5357
 7251TIP3    H143168   5.969   6.234   6.135 -0.3402 -0.2200  0.7315
 7251TIP3    H243169   5.914   6.288   6.005 -0.2373 -0.1414  0.7209
 7252TIP3   OH243170   3.952   5.611   0.651  0.3576 -0.0276  0.2953
 7252TIP3    H143171   3.894   5.536   0.669 -0.9138  1.3951  2.7705
 7252TIP3    H243172   4.022   5.575   0.597 -0.2466 -2.9887  1.2975
 7253TIP3   OH243173   1.529   5.493   6.591  0.8391  0.6248 -0.8215
 7253TIP3    H143174   1.494   5.554   6.526  1.5876 -0.3582 -2.1943
 7253TIP3    H243175   1.452   5.447   6.625  0.4290  1.2180 -0.9392
 7254TIP3   OH243176   5.540   5.547  15.105 -0.5487  0.0189 -0.1491
 7254TIP3    H143177   5.541   5.453  15.085  0.2318 -0.0632  0.2360
 7254TIP3    H243178   5.627   5.564  15.142 -0.6828  0.8976 -0.2322
 7255TIP3   OH243179   6.483   4.213  16.041  0.8000 -0.0351  1.1564
 7255TIP3    H143180   6.573   4.240  16.024  0.7094  0.7302  1.7863
 7255TIP3    H243181   6.470   4.135  15.987  1.6155  0.2474  0.5290
 7256TIP3   OH243182   4.132   0.329   2.615  0.0996  0.5372 -0.4601
 7256TIP3    H143183   4.151   0.273   2.540  1.0449  1.4770 -0.9526
 7256TIP3    H243184   4.152   0.275   2.692  2.1601  0.5382 -0.9269
 7257TIP3   OH243185   0.329   1.506   1.922 -0.0116 -0.0052 -0.3050
 7257TIP3    H143186   0.272   1.465   1.857 -0.2066  0.5495 -0.4920
 7257TIP3    H243187   0.391   1.438   1.946  0.5371 -0.0221 -1.6334
 7258TIP3   OH243188   5.075   4.851   3.362 -0.0108 -0.9570  0.4592
 7258TIP3    H143189   4.985   4.837   3.332 -0.1512 -1.8106  1.2174
 7258TIP3    H243190   5.108   4.923   3.308 -1.1580 -0.6123  0.1896
 7259TIP3   OH243191   1.018   3.775  17.338 -0.4802 -0.6831 -0.2502
 7259TIP3    H143192   1.068   3.767  17.419  1.0299  0.5694 -1.0015
 7259TIP3    H243193   0.979   3.689  17.325  1.2712 -1.6398  0.5187
 7260TIP3   OH243194   6.322   1.468  12.912 -0.1376  0.5029 -0.1495
 7260TIP3    H143195   6.293   1.406  12.980  0.4398  0.9263  0.4961
 7260TIP3    H243196   6.276   1.549  12.933  0.7996  0.9189  0.3390
 7261TIP3   OH243197   1.932   6.489   3.199 -0.2930  0.0279  0.3245
 7261TIP3    H143198   1.936   6.502   3.294  2.0798  2.4705  0.0096
 7261TIP3    H243199   1.925   6.578   3.164 -1.1599 -0.8366 -1.8076
 7262TIP3   OH243200   1.693   5.802   0.590  0.0721 -0.3249  0.1796
 7262TIP3    H143201   1.711   5.834   0.501 -2.1389 -1.6784 -0.8538
 7262TIP3    H243202   1.600   5.817   0.602  0.1013 -1.2567  1.8132
 7263TIP3   OH243203   4.577   4.896   1.069 -0.3547 -0.2255  0.3493
 7263TIP3    H143204   4.505   4.883   1.008 -0.7888 -1.8720  1.1321
 7263TIP3    H243205   4.545   4.960   1.132  0.1314  1.5531 -1.1379
 7264TIP3   OH243206   3.049   2.993  12.568  0.1574  0.1648  0.1319
 7264TIP3    H143207   3.008   2.927  12.624  1.1200  1.2757  2.2950
 7264TIP3    H243208   3.141   2.967  12.564  0.1254  0.1747 -0.8811
 7265TIP3   OH243209   2.061   2.542  15.390 -0.0540  0.0334 -0.0805
 7265TIP3    H143210   2.114   2.582  15.459 -1.3381  0.3693  0.7226
 7265TIP3    H243211   2.014   2.614  15.350  0.0350 -0.2759 -0.7624
 7266TIP3   OH243212   3.165   2.150   5.995 -0.0408 -0.5823  0.0932
 7266TIP3    H143213   3.195   2.160   5.905 -0.2158 -2.4850 -0.2080
 7266TIP3    H243214   3.186   2.234   6.036  2.3036 -0.5046 -1.0706
 7267TIP3   OH243215   2.183   5.926  10.755 -0.3518  0.1980  0.5576
 7267TIP3    H143216   2.176   5.857  10.690 -0.1571 -1.3597  2.1299
 7267TIP3    H243217   2.100   5.975  10.747 -1.7691 -1.9467  1.2933
 7268TIP3   OH243218   2.209   2.039  11.175 -0.1404  0.0059  0.0087
 7268TIP3    H143219   2.118   2.067  11.167 -0.2508 -0.7035 -1.6499
 7268TIP3    H243220   2.210   1.950  11.141  0.5707 -1.3432  3.2042
 7269TIP3   OH243221   2.992   0.053   5.927  0.2345 -0.8048 -0.5252
 7269TIP3    H143222   3.015   0.106   6.003  0.9664 -0.6877 -0.8141
 7269TIP3    H243223   3.033  -0.032   5.943  1.0875 -0.5305 -1.1405
 7270TIP3   OH243224   2.696   0.540  16.130  0.2186 -0.9951 -0.1699
 7270TIP3    H143225   2.723   0.626  16.096 -2.6399 -0.9554 -2.8087
 7270TIP3    H243226   2.713   0.480  16.058 -0.9564 -1.9962  0.3577
 7271TIP3   OH243227   1.319   5.271   2.569 -0.1638  0.6223  0.5546
 7271TIP3    H143228   1.320   5.207   2.640 -2.0074  1.1323  1.0708
 7271TIP3    H243229   1.240   5.252   2.519 -0.3167  1.9723  0.2313
 7272TIP3   OH243230   3.035   5.144  11.389 -0.1879 -0.2899 -0.2469
 7272TIP3    H143231   3.055   5.237  11.394 -1.2590 -0.0669  0.3955
 7272TIP3    H243232   3.089   5.104  11.457  1.0718 -0.3199 -1.2218
 7273TIP3   OH243233   3.576   4.815   2.769  0.2970  0.2672 -0.1502
 7273TIP3    H143234   3.607   4.784   2.854 -0.0097 -2.2733 -0.8840
 7273TIP3    H243235   3.649   4.864   2.733  1.3408 -0.7070  0.5756
 7274TIP3   OH243236   5.995   3.540  13.208 -0.9460 -0.4804  0.6032
 7274TIP3    H143237   5.936   3.615  13.202 -0.5970 -0.0675  1.9577
 7274TIP3    H243238   6.080   3.578  13.229 -0.5626 -1.1946  0.3623
 7275TIP3   OH243239   0.669   4.406  13.133 -0.1884  0.1084 -0.7008
 7275TIP3    H143240   0.588   4.443  13.098 -0.6127 -1.0964 -1.0522
 7275TIP3    H243241   0.642   4.324  13.174  0.6884  0.2566  0.2078
 7276TIP3   OH243242   3.496   5.504   1.248  0.0477  0.0253 -0.1760
 7276TIP3    H143243   3.479   5.410   1.254 -2.3000  0.3950 -0.1014
 7276TIP3    H243244   3.497   5.534   1.338  0.1468  0.1777 -0.2281
 7277TIP3   OH243245   1.442   3.548  16.272 -0.4650 -0.1330  0.1831
 7277TIP3    H143246   1.352   3.527  16.249 -0.4359  0.9789 -1.0807
 7277TIP3    H243247   1.449   3.642  16.256  1.1579 -0.3515 -0.6369
 7278TIP3   OH243248   3.545   1.976   5.131  0.0457  0.2360 -0.2347
 7278TIP3    H143249   3.578   1.970   5.041  0.0427 -1.0517 -0.1656
 7278TIP3    H243250   3.618   1.948   5.185 -0.6182 -1.0532  0.0247
 7279TIP3   OH243251   6.545   0.417  16.837 -0.0414  0.6157  0.0252
 7279TIP3    H143252   6.596   0.481  16.788  1.2707  0.8403  1.6005
 7279TIP3    H243253   6.600   0.339  16.839 -1.8221 -0.8199 -2.2943
 7280TIP3   OH243254   2.524   0.559   4.398  0.4810 -0.9900 -0.4152
 7280TIP3    H143255   2.549   0.582   4.309 -0.3327 -2.4446 -1.0488
 7280TIP3    H243256   2.595   0.593   4.452  1.7552 -1.4147 -1.7567
 7281TIP3   OH243257   5.286   4.311   1.192 -0.0829  0.2332  0.1041
 7281TIP3    H143258   5.370   4.271   1.214  0.0181  1.3334  1.8595
 7281TIP3    H243259   5.221   4.243   1.209  0.3924 -0.4461 -0.7484
 7282TIP3   OH243260   4.375   2.334  16.669 -0.3082 -0.5779  0.1725
 7282TIP3    H143261   4.393   2.350  16.577 -1.4108  0.1871  0.0678
 7282TIP3    H243262   4.359   2.421  16.706 -1.0357 -0.9720  0.8187
 7283TIP3   OH243263   5.373   2.709   5.035 -0.2001  0.3542  0.1595
 7283TIP3    H143264   5.345   2.794   5.068 -1.1252  0.6027 -1.1965
 7283TIP3    H243265   5.467   2.708   5.049 -0.2937  1.2289  0.9928
 7284TIP3   OH243266   6.482   2.146   6.180 -0.6623 -0.0025  0.2035
 7284TIP3    H143267   6.488   2.181   6.269 -0.8480  0.6855 -0.0511
 7284TIP3    H243268   6.388   2.127   6.168 -0.8029  0.8881 -0.2063
 7285TIP3   OH243269   1.687   2.728  16.097 -0.1096 -0.5633  0.4221
 7285TIP3    H143270   1.772   2.738  16.142  2.0250 -3.5212 -2.4555
 7285TIP3    H243271   1.664   2.636  16.112 -2.4040 -0.0551  0.3149
 7286TIP3   OH243272   2.302   1.214  17.235  0.2933 -0.2641 -0.1845
 7286TIP3    H143273   2.249   1.148  17.280 -0.2749  0.6231  0.4782
 7286TIP3    H243274   2.336   1.270  17.305  2.4632 -1.0413 -0.5640
 7287TIP3   OH243275   6.026   0.711  16.135 -0.4692  0.1344 -0.7224
 7287TIP3    H143276   6.076   0.781  16.093  0.7155  0.3252  0.9063
 7287TIP3    H243277   5.974   0.756  16.203 -2.3344 -0.1613 -1.8803
 7288TIP3   OH243278   1.464   6.400  13.681  0.1769  0.5388 -0.1789
 7288TIP3    H143279   1.420   6.315  13.674 -0.8914  1.0833 -0.2676
 7288TIP3    H243280   1.557   6.379  13.675 -0.0991 -0.5541 -0.9103
 7289TIP3   OH243281   5.728   4.582  13.988  0.2522 -0.0929 -0.2380
 7289TIP3    H143282   5.677   4.599  14.068  0.0917  1.0644 -0.5681
 7289TIP3    H243283   5.810   4.628  14.002 -0.0542  0.7139 -1.0262
 7290TIP3   OH243284   0.883   0.386   0.538 -0.3648  0.5897  0.1174
 7290TIP3    H143285   0.978   0.392   0.547 -0.3949  0.7597  0.3255
 7290TIP3    H243286   0.848   0.436   0.612 -0.6221 -0.3646  0.6540
 7291TIP3   OH243287   4.014   4.242   4.347 -0.1204 -0.1705 -0.5403
 7291TIP3    H143288   4.107   4.221   4.355  0.3072  1.6141 -0.3738
 7291TIP3    H243289   3.975   4.163   4.310  1.5019 -0.8554 -0.8983
 7292TIP3   OH243290   1.446   0.166  15.772 -0.7664 -0.5489  0.3855
 7292TIP3    H143291   1.432   0.222  15.849  0.2142 -1.1757  1.0513
 7292TIP3    H243292   1.359   0.132  15.751 -1.0627 -0.3438  1.2094
 7293TIP3   OH243293   3.973   4.908  16.602  0.4404 -0.4157  0.5472
 7293TIP3    H143294   3.918   4.869  16.533  0.4126 -1.5387  1.1849
 7293TIP3    H243295   3.925   4.987  16.628  0.0726 -0.3773 -0.2031
 7294TIP3   OH243296   1.206   2.065  13.121 -0.4180  0.8332 -0.1960
 7294TIP3    H143297   1.134   2.065  13.184  0.3013  0.3738  0.6451
 7294TIP3    H243298   1.163   2.051  13.036 -1.2236 -0.7463  0.4200
 7295TIP3   OH243299   6.397   6.542   0.804  0.0661 -0.4456  0.1704
 7295TIP3    H143300   6.310   6.580   0.793 -0.1769 -0.8088  0.7919
 7295TIP3    H243301   6.399   6.511   0.894 -0.1564 -2.8583 -0.5777
 7296TIP3   OH243302   5.935   4.985  12.600 -0.2096 -0.1995  0.0600
 7296TIP3    H143303   5.862   4.926  12.584  0.6592 -1.7916  1.5455
 7296TIP3    H243304   5.912   5.030  12.681  0.6376 -1.1080  0.8349
 7297TIP3   OH243305   3.861   6.207   0.779 -0.0025  0.1867  0.2127
 7297TIP3    H143306   3.916   6.129   0.774 -0.1356  0.1148 -0.1839
 7297TIP3    H243307   3.806   6.202   0.701 -0.4582  0.3430  0.5234
 7298TIP3   OH243308   5.784   5.562  14.489 -0.7212  0.7502 -0.3715
 7298TIP3    H143309   5.716   5.550  14.422 -1.0356  0.8412 -0.0689
 7298TIP3    H243310   5.799   5.474  14.524 -0.1219  0.6020 -0.9772
 7299TIP3   OH243311   5.332   4.749  12.839 -0.0672 -0.1770 -0.1532
 7299TIP3    H143312   5.304   4.670  12.886 -2.2272  1.1910  1.0705
 7299TIP3    H243313   5.295   4.738  12.751  1.4821 -1.4329 -0.6944
 7300TIP3   OH243314   1.910   3.161  14.269 -0.9510  0.0191  0.4387
 7300TIP3    H143315   1.898   3.237  14.213 -1.3724 -0.1842  0.2417
 7300TIP3    H243316   1.995   3.125  14.244 -0.3361  0.9360  1.1637
 7301TIP3   OH243317   3.471   1.404   2.148  0.1898 -0.3883 -0.2970
 7301TIP3    H143318   3.418   1.468   2.101 -1.1666 -0.5144  0.9676
 7301TIP3    H243319   3.409   1.335   2.172  1.2243 -1.2217  0.0553
 7302TIP3   OH243320   5.960   3.925   4.629 -0.2285  0.1620 -0.3723
 7302TIP3    H143321   5.884   3.955   4.679 -0.2826  0.8760 -0.8675
 7302TIP3    H243322   5.936   3.838   4.598 -0.0430 -0.4621  1.1505
 7303TIP3   OH243323   1.723   5.051  13.641 -0.5003 -0.3319  0.2144
 7303TIP3    H143324   1.734   5.105  13.720  1.6738 -1.6968  0.9165
 7303TIP3    H243325   1.804   5.000  13.635 -0.8642 -0.7063 -2.6003
 7304TIP3   OH243326   2.176   2.856  17.056  0.1480 -0.3709  0.0775
 7304TIP3    H143327   2.255   2.905  17.075 -0.7158  1.2029 -0.2124
 7304TIP3    H243328   2.134   2.904  16.985 -1.3600 -0.8187  0.6234
 7305TIP3   OH243329   0.698   0.469   5.384 -0.3098  0.4049 -0.1639
 7305TIP3    H143330   0.703   0.509   5.471  1.3292 -1.7497  0.8186
 7305TIP3    H243331   0.787   0.477   5.349 -0.9290  1.1649 -1.6650
 7306TIP3   OH243332   5.855   3.900   1.783 -0.2129 -0.3886 -0.3458
 7306TIP3    H143333   5.847   3.935   1.695 -1.7452 -0.0675 -0.1094
 7306TIP3    H243334   5.808   3.817   1.781 -0.3554 -0.3279  0.1948
 7307TIP3   OH243335   6.704   5.518   1.824 -0.3059  0.3179  0.7848
 7307TIP3    H143336   6.730   5.552   1.739 -1.9087  1.6659  0.7890
 7307TIP3    H243337   6.771   5.550   1.885  1.0281 -0.9187  0.0370
 7308TIP3   OH243338   1.538   0.426  12.405  0.1167  0.0379 -0.8369
 7308TIP3    H143339   1.563   0.372  12.330  1.4128 -1.0804  0.3378
 7308TIP3    H243340   1.604   0.407  12.472 -1.1707  0.7386  0.7193
 7309TIP3   OH243341   6.139   0.515  11.912 -0.2290 -0.1981 -0.4099
 7309TIP3    H143342   6.206   0.531  11.979 -0.7951 -0.5445  0.2476
 7309TIP3    H243343   6.145   0.591  11.853 -0.3957  0.6145  0.5917
 7310TIP3   OH243344   1.953   2.103   4.189 -0.1948  0.3486  0.3639
 7310TIP3    H143345   1.941   2.197   4.200 -1.4953  0.1468  0.8192
 7310TIP3    H243346   1.980   2.093   4.098  1.2435  1.2466  0.6427
 7311TIP3   OH243347   4.748   3.347  11.712  0.5557  0.4329  0.0984
 7311TIP3    H143348   4.827   3.371  11.662 -0.1530  1.7489 -0.4451
 7311TIP3    H243349   4.710   3.275  11.662  0.0919  1.4432 -1.0654
 7312TIP3   OH243350   4.614   0.358   3.349  0.1611 -0.1844  0.2034
 7312TIP3    H143351   4.649   0.437   3.391  0.1735  0.1231 -0.3731
 7312TIP3    H243352   4.573   0.390   3.269  1.2112 -0.9040 -0.6435
 7313TIP3   OH243353   3.905   4.570   2.292  0.0162 -0.2766 -0.3541
 7313TIP3    H143354   3.982   4.527   2.330 -0.0286 -0.8335 -0.8783
 7313TIP3    H243355   3.841   4.499   2.283 -0.7259  0.2657  0.5002
 7314TIP3   OH243356   2.817   4.193  16.828  0.5197  0.1823  0.5977
 7314TIP3    H143357   2.839   4.145  16.749 -0.6655 -0.1263  0.4434
 7314TIP3    H243358   2.731   4.230  16.811  0.6997  0.9763  1.3531
 7315TIP3   OH243359   6.707   0.480  12.395  0.1894  0.3191  0.0716
 7315TIP3    H143360   6.792   0.437  12.391 -0.0354 -0.0510 -0.7973
 7315TIP3    H243361   6.722   0.568  12.359  0.1998  0.2505 -0.0897
 7316TIP3   OH243362   2.708   0.614   2.447  0.2456 -0.2815  0.7586
 7316TIP3    H143363   2.682   0.554   2.378  0.5239  0.7684 -0.2855
 7316TIP3    H243364   2.719   0.558   2.524  0.4944 -1.5629 -0.1740
 7317TIP3   OH243365   2.059   6.014   2.452  0.2918 -0.2278  0.1054
 7317TIP3    H143366   2.026   6.067   2.380  2.9503  1.0615 -0.2926
 7317TIP3    H243367   2.096   6.077   2.514  2.8201 -1.4764  0.0228
 7318TIP3   OH243368   1.199   0.462   0.476  0.4510  0.8382 -0.0814
 7318TIP3    H143369   1.164   0.447   0.389  0.1768  0.4452  0.0907
 7318TIP3    H243370   1.222   0.555   0.478  2.0269  0.5001 -1.1280
 7319TIP3   OH243371   4.554   3.373  15.187  0.0990  0.1511 -0.7683
 7319TIP3    H143372   4.619   3.367  15.117 -0.7159  1.9882 -1.7725
 7319TIP3    H243373   4.571   3.298  15.243 -0.1610 -2.3543 -3.7604
 7320TIP3   OH243374   1.148   3.314  13.310  0.0738 -0.0128 -0.0361
 7320TIP3    H143375   1.092   3.391  13.310 -0.6886 -0.5571 -0.0985
 7320TIP3    H243376   1.090   3.241  13.288  0.2577 -0.9865  2.3880
 7321TIP3   OH243377   3.933   6.252  10.468  0.3483 -0.3309 -0.4942
 7321TIP3    H143378   3.915   6.336  10.426  2.0522  0.3479  0.0140
 7321TIP3    H243379   4.007   6.216  10.419  2.5493  0.6009  1.8932
 7322TIP3   OH243380   0.773   2.743  11.814  0.2133 -0.6443 -0.0016
 7322TIP3    H143381   0.855   2.739  11.862  0.0033 -0.9661  0.3357
 7322TIP3    H243382   0.790   2.695  11.733  0.1972 -1.1832  0.3105
 7323TIP3   OH243383   2.657   4.029  12.764 -0.0809 -0.2532  0.5863
 7323TIP3    H143384   2.610   3.948  12.743 -0.7573 -0.0635  1.3214
 7323TIP3    H243385   2.591   4.085  12.803  0.2017  0.9429 -0.5643
 7324TIP3   OH243386   0.909   0.499  11.423 -0.4675 -0.2832  0.2461
 7324TIP3    H143387   0.843   0.485  11.491 -0.2914  1.0959  0.7498
 7324TIP3    H243388   0.862   0.542  11.352 -0.3842 -0.5551  0.0241
 7325TIP3   OH243389   1.626   3.410  13.605  0.4972 -0.3470  0.4233
 7325TIP3    H143390   1.564   3.470  13.565  1.6734  1.3311  1.0271
 7325TIP3    H243391   1.620   3.428  13.699 -1.3445 -3.3692  1.0141
 7326TIP3   OH243392   2.166   0.748  11.453  0.0791 -0.5786  0.7811
 7326TIP3    H143393   2.201   0.728  11.366 -0.3279 -0.2714  0.5374
 7326TIP3    H243394   2.099   0.815  11.436  1.6857  1.3462  1.5966
 7327TIP3   OH243395   6.154   5.110  12.455  0.2630  0.0736  0.2043
 7327TIP3    H143396   6.072   5.075  12.491 -1.7124  2.4417 -1.5923
 7327TIP3    H243397   6.190   5.165  12.525 -1.3587  1.3891  0.0813
 7328TIP3   OH243398   3.549   0.847   0.698  0.0458 -0.2924  0.0295
 7328TIP3    H143399   3.597   0.927   0.673 -2.8405  1.3752 -0.6716
 7328TIP3    H243400   3.607   0.802   0.759  2.3626  1.6633 -0.5737
 7329TIP3   OH243401   1.445   5.737  12.446  0.6114  0.0671  0.3988
 7329TIP3    H143402   1.364   5.787  12.451  0.3381 -0.1123 -1.6178
 7329TIP3    H243403   1.495   5.778  12.375  1.8206 -0.4941  0.8912
 7330TIP3   OH243404   4.277   6.375   0.908  0.2596  0.2518 -0.0459
 7330TIP3    H143405   4.209   6.381   0.841 -1.2744  0.7853  1.4801
 7330TIP3    H243406   4.275   6.284   0.937 -1.0384  0.6540  1.1910
 7331TIP3   OH243407   1.792   3.689   0.706 -0.1304  0.4952 -0.0322
 7331TIP3    H143408   1.698   3.671   0.701 -0.7621  2.9459  1.5543
 7331TIP3    H243409   1.801   3.778   0.673  1.6535  0.2903 -0.1622
 7332TIP3   OH243410   6.094   6.479   4.460 -0.2012 -0.0058  0.3916
 7332TIP3    H143411   6.119   6.552   4.516  0.9186  0.0679 -0.1862
 7332TIP3    H243412   6.175   6.453   4.416 -0.6363 -1.4007  0.3574
 7333TIP3   OH243413   2.981   3.348   5.859  0.4343  0.3415  0.4528
 7333TIP3    H143414   2.926   3.407   5.807  0.6927  1.9453  1.9047
 7333TIP3    H243415   3.063   3.343   5.810 -0.5105 -1.0864 -1.0940
 7334TIP3   OH243416   1.068   0.424   2.022 -0.6912  0.8392 -0.3592
 7334TIP3    H143417   1.088   0.455   2.110  0.3217  0.3778 -0.4023
 7334TIP3    H243418   1.079   0.501   1.966 -0.9351  1.0411 -0.1238
 7335TIP3   OH243419   1.341   0.533  16.420 -0.0570  0.7997 -0.1375
 7335TIP3    H143420   1.437   0.528  16.424  0.0582  2.6162  0.4802
 7335TIP3    H243421   1.323   0.622  16.388 -1.5283  1.5602  2.5434
 7336TIP3   OH243422   4.281   3.579   1.682 -0.3055 -0.0447  0.0099
 7336TIP3    H143423   4.263   3.566   1.775 -0.7679  0.4078 -0.0085
 7336TIP3    H243424   4.255   3.670   1.665  0.1346 -0.0035 -0.4772
 7337TIP3   OH243425   3.035   4.814  11.965 -0.0215 -0.0036 -0.3777
 7337TIP3    H143426   3.027   4.909  11.966 -0.1463 -0.0203  0.1126
 7337TIP3    H243427   2.948   4.782  11.991 -0.3834 -0.2749 -1.8171
 7338TIP3   OH243428   2.331   3.552  13.393  0.0268  0.6022  0.0914
 7338TIP3    H143429   2.237   3.540  13.379 -0.0174  2.8824 -2.2650
 7338TIP3    H243430   2.366   3.576  13.307  2.8009 -0.1603  0.8878
 7339TIP3   OH243431   1.702   5.977   1.688 -0.1898 -0.3816 -0.0257
 7339TIP3    H143432   1.795   5.976   1.667 -0.2000 -2.3215 -0.1881
 7339TIP3    H243433   1.695   6.035   1.764  0.7290  1.8351 -1.5441
 7340TIP3   OH243434   1.517   0.900   5.416  0.1916 -0.3289  0.8736
 7340TIP3    H143435   1.526   0.874   5.324 -0.3435  4.5210 -0.8330
 7340TIP3    H243436   1.424   0.892   5.434 -0.1989  1.4781 -0.1154
 7341TIP3   OH243437   0.854   3.711  13.820  0.3638  0.1297 -0.0077
 7341TIP3    H143438   0.838   3.769  13.745 -2.0468 -1.3041 -0.7196
 7341TIP3    H243439   0.866   3.770  13.894 -0.3738  1.5815 -0.9841
 7342TIP3   OH243440   2.292   2.543  14.583 -0.2472  0.0730 -0.1508
 7342TIP3    H143441   2.234   2.539  14.507 -1.4260  0.8738  0.6618
 7342TIP3    H243442   2.292   2.453  14.618  0.0091 -0.2133 -0.8765
 7343TIP3   OH243443   1.596   1.712  11.962  0.6124 -0.0693  0.2801
 7343TIP3    H143444   1.688   1.734  11.951  0.7348 -0.5989  0.2453
 7343TIP3    H243445   1.572   1.667  11.880  0.1688  0.5875  0.0378
 7344TIP3   OH243446   4.492   0.652  11.327  0.0116  0.0930  0.3886
 7344TIP3    H143447   4.441   0.657  11.247 -0.0880 -0.3364  0.4221
 7344TIP3    H243448   4.471   0.732  11.375 -2.0775 -0.9100  1.2699
 7345TIP3   OH243449   0.537   3.368  15.701 -0.2670 -0.0036 -0.3645
 7345TIP3    H143450   0.611   3.414  15.740 -1.1964  1.6625 -0.4294
 7345TIP3    H243451   0.527   3.289  15.753  0.1012  0.9104  1.1675
 7346TIP3   OH243452   2.843   5.299  16.116 -0.2456  0.4237 -0.5704
 7346TIP3    H143453   2.911   5.365  16.121 -0.4498  0.6803 -1.1130
 7346TIP3    H243454   2.868   5.233  16.180 -0.1422  1.1202  0.1111
 7347TIP3   OH243455   1.151   0.666  11.379  0.3434  0.1937  0.6501
 7347TIP3    H143456   1.099   0.588  11.401 -1.2074  0.9507 -0.1359
 7347TIP3    H243457   1.227   0.632  11.332 -0.1009 -0.8833  0.6827
 7348TIP3   OH243458   0.617   6.069  14.307  0.0075 -0.5032  0.0659
 7348TIP3    H143459   0.697   6.120  14.321  0.7439 -0.8853 -2.2228
 7348TIP3    H243460   0.628   6.031  14.219 -1.9564 -1.9456  0.3691
 7349TIP3   OH243461   3.180   1.326   4.701  0.1828 -0.0604  0.1665
 7349TIP3    H143462   3.245   1.260   4.674  0.9699 -0.2377  2.2890
 7349TIP3    H243463   3.177   1.319   4.796 -2.9996 -0.0402  0.1717
 7350TIP3   OH243464   4.139   0.129   5.498 -0.6594  0.0859  0.2085
 7350TIP3    H143465   4.126   0.101   5.588  0.5680  0.5782  0.5601
 7350TIP3    H243466   4.148   0.225   5.504  2.1679 -0.0685 -0.0118
 7351TIP3   OH243467   1.229   4.190  13.646  0.0358 -0.0984  0.0361
 7351TIP3    H143468   1.221   4.204  13.552  0.0114  2.2594  0.3231
 7351TIP3    H243469   1.193   4.270  13.685  2.2312  0.0258  1.9957
 7352TIP3   OH243470   2.795   2.571  11.898  0.3293 -0.7347  0.4229
 7352TIP3    H143471   2.808   2.649  11.953  0.1975 -0.3600 -0.0694
 7352TIP3    H243472   2.853   2.585  11.823 -2.3824  0.7375 -1.5862
 7353TIP3   OH243473   1.516   3.617   3.489 -0.0798  0.5576  0.5209
 7353TIP3    H143474   1.502   3.530   3.524  0.5123 -0.1493 -0.9054
 7353TIP3    H243475   1.513   3.605   3.394 -0.2626  2.1385  0.3019
 7354TIP3   OH243476   5.106   1.493  16.212  0.4980  0.0147  0.3085
 7354TIP3    H143477   5.012   1.505  16.217  0.8731  4.5372  3.8007
 7354TIP3    H243478   5.127   1.433  16.285  0.3933  0.3364  0.6069
 7355TIP3   OH243479   3.631   4.093   3.169 -0.0553 -0.5233  0.1391
 7355TIP3    H143480   3.614   4.068   3.078  0.3480  1.2289 -0.4575
 7355TIP3    H243481   3.545   4.114   3.206 -0.0331  0.8986 -0.5426
 7356TIP3   OH243482   4.731   2.830  14.035 -0.3653  0.2024  0.1916
 7356TIP3    H143483   4.701   2.788  14.116  1.1111  0.2695  0.7993
 7356TIP3    H243484   4.650   2.861  13.993 -1.1472  0.4461  1.7876
 7357TIP3   OH243485   1.543   1.442   4.450  0.6189 -0.6828  0.2508
 7357TIP3    H143486   1.448   1.438   4.459  0.2131  1.1630 -2.1599
 7357TIP3    H243487   1.560   1.527   4.410  3.4222 -0.5021  1.5485
 7358TIP3   OH243488   4.852   5.386  17.208  0.2694  0.3504  0.6646
 7358TIP3    H143489   4.925   5.422  17.157 -1.4805  1.1647 -1.4567
 7358TIP3    H243490   4.777   5.392  17.149 -1.1019 -2.5643  1.9189
 7359TIP3   OH243491   1.910   4.355  15.290  0.1564 -0.5489 -0.5416
 7359TIP3    H143492   1.978   4.288  15.282 -0.1241 -1.1320  1.4874
 7359TIP3    H243493   1.834   4.317  15.247  0.6333 -0.5548 -1.4113
 7360TIP3   OH243494   5.431   3.534  17.337 -0.9605  0.6612 -0.2123
 7360TIP3    H143495   5.470   3.448  17.355 -0.0871  0.5276 -2.4266
 7360TIP3    H243496   5.473   3.593  17.399 -0.8248 -0.3250  0.6581
 7361TIP3   OH243497   2.491   4.709  14.230 -0.1655 -0.1363 -0.3301
 7361TIP3    H143498   2.475   4.645  14.160 -1.2628  1.2848 -1.4597
 7361TIP3    H243499   2.565   4.761  14.198  0.3049 -0.4103  0.2872
 7362TIP3   OH243500   2.724   6.322   4.850 -0.0860  0.3637 -0.1579
 7362TIP3    H143501   2.658   6.271   4.898 -2.2171  2.3331 -0.8323
 7362TIP3    H243502   2.712   6.295   4.759 -0.2029  0.9792 -0.3254
 7363TIP3   OH243503   3.708   0.624  11.629 -0.2873  0.1076 -0.4344
 7363TIP3    H143504   3.782   0.593  11.681 -0.9264 -0.9826 -0.1431
 7363TIP3    H243505   3.635   0.569  11.656 -1.3801  1.6046 -0.2381
 7364TIP3   OH243506   0.057   0.154  16.698 -0.1260  0.6477 -0.2210
 7364TIP3    H143507   0.121   0.192  16.637  0.6459  0.5267  0.4866
 7364TIP3    H243508   0.080   0.062  16.703  0.9988  0.9527  1.5782
 7365TIP3   OH243509   2.223   6.004  12.793 -0.2209  0.2326 -0.2441
 7365TIP3    H143510   2.161   6.076  12.806  0.9728  1.2381  0.1623
 7365TIP3    H243511   2.211   5.947  12.869 -0.3558  0.6475  0.0477
 7366TIP3   OH243512   4.079   5.480  15.847 -0.0026 -0.3208  0.2159
 7366TIP3    H143513   4.014   5.548  15.868  0.4779 -0.3064  1.7547
 7366TIP3    H243514   4.163   5.522  15.861  0.3059 -1.1768  1.0411
 7367TIP3   OH243515   1.214   6.229   5.026  0.3618 -0.1579 -0.1227
 7367TIP3    H143516   1.229   6.318   5.055  2.9888 -0.9338  1.1903
 7367TIP3    H243517   1.237   6.229   4.933 -0.5850  0.6861 -0.3724
 7368TIP3   OH243518   0.846   3.163   3.334  0.2783  0.4947  0.1725
 7368TIP3    H143519   0.771   3.156   3.274  0.7868 -0.5077 -0.3787
 7368TIP3    H243520   0.824   3.236   3.391  0.2376  2.1540 -1.8733
 7369TIP3   OH243521   1.537   2.891  12.022  0.1716 -0.0891 -0.0897
 7369TIP3    H143522   1.585   2.808  12.025 -0.4211 -0.4389 -0.1042
 7369TIP3    H243523   1.595   2.953  12.066  0.3191 -0.6698  0.5604
 7370TIP3   OH243524   0.234   3.103   1.419 -0.9922  0.1465 -0.3576
 7370TIP3    H143525   0.236   3.116   1.324 -0.4262  0.0519 -0.3642
 7370TIP3    H243526   0.144   3.121   1.444 -1.0835  0.4353 -0.8796
 7371TIP3   OH243527   5.380   3.451   0.617  0.0867 -0.6983  0.1113
 7371TIP3    H143528   5.337   3.403   0.547  1.7936  0.0848 -1.5488
 7371TIP3    H243529   5.325   3.436   0.694 -2.2582 -0.9747 -1.5356
 7372TIP3   OH243530   5.659   6.078  11.331  0.5319 -0.2202  0.4140
 7372TIP3    H143531   5.730   6.143  11.333  0.2814  0.1081 -0.6006
 7372TIP3    H243532   5.697   6.000  11.371  0.2881  1.0403  3.3415
 7373TIP3   OH243533   5.038   6.653   4.361  0.4155 -0.0329  0.3850
 7373TIP3    H143534   5.047   6.740   4.401  0.0586  0.8261 -1.3228
 7373TIP3    H243535   5.122   6.639   4.317  0.2986 -0.3436  0.2623
 7374TIP3   OH243536   2.295   4.246   0.643 -0.2793  0.0289  0.3937
 7374TIP3    H143537   2.258   4.161   0.618  0.0769  0.0181 -0.0902
 7374TIP3    H243538   2.236   4.310   0.602 -0.1782  0.0146  0.2276
 7375TIP3   OH243539   4.631   6.171   2.348 -0.2491  0.5029  0.1673
 7375TIP3    H143540   4.704   6.230   2.335 -0.0536  0.4786  1.1047
 7375TIP3    H243541   4.580   6.210   2.418  0.8213 -1.2809  2.0372
 7376TIP3   OH243542   1.811   2.138  13.650  0.2962  0.0390 -0.0916
 7376TIP3    H143543   1.839   2.229  13.654 -2.7595  1.0475  1.5103
 7376TIP3    H243544   1.761   2.131  13.568 -0.3436  0.1292  0.2807
 7377TIP3   OH243545   5.801   4.067   4.057  1.2740 -0.2907 -0.4297
 7377TIP3    H143546   5.774   4.150   4.097  0.7680 -0.2495 -0.8441
 7377TIP3    H243547   5.845   4.019   4.127 -1.7506 -1.2958  0.9666
 7378TIP3   OH243548   3.488   5.573  11.459 -0.3197 -0.2070 -0.2171
 7378TIP3    H143549   3.456   5.573  11.369 -0.6797  2.4121 -0.1812
 7378TIP3    H243550   3.583   5.581  11.450 -0.3737  0.3072 -0.3982
 7379TIP3   OH243551   3.129   4.860   2.864  0.3671  0.2148 -0.2033
 7379TIP3    H143552   3.054   4.841   2.920 -0.0311  2.6771  0.2003
 7379TIP3    H243553   3.189   4.908   2.921  1.3618  0.0550 -1.0859
 7380TIP3   OH243554   1.811   5.090  15.601 -0.4207  0.2180 -0.6179
 7380TIP3    H143555   1.873   5.087  15.527  1.4830  0.1352  0.9007
 7380TIP3    H243556   1.865   5.114  15.676 -1.8293 -1.9503  1.2035
 7381TIP3   OH243557   2.746   6.753  17.220 -0.5141 -0.0329  0.6817
 7381TIP3    H143558   2.775   6.783  17.306  0.6652  1.4843 -0.1832
 7381TIP3    H243559   2.805   6.681  17.198 -1.6129 -1.2595  1.6315
 7382TIP3   OH243560   4.874   1.771  15.309  0.4019 -0.1662 -0.5159
 7382TIP3    H143561   4.819   1.705  15.352  0.8690  0.0315  0.4233
 7382TIP3    H243562   4.815   1.843  15.289 -0.5370 -1.5250 -3.2310
 7383TIP3   OH243563   6.513   2.681  11.994 -0.1289 -0.6487 -0.0749
 7383TIP3    H143564   6.471   2.746  12.050  1.1368  0.6682 -0.5921
 7383TIP3    H243565   6.452   2.669  11.922 -1.0180 -1.1186  0.7336
 7384TIP3   OH243566   3.912   2.965  17.083 -0.0847  0.7091  0.0897
 7384TIP3    H143567   3.995   2.918  17.088 -1.7423 -2.3976  1.0963
 7384TIP3    H243568   3.878   2.945  16.996  0.2904  2.2130 -0.4300
 7385TIP3   OH243569   4.833   0.238  14.753 -0.5660  0.0350 -0.6810
 7385TIP3    H143570   4.859   0.175  14.820  0.1706 -0.1236 -1.0977
 7385TIP3    H243571   4.743   0.260  14.774  0.2036  1.4191  1.4851
 7386TIP3   OH243572   4.769   4.997   2.436 -0.1580 -0.3855 -0.5727
 7386TIP3    H143573   4.825   5.027   2.507  0.2972 -0.9849 -0.6796
 7386TIP3    H243574   4.817   4.926   2.394  0.4116  1.1057 -2.6114
 7387TIP3   OH243575   1.630   1.986   1.288  0.4715  0.0880 -0.1888
 7387TIP3    H143576   1.577   1.959   1.213  0.5827 -1.2042  0.1605
 7387TIP3    H243577   1.673   2.066   1.261 -2.4227  1.7848 -0.1402
 7388TIP3   OH243578   4.777   4.642   2.628  0.4351 -0.3158  0.2834
 7388TIP3    H143579   4.723   4.565   2.612  0.8645 -1.1594  2.5674
 7388TIP3    H243580   4.793   4.679   2.540 -0.4847 -2.3088 -0.7883
 7389TIP3   OH243581   0.130   2.359   5.692  0.3436 -0.1043 -0.0324
 7389TIP3    H143582   0.047   2.393   5.722 -0.0402  0.0584 -1.2252
 7389TIP3    H243583   0.110   2.271   5.659  0.4402  0.2952 -1.2086
 7390TIP3   OH243584   5.023   1.499  10.754 -0.9989 -0.0364  0.5077
 7390TIP3    H143585   5.001   1.538  10.669 -1.2128  0.5649  0.8405
 7390TIP3    H243586   4.996   1.564  10.819  1.3555  0.5846  0.9728
 7391TIP3   OH243587   3.887   0.971  13.818  0.6800  0.3541 -0.1093
 7391TIP3    H143588   3.854   0.926  13.741  3.3183  0.2865 -1.3347
 7391TIP3    H243589   3.868   1.064  13.802  2.4084  0.5065 -1.5914
 7392TIP3   OH243590   4.719   5.117  16.389 -0.1619  0.1069  0.3005
 7392TIP3    H143591   4.754   5.201  16.359  4.0688 -2.0248 -1.6460
 7392TIP3    H243592   4.650   5.095  16.325 -0.6847  1.6186  0.3159
 7393TIP3   OH243593   0.069   1.257  14.339 -0.3744 -0.2006 -0.2932
 7393TIP3    H143594   0.046   1.312  14.413 -1.7771 -0.0808 -0.7838
 7393TIP3    H243595   0.093   1.318  14.270  1.3723 -0.3213  0.1636
 7394TIP3   OH243596   1.877   6.467   1.622 -0.0927 -0.4116 -0.5516
 7394TIP3    H143597   1.782   6.465   1.634 -0.2221  2.5920 -0.1487
 7394TIP3    H243598   1.890   6.449   1.529 -1.3527  1.8222 -1.2280
 7395TIP3   OH243599   1.176   3.849   1.009  0.1396  0.0622  0.1018
 7395TIP3    H143600   1.243   3.781   1.007 -0.2685 -0.3961 -2.9846
 7395TIP3    H243601   1.093   3.801   1.013 -0.1428  0.3072 -1.9009
 7396TIP3   OH243602   2.073   3.518   1.376  0.1971 -0.0725  0.0219
 7396TIP3    H143603   2.077   3.601   1.328  0.9893  0.0506  0.2816
 7396TIP3    H243604   2.108   3.453   1.315  0.0148 -0.1318 -0.0184
 7397TIP3   OH243605   2.087   3.910   5.442 -0.3152  0.2041 -0.1288
 7397TIP3    H143606   2.012   3.874   5.395  0.0496 -0.1874 -0.4125
 7397TIP3    H243607   2.066   4.003   5.453 -1.7957 -0.2588  1.5846
 7398TIP3   OH243608   0.791   5.592  16.711 -0.5705 -0.1179 -0.3250
 7398TIP3    H143609   0.770   5.509  16.669  0.9326 -0.9006  0.4009
 7398TIP3    H243610   0.779   5.575  16.804  2.0933 -0.3117  0.0525
 7399TIP3   OH243611   3.906   0.428   1.998 -0.9239  0.2621  0.3394
 7399TIP3    H143612   3.878   0.337   1.988 -2.3130  0.8481 -1.6803
 7399TIP3    H243613   3.951   0.430   2.083 -0.6358 -2.3378  0.3235
 7400TIP3   OH243614   2.758   2.294   3.015  0.5227  0.5507  0.2825
 7400TIP3    H143615   2.759   2.205   2.980 -0.7037  1.0928 -1.2945
 7400TIP3    H243616   2.712   2.287   3.099  0.4435 -0.3123  0.1737
 7401TIP3   OH243617   4.148   5.099   4.898 -0.3403  0.2085 -0.0764
 7401TIP3    H143618   4.199   5.179   4.884  1.5607 -0.2085  3.2422
 7401TIP3    H243619   4.067   5.129   4.937  0.4090  0.5909  1.2569
 7402TIP3   OH243620   3.840   5.600   4.639  0.8094 -0.7403 -0.0907
 7402TIP3    H143621   3.930   5.610   4.607  1.0084  1.5148  0.9376
 7402TIP3    H243622   3.785   5.630   4.566  1.0716  0.5699  0.2177
 7403TIP3   OH243623   5.789   6.061  12.362  0.3195 -0.4173  0.1029
 7403TIP3    H143624   5.833   6.022  12.286  0.3893 -2.6464  1.1958
 7403TIP3    H243625   5.859   6.085  12.422  0.2742  1.5258 -0.5685
 7404TIP3   OH243626   5.463   5.491  12.011 -0.2248 -0.0655  0.1053
 7404TIP3    H143627   5.398   5.561  12.011  1.0818  1.1886  1.2384
 7404TIP3    H243628   5.437   5.435  11.937 -1.4199  1.4639 -0.6907
 7405TIP3   OH243629   1.042   6.523   5.189 -0.4635  1.5457 -0.4868
 7405TIP3    H143630   1.088   6.529   5.105 -0.2193  0.5390 -0.4323
 7405TIP3    H243631   0.950   6.540   5.166 -1.5489 -4.1457 -2.1024
 7406TIP3   OH243632   3.176   1.745  10.774 -0.1408 -0.6536 -0.5908
 7406TIP3    H143633   3.105   1.690  10.742 -0.2095 -0.9907  0.1343
 7406TIP3    H243634   3.141   1.786  10.853  0.7053 -1.3631  0.1699
 7407TIP3   OH243635   2.263   1.461  12.020  0.1168  0.2062  0.3419
 7407TIP3    H143636   2.216   1.545  12.012 -0.4551 -0.1057  0.3632
 7407TIP3    H243637   2.329   1.464  11.951 -0.5373  0.2730 -0.3038
 7408TIP3   OH243638   3.283   5.988  16.413  0.3166 -0.0675  0.1483
 7408TIP3    H143639   3.210   5.965  16.470  1.2983 -0.2527  1.3791
 7408TIP3    H243640   3.274   6.082  16.400  0.8535  0.2547  1.8045
 7409TIP3   OH243641   4.782   5.447  11.925 -0.3488 -0.9480 -0.4009
 7409TIP3    H143642   4.710   5.403  11.971 -0.5728  0.3688  0.5590
 7409TIP3    H243643   4.860   5.397  11.951 -0.9156 -2.6944 -1.8421
 7410TIP3   OH243644   0.905   2.054  16.224  0.2074  0.6245  0.0580
 7410TIP3    H143645   0.911   2.130  16.166  0.1808  0.6503  0.0897
 7410TIP3    H243646   0.831   2.003  16.189  0.2259  0.6123  0.0376
 7411TIP3   OH243647   1.121   3.683  13.274  0.0366 -0.4966 -0.1776
 7411TIP3    H143648   1.052   3.700  13.339 -0.4420 -1.6562 -0.3601
 7411TIP3    H243649   1.198   3.660  13.326  0.4949  1.3613  0.0520
 7412TIP3   OH243650   5.088   0.502   5.716  0.6261  0.1694 -0.2294
 7412TIP3    H143651   5.183   0.492   5.718  0.6322  0.0767  2.3755
 7412TIP3    H243652   5.058   0.442   5.648  2.3344 -1.0568  0.0473
 7413TIP3   OH243653   3.748   1.392   2.707 -0.2123  0.3550  0.4500
 7413TIP3    H143654   3.797   1.431   2.779 -0.2940 -0.4516  0.9514
 7413TIP3    H243655   3.774   1.300   2.707  0.3398  0.4757 -1.0160
 7414TIP3   OH243656   0.764   5.859  10.618 -0.3742 -0.4822  0.0865
 7414TIP3    H143657   0.679   5.900  10.607 -0.0275  1.3043  3.1152
 7414TIP3    H243658   0.813   5.917  10.676  1.5822 -3.2574  1.4930
 7415TIP3   OH243659   1.950   2.873   0.276  0.0019 -0.1231  0.3384
 7415TIP3    H143660   1.991   2.954   0.244 -0.1626  0.5579  1.7756
 7415TIP3    H243661   1.923   2.828   0.196  4.0911 -0.9976 -0.8174
 7416TIP3   OH243662   0.857   6.341  11.385 -0.5725  0.2618 -0.1135
 7416TIP3    H143663   0.952   6.345  11.394 -0.3514 -0.9389 -1.3482
 7416TIP3    H243664   0.825   6.314  11.471  0.6478 -3.4692 -0.6219
 7417TIP3   OH243665   0.741   2.460   4.712  0.3300 -0.0626 -0.5799
 7417TIP3    H143666   0.806   2.474   4.643 -0.3550  2.4807 -0.7769
 7417TIP3    H243667   0.791   2.465   4.794  1.0258 -2.4170 -0.7648
 7418TIP3   OH243668   5.257   0.015  14.195  0.8985  0.0953  0.3932
 7418TIP3    H143669   5.177  -0.036  14.202  1.7294 -1.1407  1.5457
 7418TIP3    H243670   5.321  -0.044  14.155  1.7178  0.3975  1.1943
 7419TIP3   OH243671   5.162   2.388   5.359  0.1232 -0.3474  0.1140
 7419TIP3    H143672   5.069   2.408   5.352  0.2288  0.8990  1.5835
 7419TIP3    H243673   5.202   2.432   5.284 -0.3212  0.3710  0.2858
 7420TIP3   OH243674   5.510   2.360   2.003  0.4064  0.5217 -0.3345
 7420TIP3    H143675   5.591   2.323   2.039  0.1513 -1.5137 -1.7058
 7420TIP3    H243676   5.440   2.321   2.055  0.2169  0.6229 -0.5104
 7421TIP3   OH243677   3.478   2.206  12.287  0.1023  0.5273  0.3052
 7421TIP3    H143678   3.469   2.115  12.316  2.2761  0.8282  2.1671
 7421TIP3    H243679   3.572   2.224  12.293  0.1186  2.0696 -2.7674
 7422TIP3   OH243680   2.944   0.287  17.047 -0.4854 -0.4464 -0.1492
 7422TIP3    H143681   3.026   0.327  17.018 -0.2971 -0.9367 -0.3052
 7422TIP3    H243682   2.876   0.344  17.012 -0.2016  0.5171  0.8013
 7423TIP3   OH243683   5.056   3.028   3.204  0.3037 -0.2719 -0.0558
 7423TIP3    H143684   5.021   2.969   3.270 -1.0016  0.9307  0.3787
 7423TIP3    H243685   5.136   3.063   3.244 -0.0499 -0.1613  0.5714
 7424TIP3   OH243686   1.065   6.735   0.185  0.1095  0.2958 -0.3008
 7424TIP3    H143687   1.039   6.775   0.268 -0.8376  0.0537 -0.4600
 7424TIP3    H243688   1.009   6.658   0.177  1.8508 -1.0437 -0.0320
 7425TIP3   OH243689   6.751   4.513  11.343 -0.0527  0.2313  0.7554
 7425TIP3    H143690   6.783   4.473  11.262 -0.5413 -0.8143  1.0751
 7425TIP3    H243691   6.758   4.444  11.409 -0.8629  0.6841  1.3240
 7426TIP3   OH243692   2.682   3.414  17.288 -0.2064 -0.1068 -0.5247
 7426TIP3    H143693   2.740   3.418  17.212  0.4289  0.1323 -0.0335
 7426TIP3    H243694   2.599   3.450  17.256 -0.7321 -2.2585 -1.7917
 7427TIP3   OH243695   4.272   2.963   0.241  0.0439  0.4556  0.2052
 7427TIP3    H143696   4.202   2.974   0.305  0.6486 -1.5118  1.2762
 7427TIP3    H243697   4.350   2.996   0.285  0.5473 -1.3140  0.7098
 7428TIP3   OH243698   0.469   6.694   3.804  0.0005  0.2886  0.3154
 7428TIP3    H143699   0.483   6.600   3.796 -0.9032  0.2887 -2.0603
 7428TIP3    H243700   0.547   6.733   3.766 -0.6667  0.4267 -0.9774
 7429TIP3   OH243701   0.268   0.979  15.630  0.2296 -0.1131 -0.9338
 7429TIP3    H143702   0.233   1.068  15.633  0.4190  0.0134 -2.0151
 7429TIP3    H243703   0.334   0.976  15.699 -0.0960  0.4380 -0.5935
 7430TIP3   OH243704   3.387   0.885   4.388  0.4373  0.6070  0.4684
 7430TIP3    H143705   3.377   0.925   4.301 -1.1562  1.3623  0.9543
 7430TIP3    H243706   3.461   0.825   4.379 -1.2090 -1.2673 -2.1557
 7431TIP3   OH243707   0.700   4.271   4.775  0.0060 -0.1048 -0.5670
 7431TIP3    H143708   0.629   4.208   4.766  0.7961 -1.0126 -0.5456
 7431TIP3    H243709   0.667   4.335   4.839 -0.1879 -1.3852  0.6728
 7432TIP3   OH243710   2.245   6.074   5.015 -0.3285 -0.1902 -0.5728
 7432TIP3    H143711   2.237   6.024   5.096  0.5868 -1.4729 -1.2371
 7432TIP3    H243712   2.157   6.070   4.976 -0.6751  0.1151  0.1533
 7433TIP3   OH243713   0.811   4.858   5.176 -0.5038  0.0119 -1.0576
 7433TIP3    H143714   0.826   4.944   5.136  1.9924 -0.1168 -0.5904
 7433TIP3    H243715   0.745   4.873   5.243 -1.5216  1.1340 -2.2604
 7434TIP3   OH243716   0.858   2.669  15.459 -0.1396 -0.4269  0.1957
 7434TIP3    H143717   0.902   2.724  15.395  0.3741 -1.1700 -0.1085
 7434TIP3    H243718   0.785   2.630  15.411 -0.0238 -0.6312  0.1826
 7435TIP3   OH243719   4.382   1.069   0.175  0.2890 -0.3047  0.0934
 7435TIP3    H143720   4.357   0.984   0.212 -0.3781 -0.7450 -1.3109
 7435TIP3    H243721   4.299   1.110   0.152  0.6633 -1.0523 -3.0419
 7436TIP3   OH243722   1.383   2.656  15.162 -0.3393 -0.4623  0.1722
 7436TIP3    H143723   1.467   2.642  15.205  1.0998  2.8074 -1.2608
 7436TIP3    H243724   1.318   2.626  15.226  1.8200 -1.0589  2.2242
 7437TIP3   OH243725   6.532   4.386  12.911  0.1164 -0.9806 -0.4039
 7437TIP3    H143726   6.520   4.349  12.824 -0.0137  3.0162 -2.2924
 7437TIP3    H243727   6.447   4.424  12.934  0.0644 -2.1786  1.6907
 7438TIP3   OH243728   3.347   2.783  17.075 -0.2279 -0.2959 -0.1673
 7438TIP3    H143729   3.316   2.733  16.999  1.2344 -1.3065 -0.1417
 7438TIP3    H243730   3.319   2.731  17.151 -0.4159 -0.0515 -0.0704
 7439TIP3   OH243731   6.394   2.114   1.111  0.2085 -0.4852 -0.1932
 7439TIP3    H143732   6.401   2.101   1.206 -0.8606 -0.0095 -0.0284
 7439TIP3    H243733   6.430   2.200   1.095 -2.3801  0.7928  0.2662
 7440TIP3   OH243734   2.884   3.083  13.121 -0.1251 -0.0112 -0.3919
 7440TIP3    H143735   2.823   3.039  13.181 -0.1540  1.4102  0.7001
 7440TIP3    H243736   2.831   3.103  13.044 -1.1055  1.1805  0.5338
 7441TIP3   OH243737   1.245   2.907  12.072  0.2638 -0.2230  0.7573
 7441TIP3    H143738   1.340   2.916  12.074  0.2762  0.1097  3.5845
 7441TIP3    H243739   1.213   2.992  12.042  0.8599  0.1015  1.0271
 7442TIP3   OH243740   1.600   3.534   5.037 -0.0752 -0.0868 -0.2078
 7442TIP3    H143741   1.662   3.494   5.097  2.0327 -0.3359 -2.3777
 7442TIP3    H243742   1.566   3.461   4.985 -0.0809  0.3469 -0.8340
 7443TIP3   OH243743   2.091   1.645  11.635 -0.3197  0.0636 -0.0590
 7443TIP3    H143744   2.022   1.689  11.685  0.9026  1.3939  0.5291
 7443TIP3    H243745   2.172   1.664  11.683  0.8257  0.8331 -2.1751
 7444TIP3   OH243746   2.048   1.649   5.539 -0.3386 -0.0068 -0.1366
 7444TIP3    H143747   1.995   1.728   5.551  0.8130  0.8087 -0.1832
 7444TIP3    H243748   2.027   1.595   5.615  0.6621  1.4463  1.2645
 7445TIP3   OH243749   3.908   2.268  12.641 -0.0056  0.2082 -0.0945
 7445TIP3    H143750   3.906   2.272  12.546  0.5152  1.8908 -0.0711
 7445TIP3    H243751   3.996   2.239  12.663 -0.3011 -0.7419 -0.1110
 7446TIP3   OH243752   1.152   3.781   3.901  0.4305  0.6801 -0.0430
 7446TIP3    H143753   1.077   3.745   3.948 -1.1393  3.1220 -0.5361
 7446TIP3    H243754   1.193   3.840   3.963  0.3960  1.3013 -0.6013
 7447TIP3   OH243755   4.128   1.824  16.649  0.2514 -0.3824  0.2739
 7447TIP3    H143756   4.088   1.739  16.633  0.7099 -0.6867  0.6989
 7447TIP3    H243757   4.056   1.881  16.677  0.0148 -0.7471  0.4053
 7448TIP3   OH243758   1.685   0.601  16.277  0.3806 -0.3670  0.6617
 7448TIP3    H143759   1.762   0.591  16.333  0.6737  0.9838  0.5385
 7448TIP3    H243760   1.651   0.688  16.299 -1.3147 -1.0558  0.9486
 7449TIP3   OH243761   6.117   4.190  14.196 -0.1771  0.4297 -0.0319
 7449TIP3    H143762   6.063   4.248  14.251  0.6638  0.0468  1.2336
 7449TIP3    H243763   6.053   4.137  14.148 -0.9456  1.4428 -0.1692
 7450TIP3   OH243764   2.951   3.324  14.492  0.0677  0.1059  0.2098
 7450TIP3    H143765   2.981   3.340  14.582  0.6903  0.3602 -0.0382
 7450TIP3    H243766   2.992   3.393  14.440 -0.6170  0.2042 -0.2138
 7451TIP3   OH243767   3.108   1.370  12.847  0.6147 -0.6497  0.0465
 7451TIP3    H143768   3.201   1.381  12.826  0.5629 -2.0369 -1.1454
 7451TIP3    H243769   3.065   1.368  12.761 -0.4294 -0.6722  0.5590
 7452TIP3   OH243770   4.036   6.673   3.636 -0.5346 -0.5557  0.2312
 7452TIP3    H143771   4.118   6.632   3.663 -1.1323 -2.4479 -0.6913
 7452TIP3    H243772   3.983   6.602   3.602 -2.7314  0.5573  1.1099
 7453TIP3   OH243773   2.338   4.365   4.816 -0.0458  0.0514 -0.0088
 7453TIP3    H143774   2.339   4.352   4.911 -1.3786 -2.6125 -0.2512
 7453TIP3    H243775   2.274   4.300   4.784  0.0126  1.1908 -2.6853
 7454TIP3   OH243776   5.832   5.898   1.015  0.3194 -0.0539  0.4860
 7454TIP3    H143777   5.792   5.816   1.041  0.7571 -0.7890 -1.0152
 7454TIP3    H243778   5.835   5.894   0.919  1.1101  1.3419  0.4206
 7455TIP3   OH243779   4.074   3.009   4.180 -0.1030 -0.3607 -0.5395
 7455TIP3    H143780   4.147   2.950   4.195 -1.0448 -1.1538  1.1338
 7455TIP3    H243781   4.107   3.095   4.205  0.5370 -0.5585 -0.6861
 7456TIP3   OH243782   2.318   0.284   1.259 -0.2833 -0.1880 -0.1057
 7456TIP3    H143783   2.245   0.282   1.197 -0.1398  1.4941 -0.3773
 7456TIP3    H243784   2.392   0.315   1.208 -0.0765  0.8628  0.7742
 7457TIP3   OH243785   5.603   3.268  14.603 -0.1415  0.6668  0.0893
 7457TIP3    H143786   5.603   3.363  14.598 -1.1906  0.7164  0.7304
 7457TIP3    H243787   5.531   3.247  14.662  0.5148 -0.5063  0.5038
 7458TIP3   OH243788   3.057   0.444  15.414  0.0311  0.3170 -0.2750
 7458TIP3    H143789   3.053   0.388  15.337 -0.2974  0.2795 -0.2285
 7458TIP3    H243790   3.017   0.527  15.387 -0.7883  0.0395  0.0876
 7459TIP3   OH243791   0.048   1.677  16.900 -0.6096  0.3192 -0.3346
 7459TIP3    H143792   0.116   1.646  16.841  1.4687  0.9768  1.5668
 7459TIP3    H243793   0.041   1.609  16.968 -1.9522  0.2147 -0.5473
 7460TIP3   OH243794   2.878   6.204   5.470  0.2526  0.1972 -0.0468
 7460TIP3    H143795   2.947   6.216   5.406 -0.3817 -3.1579 -1.6043
 7460TIP3    H243796   2.903   6.124   5.517 -1.4786  0.1118  0.8059
 7461TIP3   OH243797   2.467   2.952   0.114  0.2651 -0.2813  0.2935
 7461TIP3    H143798   2.551   2.915   0.140  1.0794  1.4359  0.2861
 7461TIP3    H243799   2.468   2.950   0.018  0.4927  0.1059  0.2842
 7462TIP3   OH243800   6.148   1.293  14.200  0.4697  0.2475 -0.5260
 7462TIP3    H143801   6.055   1.301  14.221  0.4708  1.3417 -0.8844
 7462TIP3    H243802   6.167   1.368  14.144  1.6846  0.3082 -0.0770
 7463TIP3   OH243803   5.949   2.794   5.645  0.3265  0.2605 -0.1719
 7463TIP3    H143804   5.972   2.701   5.645 -0.5540 -0.0202 -2.0562
 7463TIP3    H243805   5.936   2.816   5.737  2.5335 -0.9343  0.4972
 7464TIP3   OH243806   6.710   2.584   5.531 -0.5963 -0.0211  0.3495
 7464TIP3    H143807   6.749   2.595   5.618 -0.8241 -0.6641  0.5424
 7464TIP3    H243808   6.656   2.506   5.539  0.6389 -1.0621 -0.7926
 7465TIP3   OH243809   0.670   0.343  11.089 -0.5620 -0.1405  0.3948
 7465TIP3    H143810   0.602   0.293  11.045 -2.1708  0.5198  1.9956
 7465TIP3    H243811   0.752   0.316  11.047 -1.9170  0.3317 -2.7788
 7466TIP3   OH243812   2.909   5.400  15.507 -0.0985  0.0637 -0.6098
 7466TIP3    H143813   2.934   5.327  15.564 -0.5884 -0.8712 -1.5441
 7466TIP3    H243814   2.869   5.358  15.431 -1.3196  1.3546 -0.7196
 7467TIP3   OH243815   1.441   3.817  16.289 -0.2040  0.5400 -1.0904
 7467TIP3    H143816   1.351   3.837  16.266 -0.6998  0.0658  0.3045
 7467TIP3    H243817   1.485   3.902  16.291 -0.7149  0.8138 -1.4019
 7468TIP3   OH243818   2.065   2.244   1.088  0.0249 -0.4150  0.6473
 7468TIP3    H143819   2.078   2.201   1.172  0.0122 -1.5663  0.0808
 7468TIP3    H243820   2.130   2.203   1.030  0.9660  1.2968  0.4033
 7469TIP3   OH243821   0.777   5.137  14.203  0.1128  0.2649  0.0996
 7469TIP3    H143822   0.710   5.098  14.147 -0.4220 -0.0163  0.9187
 7469TIP3    H243823   0.756   5.106  14.291  0.0188  1.9122  0.7008
 7470TIP3   OH243824   0.586   1.362  15.473  0.8512  0.4952 -0.1968
 7470TIP3    H143825   0.648   1.366  15.546  1.1080  0.9595 -0.4364
 7470TIP3    H243826   0.638   1.337  15.397  0.2736 -1.9104  0.1076
 7471TIP3   OH243827   3.295   2.432   2.975 -0.0130  0.1722 -0.4713
 7471TIP3    H143828   3.288   2.492   3.049  1.8023  0.2484 -0.3149
 7471TIP3    H243829   3.383   2.445   2.942  0.1512 -1.8145 -0.9546
 7472TIP3   OH243830   2.604   2.671  11.568  0.0973 -0.3977  0.3406
 7472TIP3    H143831   2.604   2.719  11.485 -1.0001 -0.6675  0.1652
 7472TIP3    H243832   2.657   2.724  11.627 -1.8001  1.5411  0.4158
 7473TIP3   OH243833   6.446   1.653   0.041  0.1667  0.2405  0.0431
 7473TIP3    H143834   6.378   1.589   0.062  0.8152  0.1178  2.0560
 7473TIP3    H243835   6.397   1.732   0.018 -0.6800 -0.1124  0.5498
 7474TIP3   OH243836   4.681   0.374   4.770  0.0298  0.6571  0.3448
 7474TIP3    H143837   4.744   0.302   4.782 -1.0008 -0.3011  0.1672
 7474TIP3    H243838   4.667   0.409   4.858 -0.5095 -0.2919  0.6531
 7475TIP3   OH243839   3.948   3.778  11.903 -0.1314  0.3936  0.0689
 7475TIP3    H143840   3.867   3.730  11.921  0.8318 -0.6847  1.7553
 7475TIP3    H243841   3.946   3.851  11.966  1.6215 -1.4300  2.4193
 7476TIP3   OH243842   0.934   1.893   3.565 -0.4956  0.1639  0.3969
 7476TIP3    H143843   0.966   1.925   3.481 -2.9882  1.0454 -0.3047
 7476TIP3    H243844   0.965   1.803   3.571  0.0525  0.2170 -1.2874
 7477TIP3   OH243845   3.539   4.417  12.827 -0.1518 -0.3599 -0.4448
 7477TIP3    H143846   3.529   4.451  12.916  2.1940 -1.5645  0.3474
 7477TIP3    H243847   3.525   4.493  12.770  0.6149  0.9410  1.0423
 7478TIP3   OH243848   5.292   6.429  11.745  0.2180  0.4501 -0.1603
 7478TIP3    H143849   5.297   6.338  11.717  0.1659  0.6398 -0.7928
 7478TIP3    H243850   5.235   6.471  11.681  0.1942  0.9195  0.1603
 7479TIP3   OH243851   6.345   5.612  15.699  0.5791 -0.5250 -0.4227
 7479TIP3    H143852   6.434   5.584  15.719  0.9927  0.7437 -0.4304
 7479TIP3    H243853   6.349   5.644  15.610  0.5443  1.2045  0.1652
 7480TIP3   OH243854   3.399   3.789  13.379 -0.3465  0.4823  0.0604
 7480TIP3    H143855   3.485   3.749  13.373 -0.8754 -1.2297  2.6496
 7480TIP3    H243856   3.344   3.738  13.319 -0.2590 -0.5523  0.8439
 7481TIP3   OH243857   4.533   0.579   1.416 -0.0903  0.3955 -0.7605
 7481TIP3    H143858   4.597   0.617   1.476  0.3404 -2.1937  0.5642
 7481TIP3    H243859   4.579   0.574   1.332  0.9459 -0.0309 -0.1917
 7482TIP3   OH243860   3.268   4.168  16.179 -0.2907  0.3628  0.2461
 7482TIP3    H143861   3.305   4.082  16.157 -1.8289 -0.4344  0.6420
 7482TIP3    H243862   3.242   4.159  16.271 -2.3116  0.5317 -0.2599
 7483TIP3   OH243863   1.487   0.073   1.418 -0.2984  0.0893 -0.4357
 7483TIP3    H143864   1.413   0.017   1.441 -0.3863 -0.5409 -2.1412
 7483TIP3    H243865   1.564   0.022   1.443 -0.4024  0.6905  1.2173
 7484TIP3   OH243866   4.922   2.770   3.724  0.1565  0.2595 -0.0475
 7484TIP3    H143867   4.851   2.739   3.669  0.3406  1.6194 -1.1218
 7484TIP3    H243868   4.884   2.775   3.812 -0.2536 -1.5645 -0.0828
 7485TIP3   OH243869   2.685   6.126  14.252 -1.5357 -0.3840  0.0608
 7485TIP3    H143870   2.610   6.102  14.199 -0.8653  0.5413 -1.3725
 7485TIP3    H243871   2.686   6.221  14.251 -0.7534 -0.3718  0.6636
 7486TIP3   OH243872   0.852   2.732   4.069  0.2723  0.1004 -0.1969
 7486TIP3    H143873   0.905   2.805   4.036  2.4810 -0.8593  0.9877
 7486TIP3    H243874   0.863   2.664   4.003  1.3472 -0.4193  0.4885
 7487TIP3   OH243875   2.560   6.515   3.008  0.3809 -0.4231  0.3295
 7487TIP3    H143876   2.620   6.500   3.081 -2.2040 -2.4027  2.2361
 7487TIP3    H243877   2.569   6.436   2.953 -1.4271 -1.4692  1.4434
 7488TIP3   OH243878   3.568   4.808   4.941  0.0957 -0.1030  0.6682
 7488TIP3    H143879   3.652   4.817   4.986  0.8885 -2.2287 -0.2386
 7488TIP3    H243880   3.564   4.715   4.917 -1.3822  0.4547 -1.5012
 7489TIP3   OH243881   3.780   4.901   3.441 -0.6529 -0.4696 -0.2951
 7489TIP3    H143882   3.767   4.931   3.351 -0.4920 -0.9227 -0.4715
 7489TIP3    H243883   3.708   4.941   3.490 -1.0923 -0.7092 -0.7374
 7490TIP3   OH243884   2.410   5.828  12.252  0.2296  0.0141 -0.0129
 7490TIP3    H143885   2.335   5.882  12.277 -3.0521 -1.5253 -5.0337
 7490TIP3    H243886   2.392   5.742  12.291  0.3441  0.0775  0.1823
 7491TIP3   OH243887   5.246   0.392   2.957 -0.7932  0.2745 -0.0992
 7491TIP3    H143888   5.248   0.461   3.023  1.0478  0.5390 -0.3828
 7491TIP3    H243889   5.261   0.312   3.006 -0.2618  0.3772 -0.0924
 7492TIP3   OH243890   4.802   2.042  15.023 -0.4993  0.1902  0.6755
 7492TIP3    H143891   4.874   2.021  15.082 -0.7005 -0.0857  0.8236
 7492TIP3    H243892   4.842   2.047  14.937 -0.4260 -0.6765  0.6553
 7493TIP3   OH243893   1.473   1.325  13.215 -0.5396  0.0778  0.0468
 7493TIP3    H143894   1.425   1.361  13.141 -0.1317 -0.6234 -0.5808
 7493TIP3    H243895   1.563   1.317  13.183 -0.6397 -1.6097  0.0932
 7494TIP3   OH243896   0.336   3.630   3.675  0.4946 -0.3042  0.5657
 7494TIP3    H143897   0.307   3.552   3.721 -1.0010  1.2850  2.5070
 7494TIP3    H243898   0.256   3.681   3.661  1.3411  0.6284 -1.1779
 7495TIP3   OH243899   1.711   3.373  12.167  0.3156  0.2341 -0.1210
 7495TIP3    H143900   1.693   3.427  12.244 -0.5875 -1.3774  0.8728
 7495TIP3    H243901   1.801   3.342  12.179  0.2985  0.2756  0.1086
 7496TIP3   OH243902   5.084   4.890   5.629  0.0564  0.0824  0.2225
 7496TIP3    H143903   5.152   4.860   5.569 -0.6353 -0.7826 -0.1578
 7496TIP3    H243904   5.130   4.910   5.710  0.4690 -3.4800  1.0259
 7497TIP3   OH243905   5.517   3.946   4.034 -0.1922 -0.2795  0.9676
 7497TIP3    H143906   5.487   3.865   4.074  0.7159 -0.9196  0.4055
 7497TIP3    H243907   5.613   3.942   4.041 -0.0342 -0.1468 -0.7049
 7498TIP3   OH243908   2.417   2.222   1.336  0.8713 -0.1489  0.0024
 7498TIP3    H143909   2.445   2.285   1.271  0.0490 -0.7655 -0.9817
 7498TIP3    H243910   2.327   2.248   1.357  0.0233 -1.7457 -1.4254
 7499TIP3   OH243911   2.703   3.372   1.623  0.2549  0.0528 -0.2441
 7499TIP3    H143912   2.752   3.291   1.639 -1.0517 -0.7310 -0.0786
 7499TIP3    H243913   2.612   3.350   1.644 -0.2595  1.3221 -1.0123
 7500TIP3   OH243914   2.571   1.815   0.028  0.0691  0.8358 -0.0693
 7500TIP3    H143915   2.568   1.759  -0.050  0.2501 -0.0864  0.5638
 7500TIP3    H243916   2.622   1.891   0.000  0.4254  0.3637 -0.7572
 7501TIP3   OH243917   2.385   1.498  14.415  0.2019 -0.3862 -0.3863
 7501TIP3    H143918   2.305   1.489  14.467  0.1455 -0.3524 -0.4680
 7501TIP3    H243919   2.367   1.452  14.333 -0.8435  2.0937 -1.6758
 7502TIP3   OH243920   3.081   1.630   4.884 -0.3999  0.4101  0.2403
 7502TIP3    H143921   3.063   1.724   4.875 -0.5660  0.3436 -0.1471
 7502TIP3    H243922   3.173   1.622   4.858 -0.1944  0.5563  0.9063
 7503TIP3   OH243923   5.425   2.467   5.994  0.3233 -0.3764 -0.0895
 7503TIP3    H143924   5.358   2.527   6.026 -0.2351 -0.0315 -1.8005
 7503TIP3    H243925   5.376   2.398   5.948  1.1173  0.2555 -1.9755
 7504TIP3   OH243926   0.937   0.350   1.766 -0.0757  0.1652  0.2383
 7504TIP3    H143927   0.979   0.390   1.842  0.7532 -0.8718  0.3577
 7504TIP3    H243928   0.921   0.422   1.706 -2.9629  1.4613  2.3191
 7505TIP3   OH243929   5.757   2.959  17.264 -0.4842 -0.0068  1.1327
 7505TIP3    H143930   5.684   2.906  17.297 -0.8720 -0.2611 -0.0500
 7505TIP3    H243931   5.716   3.019  17.201  0.3677 -0.4677  0.1072
 7506TIP3   OH243932   2.157   1.956   0.279 -0.4234 -0.4705 -0.1770
 7506TIP3    H143933   2.133   2.009   0.204 -0.2301  0.4938  0.4265
 7506TIP3    H243934   2.178   2.019   0.348  0.8358 -1.3025  0.2421
 7507TIP3   OH243935   1.052   6.271   1.235 -0.1293 -0.6048 -0.0586
 7507TIP3    H143936   1.083   6.182   1.254 -1.4340 -1.2405 -0.7788
 7507TIP3    H243937   0.994   6.261   1.160 -1.4878  0.6094  0.7643
 7508TIP3   OH243938   1.506   6.013   2.263 -0.4343 -0.0124 -0.2153
 7508TIP3    H143939   1.442   6.038   2.197 -2.6431 -1.5378  1.2232
 7508TIP3    H243940   1.580   5.978   2.213 -1.0134  1.0796 -1.9090
 7509TIP3   OH243941   0.776   6.163  17.159  0.6933 -0.1115  0.7230
 7509TIP3    H143942   0.696   6.208  17.129  0.6227 -1.2662 -0.9861
 7509TIP3    H243943   0.744   6.097  17.221  0.2853 -0.6267 -0.0167
 7510TIP3   OH243944   5.259   0.440  17.221 -0.2089 -0.8258 -0.2720
 7510TIP3    H143945   5.340   0.464  17.266 -0.0391  0.1488 -1.0467
 7510TIP3    H243946   5.281   0.362  17.171  0.5267 -0.0594 -1.1741
 7511TIP3   OH243947   4.988   2.680   4.208 -0.3095 -0.1303  0.8863
 7511TIP3    H143948   5.059   2.683   4.143 -0.1479  3.1923  1.0534
 7511TIP3    H243949   5.027   2.640   4.285  1.3306  1.2994  0.8443
 7512TIP3   OH243950   6.153   0.361  11.561  0.2596 -0.0788 -0.5652
 7512TIP3    H143951   6.113   0.308  11.492  1.0379  1.2013 -2.0512
 7512TIP3    H243952   6.134   0.452  11.536 -0.6534  0.4205  1.6818
 7513TIP3   OH243953   0.688   6.754  11.166  0.0131 -0.4952 -0.0263
 7513TIP3    H143954   0.765   6.770  11.110  0.5933  0.2031  0.9307
 7513TIP3    H243955   0.613   6.770  11.109  0.5864  0.7423 -0.4872
 7514TIP3   OH243956   1.275   6.524  12.131  0.2078 -0.2680 -0.2491
 7514TIP3    H143957   1.226   6.510  12.212  2.5160 -1.3216  1.0640
 7514TIP3    H243958   1.258   6.446  12.079  0.1505 -0.4314  0.0110
 7515TIP3   OH243959   1.761   4.750  11.378  0.3402 -0.3189 -0.2190
 7515TIP3    H143960   1.848   4.710  11.373  1.4006  1.8769 -0.6492
 7515TIP3    H243961   1.708   4.686  11.426  2.2557 -1.5897  0.3323
 7516TIP3   OH243962   2.410   4.847  12.168 -0.2184  0.1623  0.9304
 7516TIP3    H143963   2.329   4.853  12.217 -2.0851 -1.4596 -1.7005
 7516TIP3    H243964   2.442   4.758  12.184  1.9849  1.2310  3.1305
 7517TIP3   OH243965   4.287   5.912   5.679  0.2175 -0.4897 -0.2762
 7517TIP3    H143966   4.278   5.973   5.606 -0.4844 -0.1767  0.0555
 7517TIP3    H243967   4.242   5.955   5.751 -0.1685 -1.3293  0.0008
 7518TIP3   OH243968   0.206   1.962  15.120  0.2108  0.3467  0.1506
 7518TIP3    H143969   0.177   1.913  15.197  0.3738  0.2410  0.1459
 7518TIP3    H243970   0.298   1.980  15.136  0.2195  0.4131  0.0268
 7519TIP3   OH243971   4.667   5.958  17.324 -0.0721 -0.4644 -0.4926
 7519TIP3    H143972   4.674   6.007  17.242 -1.9155 -0.3855 -0.6461
 7519TIP3    H243973   4.581   5.916  17.320  0.8977 -2.6840  0.2208
 7520TIP3   OH243974   5.927   6.448  14.168  0.0226  0.1196 -0.3616
 7520TIP3    H143975   5.951   6.402  14.088  1.6922  1.5211 -0.7340
 7520TIP3    H243976   5.887   6.530  14.137 -2.4753 -0.7645  0.2796
 7521TIP3   OH243977   1.947   4.767   2.705  0.6896 -0.6132 -0.1532
 7521TIP3    H143978   1.883   4.838   2.702  2.3909  0.9860 -1.3013
 7521TIP3    H243979   1.923   4.709   2.632  0.3034 -0.2630 -0.3063
 7522TIP3   OH243980   4.098   6.028  12.305  0.0937  0.1127 -0.0842
 7522TIP3    H143981   4.049   6.054  12.228  0.0493  0.2543 -0.0085
 7522TIP3    H243982   4.039   5.971  12.354  0.6506 -1.2367 -0.9144
 7523TIP3   OH243983   4.782   1.915   2.811 -0.4742  0.3488  0.4682
 7523TIP3    H143984   4.874   1.898   2.832  0.4678  2.1302 -1.8430
 7523TIP3    H243985   4.752   1.971   2.883  0.5667  0.6151  0.7239
 7524TIP3   OH243986   1.308   4.026   1.748  0.1866  0.0158 -0.8537
 7524TIP3    H143987   1.334   3.938   1.775 -3.1061 -0.7109  0.4664
 7524TIP3    H243988   1.260   4.013   1.666 -2.5458  0.0744  0.6121
 7525TIP3   OH243989   4.981   4.059   2.311  0.4871 -0.4400  0.0481
 7525TIP3    H143990   5.019   4.027   2.230 -0.1181  0.1823 -0.4971
 7525TIP3    H243991   4.887   4.045   2.301  0.3183  0.4593  0.2574
 7526TIP3   OH243992   5.831   6.536  14.431 -0.6046  0.7193 -0.1702
 7526TIP3    H143993   5.839   6.446  14.399  1.1124 -0.2102  2.5116
 7526TIP3    H243994   5.872   6.590  14.363  1.2784 -0.9156 -0.4203
 7527TIP3   OH243995   1.404   5.006   4.916 -0.4697 -0.0033 -0.5166
 7527TIP3    H143996   1.463   4.960   4.855  1.2469 -0.0242  1.0758
 7527TIP3    H243997   1.446   5.090   4.931 -1.0613  0.1495  0.3267
 7528TIP3   OH243998   4.142   5.453  11.045  0.3201 -0.0541  0.3548
 7528TIP3    H143999   4.095   5.507  10.982  0.1912  0.0118  0.5055
 7528TIP3    H244000   4.212   5.510  11.077  1.0526 -0.4451 -0.5159
 7529TIP3   OH244001   3.217   5.174  14.131  0.0986  0.0724  0.2493
 7529TIP3    H144002   3.269   5.095  14.122  1.5406  0.9534  0.5430
 7529TIP3    H244003   3.262   5.240  14.078 -1.2043  0.6609 -0.1934
 7530TIP3   OH244004   0.428   1.873  11.507  0.4213  0.2519 -0.1141
 7530TIP3    H144005   0.370   1.930  11.457  0.7224  0.9949  0.3639
 7530TIP3    H244006   0.516   1.895  11.475  0.7943  1.9709  1.8667
 7531TIP3   OH244007   1.119   3.687   5.853 -0.1624  0.0827  0.2884
 7531TIP3    H144008   1.115   3.596   5.884  1.4775  0.2981  1.2788
 7531TIP3    H244009   1.212   3.700   5.833 -0.7355  0.7762 -2.3369
 7532TIP3   OH244010   2.630   4.936  16.098 -0.3015 -0.6234  0.6149
 7532TIP3    H144011   2.641   4.981  16.181 -0.3847 -0.5687  0.5964
 7532TIP3    H244012   2.709   4.882  16.089  0.8708  1.1292 -0.3728
 7533TIP3   OH244013   2.084   0.085   3.293 -0.2612  0.6595 -0.7697
 7533TIP3    H144014   2.121   0.171   3.271 -1.0145  1.4329  0.8298
 7533TIP3    H244015   2.007   0.105   3.347  0.1257 -1.0351  0.4912
 7534TIP3   OH244016   3.351   2.831   1.100  0.4249 -0.1731 -0.0124
 7534TIP3    H144017   3.394   2.895   1.043 -0.4568 -1.2986 -2.0705
 7534TIP3    H244018   3.415   2.761   1.110  0.4709 -0.1073  0.1647
 7535TIP3   OH244019   3.518   5.837   4.828 -0.0017 -0.0530 -0.0988
 7535TIP3    H144020   3.433   5.878   4.843 -0.6821 -1.2341 -0.6637
 7535TIP3    H244021   3.507   5.747   4.858  0.6658 -0.5670 -1.3484
 7536TIP3   OH244022   3.663   0.804  10.848  0.6245  0.1620 -0.0211
 7536TIP3    H144023   3.685   0.826  10.939 -0.1572  0.3839  0.1288
 7536TIP3    H244024   3.743   0.768  10.812  1.3776  1.4222  0.3212
 7537TIP3   OH244025   0.667   2.390   3.963  0.5659 -0.1912  0.2536
 7537TIP3    H144026   0.630   2.432   4.041 -1.8948  0.4820 -1.1787
 7537TIP3    H244027   0.692   2.463   3.907 -0.2031 -0.6301 -0.6817
 7538TIP3   OH244028   6.497   0.200  13.584 -0.6129 -0.1322 -0.1892
 7538TIP3    H144029   6.507   0.155  13.668  0.8889 -1.3322 -0.9635
 7538TIP3    H244030   6.433   0.147  13.536  0.5474 -1.0137 -0.7944
 7539TIP3   OH244031   3.092   4.692   1.080 -0.1653 -0.1132 -0.0804
 7539TIP3    H144032   3.005   4.709   1.044 -0.2319  0.1636  0.2080
 7539TIP3    H244033   3.105   4.761   1.145  0.7599  0.5811 -0.9681
 7540TIP3   OH244034   2.475   0.062  11.608 -0.4843 -0.4648  0.1305
 7540TIP3    H144035   2.452   0.154  11.600  2.1855  0.5408  2.3957
 7540TIP3    H244036   2.531   0.044  11.532  0.0139  0.1533  0.3507
 7541TIP3   OH244037   6.364   0.656  15.571  0.1726 -0.2210 -0.5257
 7541TIP3    H144038   6.436   0.706  15.532  0.2014 -1.0521 -1.5734
 7541TIP3    H244039   6.388   0.650  15.664  1.5261 -0.5768 -0.8702
 7542TIP3   OH244040   2.270   1.890  13.283  0.2775 -0.0744  0.1440
 7542TIP3    H144041   2.364   1.894  13.266  0.7914 -0.2077  2.5907
 7542TIP3    H244042   2.240   1.981  13.276  1.3347  0.5536  2.8113
 7543TIP3   OH244043   1.484   4.226   0.057  0.7140  0.1623 -0.4336
 7543TIP3    H144044   1.413   4.165   0.073  2.1808 -1.9910 -1.6623
 7543TIP3    H244045   1.452   4.310   0.091 -2.4246 -0.6553 -1.0504
 7544TIP3   OH244046   1.977   6.636   4.523  0.2498  0.2123 -0.2266
 7544TIP3    H144047   2.055   6.590   4.491 -0.0243 -0.3350 -0.1340
 7544TIP3    H244048   1.992   6.646   4.617  0.2177  0.1182 -0.2108
 7545TIP3   OH244049   1.583   1.633  15.684 -0.7915 -0.0080  0.4103
 7545TIP3    H144050   1.633   1.554  15.703  1.7100  1.2538 -0.4590
 7545TIP3    H244051   1.572   1.676  15.769  0.5179  0.1443  0.5331
 7546TIP3   OH244052   4.539   5.367   2.879  0.2401  0.5172  0.4429
 7546TIP3    H144053   4.583   5.452   2.870  0.5686  0.3243  0.1931
 7546TIP3    H244054   4.608   5.303   2.860 -0.3515  0.2247 -0.7862
 7547TIP3   OH244055   1.955   2.291  15.282 -0.7353  0.0730 -0.1513
 7547TIP3    H144056   1.895   2.233  15.329 -1.3015  0.2805 -0.6050
 7547TIP3    H244057   1.982   2.356  15.347 -0.3411 -0.5057  0.2774
 7548TIP3   OH244058   0.658   2.451  13.886 -0.5357  0.4039 -0.9616
 7548TIP3    H144059   0.659   2.357  13.902  2.2674  0.1954 -1.8328
 7548TIP3    H244060   0.667   2.491  13.972 -1.0954 -0.1158 -0.6555
 7549TIP3   OH244061   1.419   2.113  16.846 -0.1741 -0.4326 -0.0937
 7549TIP3    H144062   1.478   2.152  16.781 -0.5968  0.2654 -0.0585
 7549TIP3    H244063   1.347   2.078  16.793 -1.2020  1.3384  0.0851
 7550TIP3   OH244064   2.895   4.404  11.495 -0.2042  1.1166 -0.3814
 7550TIP3    H144065   2.875   4.355  11.574  1.3867  0.8479 -0.0947
 7550TIP3    H244066   2.894   4.339  11.425 -2.6963  1.5408 -0.8221
 7551TIP3   OH244067   3.887   1.646  13.647  0.2609  0.1184 -0.4725
 7551TIP3    H144068   3.811   1.617  13.596 -0.4091 -1.2986  1.2384
 7551TIP3    H244069   3.959   1.647  13.584 -0.1387 -3.2649 -1.1691
 7552TIP3   OH244070   2.497   6.205  15.301 -0.3485 -0.3204 -0.2565
 7552TIP3    H144071   2.580   6.159  15.289 -0.7822 -1.4692  0.8443
 7552TIP3    H244072   2.515   6.295  15.276  1.6372 -0.2233  1.2488
 7553TIP3   OH244073   2.835   2.244   2.131 -0.6227  0.0093  0.4366
 7553TIP3    H144074   2.848   2.322   2.184 -0.5161 -1.4051  2.6278
 7553TIP3    H244075   2.743   2.249   2.104 -0.5620  0.9818  0.3811
 7554TIP3   OH244076   5.667   6.035   3.048 -0.2276 -0.4659 -0.6559
 7554TIP3    H144077   5.662   5.974   2.974 -1.0829 -1.1743 -0.0381
 7554TIP3    H244078   5.626   5.988   3.121  0.7009  0.1640  0.3092
 7555TIP3   OH244079   5.919   4.077  14.447  0.0877  0.2706  0.3346
 7555TIP3    H144080   5.887   4.146  14.390 -1.6895 -0.3196  0.5632
 7555TIP3    H244081   5.890   3.996  14.405  2.2300 -0.3943  0.0101
 7556TIP3   OH244082   0.634   3.349  11.606  0.1136 -0.1609 -0.0364
 7556TIP3    H144083   0.638   3.403  11.527  2.7994  1.6802  1.1767
 7556TIP3    H244084   0.695   3.278  11.590 -0.0475 -0.3180  0.0403
 7557TIP3   OH244085   6.498   3.737  12.086  0.2268  0.8021  0.1560
 7557TIP3    H144086   6.571   3.675  12.087 -0.1824 -0.0450 -4.2119
 7557TIP3    H244087   6.538   3.822  12.068  0.4010  1.2231  2.2048
 7558TIP3   OH244088   0.445   2.242   5.428 -0.2556  0.1434 -0.2969
 7558TIP3    H144089   0.426   2.308   5.361  2.1013  1.1000 -0.1154
 7558TIP3    H244090   0.432   2.287   5.511 -2.1251 -0.7298 -0.0633
 7559TIP3   OH244091   0.463   0.921  16.360  0.4743 -0.1269  0.5117
 7559TIP3    H144092   0.464   0.840  16.411  0.1990  0.7361  1.9624
 7559TIP3    H244093   0.404   0.904  16.288  0.2210 -1.1332  0.9469
 7560TIP3   OH244094   5.277   6.536  17.127 -0.0434 -0.0846 -0.1692
 7560TIP3    H144095   5.289   6.545  17.032  0.8933  2.1259  0.0845
 7560TIP3    H244096   5.183   6.528  17.139 -0.0471 -3.5666 -1.4181
 7561TIP3   OH244097   3.467   4.267  13.943 -0.8306  1.1284  0.2224
 7561TIP3    H144098   3.486   4.211  13.868  2.0059 -0.5182  1.9546
 7561TIP3    H244099   3.500   4.354  13.917  0.2459  0.5519 -0.4193
 7562TIP3   OH244100   4.255   0.852   0.337 -0.0140  0.0991 -0.0900
 7562TIP3    H144101   4.161   0.870   0.342 -0.1135 -0.4382 -0.0020
 7562TIP3    H244102   4.293   0.903   0.408 -0.1501  0.8803 -0.5630
 7563TIP3   OH244103   2.248   1.689  15.648  0.2705 -0.2041  0.2486
 7563TIP3    H144104   2.251   1.747  15.571  2.5242 -1.6095 -0.8289
 7563TIP3    H244105   2.185   1.621  15.623  0.5492 -0.3358 -0.0970
 7564TIP3   OH244106   4.546   5.813   1.302  0.3293  0.3180  0.8919
 7564TIP3    H144107   4.481   5.870   1.260 -1.1114 -2.7886 -1.5356
 7564TIP3    H244108   4.495   5.758   1.361  1.0966 -0.6205  0.7061
 7565TIP3   OH244109   6.453   5.541  14.740  0.7070  0.0320 -0.2466
 7565TIP3    H144110   6.512   5.611  14.767  0.0501  0.5828 -0.1981
 7565TIP3    H244111   6.378   5.549  14.799 -1.5349  2.2891 -3.0810
 7566TIP3   OH244112   3.502   5.926   0.699 -0.0494  0.5750 -0.5630
 7566TIP3    H144113   3.566   5.924   0.769 -0.3309  1.0529 -0.2893
 7566TIP3    H244114   3.531   5.858   0.637 -0.2576 -0.4325  0.4136
 7567TIP3   OH244115   1.280   1.196   3.732 -0.3679  0.1742  0.4215
 7567TIP3    H144116   1.333   1.118   3.747 -0.3741  0.6991  4.4100
 7567TIP3    H244117   1.197   1.163   3.697  0.9852 -1.0888 -1.8028
 7568TIP3   OH244118   3.158   4.364  11.172  0.0490  0.0709  0.0556
 7568TIP3    H144119   3.164   4.439  11.113 -1.2081  0.4081  0.3395
 7568TIP3    H244120   3.068   4.364  11.203  0.0859 -1.4366  0.2375
 7569TIP3   OH244121   2.377   1.657  16.209  0.3351 -0.1992 -0.5173
 7569TIP3    H144122   2.373   1.695  16.121  0.6214 -1.9734 -1.3386
 7569TIP3    H244123   2.470   1.640  16.224  0.4924  1.4700  0.8069
 7570TIP3   OH244124   5.013   6.530  12.588  0.2421 -0.2324  0.2306
 7570TIP3    H144125   4.935   6.475  12.588 -1.0645  1.4547  2.4256
 7570TIP3    H244126   5.076   6.483  12.644 -0.4683 -0.0341  1.2165
 7571TIP3   OH244127   5.784   4.595  11.542 -0.1516 -0.2005  0.1176
 7571TIP3    H144128   5.873   4.627  11.553 -0.3560 -0.2546  2.5089
 7571TIP3    H244129   5.786   4.545  11.460  2.0903 -0.4853  0.2828
 7572TIP3   OH244130   5.542   4.920  14.613 -0.1455  0.3407  0.0718
 7572TIP3    H144131   5.557   5.013  14.598 -0.7969  0.4107 -0.2248
 7572TIP3    H244132   5.452   4.915  14.647  0.3537 -0.0645  1.3927
 7573TIP3   OH244133   4.713   3.640  11.702  0.1839  0.9673  0.4689
 7573TIP3    H144134   4.682   3.550  11.695  1.1104  0.7538 -1.6505
 7573TIP3    H244135   4.660   3.679  11.772  0.3197 -1.4212  1.9980
 7574TIP3   OH244136   1.139   2.602  13.149  0.6115 -0.2207 -0.1249
 7574TIP3    H144137   1.206   2.539  13.124  0.2357 -1.0660  0.9629
 7574TIP3    H244138   1.187   2.670  13.196  0.8408 -0.3260 -0.2031
 7575TIP3   OH244139   3.277   6.667  15.909  0.0479  1.1837 -0.4585
 7575TIP3    H144140   3.310   6.700  15.826 -0.0754  1.6234 -0.3367
 7575TIP3    H244141   3.205   6.608  15.885  1.4649 -0.4974 -0.7648
 7576TIP3   OH244142   2.773   5.864  14.264 -0.0890 -0.2129  0.0579
 7576TIP3    H144143   2.769   5.960  14.270 -0.3009 -0.2637  0.9872
 7576TIP3    H244144   2.719   5.842  14.188  0.0633  0.4105 -0.2382
 7577TIP3   OH244145   1.023   3.629  16.052  0.1915 -0.4805  0.1803
 7577TIP3    H144146   1.063   3.597  16.133 -0.8454 -1.5498  0.3049
 7577TIP3    H244147   1.052   3.567  15.985  1.9409  1.0162 -0.5336
 7578TIP3   OH244148   5.083   2.185  13.029  0.0254 -0.8473 -0.7963
 7578TIP3    H144149   5.141   2.109  13.025 -1.5758 -2.3098  1.4207
 7578TIP3    H244150   4.996   2.149  13.017 -0.6434  1.0047 -1.8891
 7579TIP3   OH244151   3.419   0.724  16.591 -0.3893  0.1352  0.2586
 7579TIP3    H144152   3.407   0.632  16.614 -2.4952 -0.0400 -1.2499
 7579TIP3    H244153   3.513   0.735  16.581 -0.1877 -2.4859 -1.7559
 7580TIP3   OH244154   4.047   2.077  12.129 -0.2373 -0.3174 -0.1037
 7580TIP3    H144155   3.982   2.027  12.080  0.9887 -1.0762 -1.0065
 7580TIP3    H244156   4.098   2.124  12.063  0.5456 -0.2343  0.5307
 7581TIP3   OH244157   3.054   6.167   4.790  0.2988 -0.2146 -0.0319
 7581TIP3    H144158   2.988   6.166   4.859  0.2007  2.2641  0.0302
 7581TIP3    H244159   3.033   6.246   4.739  0.4491 -1.8636 -2.8271
 7582TIP3   OH244160   0.984   3.909  12.371  0.4021  0.6806 -0.3206
 7582TIP3    H144161   0.999   3.940  12.460  1.7951 -0.5871 -0.0694
 7582TIP3    H244162   1.055   3.846  12.355 -1.1885 -0.9202 -1.4468
 7583TIP3   OH244163   1.867   2.361   2.169 -0.1559 -0.6072 -0.0374
 7583TIP3    H144164   1.778   2.394   2.156  0.0973 -0.4280 -1.4994
 7583TIP3    H244165   1.880   2.364   2.264 -2.0824 -1.6751  0.3066
 7584TIP3   OH244166   4.423   0.641  17.371 -0.1664  0.2015 -0.2494
 7584TIP3    H144167   4.481   0.714  17.392  0.3742 -0.6936  1.6067
 7584TIP3    H244168   4.363   0.676  17.306  1.1916  1.7539 -0.7432
 7585TIP3   OH244169   1.410   5.327  14.707  0.3474 -0.6304 -0.4216
 7585TIP3    H144170   1.444   5.362  14.624 -1.4234 -0.6829 -1.2067
 7585TIP3    H244171   1.321   5.360  14.712 -0.5195 -2.9035  0.0856
 7586TIP3   OH244172   1.795   6.391  11.446 -0.5918 -0.7581  0.5534
 7586TIP3    H144173   1.883   6.398  11.408 -0.0669 -0.1052  1.8255
 7586TIP3    H244174   1.738   6.377  11.371  0.4131  0.3807 -0.4735
 7587TIP3   OH244175   1.061   4.942  16.281 -0.6033  0.6139 -0.4208
 7587TIP3    H144176   1.049   4.889  16.360 -1.9725  0.2345 -0.8637
 7587TIP3    H244177   1.093   5.026  16.314 -0.6325  0.2852  0.4873
 7588TIP3   OH244178   1.553   4.875   4.147 -0.1593 -0.3865 -0.3188
 7588TIP3    H144179   1.488   4.936   4.181  0.9573  0.4817  0.3350
 7588TIP3    H244180   1.511   4.790   4.150 -0.4864 -0.2144  2.3170
 7589TIP3   OH244181   6.144   2.757   4.262 -0.0504 -0.3364  0.6176
 7589TIP3    H144182   6.231   2.730   4.290  0.7319 -0.1734 -1.5156
 7589TIP3    H244183   6.145   2.853   4.270  0.1390 -0.2975  0.1447
 7590TIP3   OH244184   1.495   1.223  15.015 -0.0572  0.4634  0.0747
 7590TIP3    H144185   1.513   1.145  14.962  1.1131  0.9402 -0.2576
 7590TIP3    H244186   1.554   1.290  14.979  0.8414  0.7852  2.0402
 7591TIP3   OH244187   4.949   1.299   0.005 -0.7639  0.2710 -0.2708
 7591TIP3    H144188   4.864   1.338  -0.015 -1.7770 -2.3514 -1.5875
 7591TIP3    H244189   5.008   1.332  -0.063 -1.4732 -0.1186 -1.0892
 7592TIP3   OH244190   2.023   4.685   4.512 -0.7053  0.3599  0.6830
 7592TIP3    H144191   2.083   4.629   4.561 -0.4031 -0.4245 -0.5287
 7592TIP3    H244192   2.076   4.760   4.486 -0.6875  0.4476  0.9654
 7593TIP3   OH244193   0.865   5.413  14.017 -0.1424  0.4965 -0.0893
 7593TIP3    H144194   0.818   5.424  14.100 -1.0263  0.5319 -0.5815
 7593TIP3    H244195   0.825   5.336  13.977  0.9988 -0.1538 -0.0175
 7594TIP3   OH244196   0.075   0.501  11.060 -0.5695 -0.5384 -0.4582
 7594TIP3    H144197   0.113   0.488  10.973  1.5080  0.4237  0.2401
 7594TIP3    H244198   0.040   0.415  11.083  2.5982 -2.0159 -0.5771
 7595TIP3   OH244199   1.979   1.237  12.718 -0.5063 -0.1246 -0.2055
 7595TIP3    H144200   2.067   1.262  12.691 -0.5346  0.0674 -0.1183
 7595TIP3    H244201   1.950   1.308  12.775 -0.8486 -0.0245 -0.5005
 7596TIP3   OH244202   1.104   1.332  15.620  0.8036 -0.2171 -0.0119
 7596TIP3    H144203   1.015   1.303  15.638  1.6923 -1.9126  2.2683
 7596TIP3    H244204   1.116   1.320  15.526 -0.9782 -1.0801 -0.1560
 7597TIP3   OH244205   4.346   0.274   4.035 -0.4695 -0.3816  0.2695
 7597TIP3    H144206   4.276   0.314   4.087 -1.0814 -0.4621 -0.4797
 7597TIP3    H244207   4.313   0.187   4.014 -0.6630 -0.0069 -1.0711
 7598TIP3   OH244208   3.648   4.099   1.324 -0.3190  0.0844 -0.3103
 7598TIP3    H144209   3.708   4.119   1.396 -1.9814  2.1512  0.6165
 7598TIP3    H244210   3.613   4.184   1.298 -1.8808 -0.9191 -1.6641
 7599TIP3   OH244211   5.413   1.683   1.063 -0.2297 -0.3178  0.1418
 7599TIP3    H144212   5.449   1.760   1.017  0.9995 -0.0820  1.4357
 7599TIP3    H244213   5.408   1.710   1.154 -0.6762 -1.4764  0.4712
 7600TIP3   OH244214   3.070   1.447   0.751 -0.5429  0.0113  0.4164
 7600TIP3    H144215   3.089   1.462   0.843  1.0350  3.0168 -0.2685
 7600TIP3    H244216   3.153   1.463   0.706 -1.9135  1.5596 -1.7561
 7601TIP3   OH244217   0.441   3.765   4.413 -0.0675  0.2732 -0.6865
 7601TIP3    H144218   0.379   3.723   4.472 -1.4609  1.3471 -1.3399
 7601TIP3    H244219   0.416   3.735   4.326  0.9386 -0.0108 -0.8941
 7602TIP3   OH244220   0.453   0.753  13.128  0.3577 -0.2837  0.1757
 7602TIP3    H144221   0.502   0.835  13.133  0.6881 -0.4852  0.2752
 7602TIP3    H244222   0.367   0.775  13.162  0.5557 -0.0589  0.5388
 7603TIP3   OH244223   4.366   2.895  16.892  0.1078  0.3075  0.3028
 7603TIP3    H144224   4.293   2.846  16.930  0.9573 -1.7630 -0.6129
 7603TIP3    H244225   4.425   2.828  16.858  1.5065  1.9801 -0.7194
 7604TIP3   OH244226   0.881   4.336   2.176  0.0857  0.0699  0.4688
 7604TIP3    H144227   0.795   4.295   2.161 -0.0197 -0.4276  2.2361
 7604TIP3    H244228   0.942   4.263   2.176  0.2183  0.1763  1.2964
 7605TIP3   OH244229   2.144   4.696  14.199 -0.5335  0.0643 -0.2635
 7605TIP3    H144230   2.155   4.674  14.106 -2.5095 -1.6636 -0.1551
 7605TIP3    H244231   2.178   4.620  14.246 -1.5965 -0.0471  0.3454
 7606TIP3   OH244232   1.446   5.782  13.838 -0.6150 -0.2420 -0.7330
 7606TIP3    H144233   1.509   5.765  13.767 -1.5046 -0.2450 -1.5424
 7606TIP3    H244234   1.396   5.857  13.807  0.1926  0.9621  0.7358
 7607TIP3   OH244235   5.061   2.845  16.490 -0.1970 -0.2361 -0.4933
 7607TIP3    H144236   5.115   2.824  16.414 -1.0361 -1.9717 -0.6653
 7607TIP3    H244237   5.110   2.811  16.564  0.0692  0.3946 -0.3727
 7608TIP3   OH244238   5.330   6.596  14.410  0.7165 -0.5165  0.2723
 7608TIP3    H144239   5.367   6.593  14.322  0.1758 -0.2041  0.0260
 7608TIP3    H244240   5.358   6.681  14.445 -0.1342 -0.0760 -0.0889
 7609TIP3   OH244241   2.066   2.199   4.756  0.2138  0.4444  0.3701
 7609TIP3    H144242   2.111   2.276   4.791 -0.5368  1.3552 -0.5964
 7609TIP3    H244243   2.070   2.209   4.661 -0.7265 -0.2079  0.2370
 7610TIP3   OH244244   1.795   3.408   4.640 -0.0096 -0.5190 -0.4545
 7610TIP3    H144245   1.722   3.354   4.606 -1.1296  0.1999  0.7380
 7610TIP3    H244246   1.770   3.498   4.619  1.4676 -0.3521 -1.7021
 7611TIP3   OH244247   5.558   1.928   0.894  0.3467 -0.4390 -0.1949
 7611TIP3    H144248   5.557   1.993   0.964  0.7824  0.4848 -1.0155
 7611TIP3    H244249   5.632   1.871   0.914  0.5180 -0.1306  0.0454
 7612TIP3   OH244250   2.812   4.912  11.070  0.0304  0.3106 -0.0076
 7612TIP3    H144251   2.748   4.844  11.091  0.9440 -0.7684 -0.5456
 7612TIP3    H244252   2.809   4.918  10.974  1.3619 -0.4541 -0.1301
 7613TIP3   OH244253   1.040   3.735   2.229  0.0909  0.5270 -0.2628
 7613TIP3    H144254   1.012   3.643   2.227 -1.2309  0.9122 -1.3394
 7613TIP3    H244255   1.134   3.732   2.246 -0.2387 -0.9414  1.6168
 7614TIP3   OH244256   0.940   5.633  15.597 -0.0664 -0.1751 -0.2124
 7614TIP3    H144257   1.011   5.628  15.661  0.1622  0.1225 -0.4410
 7614TIP3    H244258   0.984   5.627  15.512  0.0699  3.0085 -0.5097
 7615TIP3   OH244259   1.412   4.611  11.455 -0.2931  0.1305 -0.0668
 7615TIP3    H144260   1.505   4.591  11.465  0.3124  2.0997 -1.2147
 7615TIP3    H244261   1.397   4.686  11.511 -1.3326 -0.4660  0.4768
 7616TIP3   OH244262   4.239   6.699   1.335  0.0173  0.5549 -0.2364
 7616TIP3    H144263   4.240   6.789   1.369  0.1101  0.5822 -0.3114
 7616TIP3    H244264   4.227   6.709   1.241 -0.7685  0.4611 -0.1578
 7617TIP3   OH244265   2.828   5.728   3.214 -0.1071  0.2563  0.5700
 7617TIP3    H144266   2.882   5.649   3.214 -1.3662 -0.6606 -0.6329
 7617TIP3    H244267   2.813   5.747   3.122  0.6239  2.2579  0.8214
 7618TIP3   OH244268   1.711   6.252   4.294  0.4702 -0.3579 -0.4665
 7618TIP3    H144269   1.776   6.200   4.341 -0.3450 -0.3563  0.7317
 7618TIP3    H244270   1.627   6.211   4.318 -0.0212  0.0603 -1.4134
 7619TIP3   OH244271   6.122   0.533   3.610 -0.7855 -0.1604  0.2579
 7619TIP3    H144272   6.167   0.453   3.637  0.8973  0.7623  0.3396
 7619TIP3    H244273   6.151   0.599   3.673 -0.6883  0.9161 -0.8735
 7620TIP3   OH244274   6.259   4.568   3.309 -0.1613 -0.1745  0.3131
 7620TIP3    H144275   6.298   4.655   3.305 -0.1908 -0.1743  0.0215
 7620TIP3    H244276   6.198   4.573   3.383  0.0020 -0.0162  0.4370
 7621TIP3   OH244277   1.513   2.458  11.008 -0.3381 -0.3376  0.4221
 7621TIP3    H144278   1.608   2.461  11.005 -0.0255 -0.5659  4.3698
 7621TIP3    H244279   1.484   2.516  10.938  2.7330  0.9572  0.1002
 7622TIP3   OH244280   2.498   3.658   0.232  0.5645  0.5077 -0.3305
 7622TIP3    H144281   2.547   3.585   0.193 -0.0887  0.2613 -0.7248
 7622TIP3    H244282   2.468   3.624   0.316 -0.1199  0.1387 -0.7062
 7623TIP3   OH244283   6.649   1.827  16.287  0.5089  0.5261  0.4546
 7623TIP3    H144284   6.727   1.831  16.344  1.2196 -0.1143 -0.4523
 7623TIP3    H244285   6.679   1.863  16.204 -0.2252  0.4197  0.1433
 7624TIP3   OH244286   4.005   0.132   4.697  0.3239  0.1122 -0.1491
 7624TIP3    H144287   3.951   0.166   4.626 -1.4127 -0.8118  0.6737
 7624TIP3    H244288   3.968   0.171   4.776  0.7763 -0.6547  0.4594
 7625TIP3   OH244289   5.298   6.716   5.402 -0.4249  0.1038  0.2049
 7625TIP3    H144290   5.305   6.796   5.454 -0.5715 -0.5656  1.2777
 7625TIP3    H244291   5.380   6.711   5.354 -0.2300  0.6672  0.4773
 7626TIP3   OH244292   4.669   6.429   4.722 -0.1088  0.5255 -0.1521
 7626TIP3    H144293   4.632   6.348   4.756  1.0119 -0.2195 -0.6450
 7626TIP3    H244294   4.616   6.498   4.761 -1.9877 -0.4739 -0.8032
 7627TIP3   OH244295   1.325   3.164   6.355 -0.4878 -0.1061  0.2114
 7627TIP3    H144296   1.317   3.244   6.406 -0.2354 -0.8530  1.4509
 7627TIP3    H244297   1.415   3.164   6.324 -0.8539  0.7287 -0.9128
 7628TIP3   OH244298   4.899   3.360   2.590 -0.5743 -0.3825  0.3592
 7628TIP3    H144299   4.933   3.340   2.503  1.8519  0.3305  1.0447
 7628TIP3    H244300   4.829   3.424   2.574  0.2835  0.2708 -1.0543
 7629TIP3   OH244301   1.612   1.415   2.353  0.3002 -0.9707  0.3991
 7629TIP3    H144302   1.701   1.423   2.317 -0.0638 -0.1934 -0.3662
 7629TIP3    H244303   1.555   1.426   2.277 -0.4872  0.5016  1.1666
 7630TIP3   OH244304   1.761   3.720   4.598 -0.0836  0.4044  0.6857
 7630TIP3    H144305   1.747   3.783   4.528  1.6300 -1.1366 -1.1517
 7630TIP3    H244306   1.845   3.744   4.636  0.5587 -0.6968  0.0040
 7631TIP3   OH244307   5.487   0.620  15.609 -0.2313 -0.5019  0.2395
 7631TIP3    H144308   5.537   0.540  15.594  0.4579  0.2834 -1.9931
 7631TIP3    H244309   5.395   0.592  15.606  0.0063 -1.3166  0.3684
 7632TIP3   OH244310   3.693   2.871  14.873 -0.2560  0.5488  0.1620
 7632TIP3    H144311   3.605   2.839  14.892 -0.7073  1.4793 -0.3036
 7632TIP3    H244312   3.733   2.800  14.821 -0.5968 -0.0249  0.6675
 7633TIP3   OH244313   3.752   6.137  12.075  0.7362  0.2304 -0.2925
 7633TIP3    H144314   3.673   6.084  12.089  0.9096 -0.3165 -1.2569
 7633TIP3    H244315   3.802   6.088  12.010  1.3297  1.1419 -0.5411
 7634TIP3   OH244316   5.018   5.046   4.477 -0.4676  0.1668  0.0632
 7634TIP3    H144317   5.094   5.042   4.420 -0.7785  0.2998 -0.3670
 7634TIP3    H244318   4.964   5.116   4.440 -0.5151  0.4790  0.7187
 7635TIP3   OH244319   3.229   4.586   3.230  0.0773 -0.8898 -0.0077
 7635TIP3    H144320   3.313   4.628   3.211 -0.2321 -0.3282 -0.1374
 7635TIP3    H244321   3.209   4.537   3.150 -1.5177  1.9535 -1.4825
 7636TIP3   OH244322   1.053   4.769   5.353  0.5337  0.0395  0.1719
 7636TIP3    H144323   1.055   4.849   5.405  2.2520  0.2639 -0.1874
 7636TIP3    H244324   0.960   4.755   5.334  0.2259  2.2552 -0.2274
 7637TIP3   OH244325   3.535   2.318  14.114 -0.0344 -0.1626 -0.2089
 7637TIP3    H144326   3.627   2.344  14.119  0.8614 -2.8928 -0.4602
 7637TIP3    H244327   3.513   2.323  14.021 -0.0975  0.3617 -0.1656
 7638TIP3   OH244328   0.367   1.149   5.371  0.4801  0.3847  0.2614
 7638TIP3    H144329   0.367   1.161   5.276  0.7415 -0.4553  0.1489
 7638TIP3    H244330   0.460   1.144   5.394  0.4039 -0.0159  0.4780
 7639TIP3   OH244331   5.218   2.694   2.226 -0.3513 -0.1356  0.4434
 7639TIP3    H144332   5.221   2.789   2.223  0.3542 -0.1655 -0.0342
 7639TIP3    H244333   5.138   2.671   2.178  0.7135  0.1483 -1.5736
 7640TIP3   OH244334   5.808   0.816   5.708 -0.1206  0.2473 -0.3469
 7640TIP3    H144335   5.740   0.756   5.678 -0.1479  0.5031 -0.8126
 7640TIP3    H244336   5.802   0.813   5.804 -0.9166  0.4050 -0.3803
 7641TIP3   OH244337   2.994   0.033  14.602  0.0600 -0.1696  0.0724
 7641TIP3    H144338   3.002   0.127  14.618 -1.6461 -0.0176  0.2515
 7641TIP3    H244339   3.044  -0.007  14.673  0.1584  0.6020  0.4557
 7642TIP3   OH244340   6.563   2.988  15.206 -0.8987  0.4633  0.3233
 7642TIP3    H144341   6.590   2.925  15.140  0.6208  1.9502 -0.5627
 7642TIP3    H244342   6.642   3.039  15.225 -1.3720  0.3484  3.0449
 7643TIP3   OH244343   5.133   2.994  12.254 -0.4471  0.7276 -0.2167
 7643TIP3    H144344   5.216   2.953  12.276  0.7707  2.4122 -1.4655
 7643TIP3    H244345   5.118   3.058  12.323 -0.6694  0.4874 -0.0401
 7644TIP3   OH244346   3.168   4.619  12.241 -0.7345 -0.5051  0.4713
 7644TIP3    H144347   3.113   4.597  12.166 -0.5795  1.7972 -0.4038
 7644TIP3    H244348   3.257   4.618  12.206 -0.6308  0.1896  0.7050
 7645TIP3   OH244349   0.118   2.071  14.872 -0.4867  0.5638 -0.0809
 7645TIP3    H144350   0.120   2.058  14.967  0.0318  0.0626 -0.1586
 7645TIP3    H244351   0.167   1.997  14.836 -0.0926  1.1132 -0.7027
 7646TIP3   OH244352   2.227   4.810  16.386 -0.1460  0.0612 -0.1681
 7646TIP3    H144353   2.293   4.865  16.426  1.0761 -1.5642  0.1223
 7646TIP3    H244354   2.149   4.823  16.440 -0.0531  1.8237 -0.3900
 7647TIP3   OH244355   0.364   1.998   3.408  0.1413 -0.4471  0.0683
 7647TIP3    H144356   0.339   2.009   3.500 -0.0243  0.5451 -0.0827
 7647TIP3    H244357   0.312   2.064   3.361  1.0962 -0.1399 -0.5813
 7648TIP3   OH244358   0.651   1.950   1.733  0.2178 -0.0700  0.7741
 7648TIP3    H144359   0.601   1.970   1.654  0.9063  3.1706  1.0379
 7648TIP3    H244360   0.737   1.924   1.700  0.0474 -0.2227  0.4456
 7649TIP3   OH244361   0.341   4.839  14.710  0.1048 -0.0097 -0.1482
 7649TIP3    H144362   0.370   4.913  14.656  1.0031  0.0382  0.3736
 7649TIP3    H244363   0.319   4.771  14.646  2.4318 -0.4209 -0.6208
 7650TIP3   OH244364   3.683   2.963   1.907 -0.3351  0.1738  0.6395
 7650TIP3    H144365   3.766   2.949   1.953 -0.7547 -0.9060  1.1063
 7650TIP3    H244366   3.619   2.914   1.958 -1.2013  0.6869  0.0722
 7651TIP3   OH244367   1.113   2.243   4.935  0.0358 -0.0615  0.6693
 7651TIP3    H144368   1.180   2.184   4.970  0.5705 -0.6319 -1.2182
 7651TIP3    H244369   1.043   2.186   4.905  0.5880  0.1866 -1.2363
 7652TIP3   OH244370   5.774   4.108  12.892 -0.0122 -0.1872 -0.3493
 7652TIP3    H144371   5.823   4.179  12.932  0.5773  0.1345 -1.5786
 7652TIP3    H244372   5.685   4.142  12.882  0.1002  0.1180 -0.3057
 7653TIP3   OH244373   3.834   4.392  14.480  0.0469  0.0855 -0.1197
 7653TIP3    H144374   3.750   4.385  14.435 -0.9958  2.1465  1.3614
 7653TIP3    H244375   3.830   4.326  14.549 -0.7669  0.8114  0.5378
 7654TIP3   OH244376   4.616   1.934  13.872 -0.3291 -0.4370 -0.6432
 7654TIP3    H144377   4.535   1.896  13.838 -0.6921 -0.3138  0.0650
 7654TIP3    H244378   4.642   1.999  13.806 -0.3329 -1.0806 -1.2910
 7655TIP3   OH244379   4.591   3.227  14.881 -0.2324 -0.2176 -0.4962
 7655TIP3    H144380   4.666   3.269  14.922  0.0894 -0.2248 -1.0774
 7655TIP3    H244381   4.622   3.140  14.856 -0.1432  0.1222 -1.6094
 7656TIP3   OH244382   4.301   2.515  13.558 -0.5542  0.6254  0.0119
 7656TIP3    H144383   4.298   2.462  13.638 -0.9991  0.3610 -0.1744
 7656TIP3    H244384   4.377   2.571  13.569  0.9565 -1.1915 -0.4894
 7657TIP3   OH244385   3.656   1.175  15.503 -0.1261  0.1045  0.6073
 7657TIP3    H144386   3.561   1.179  15.500 -0.1884 -1.4459 -0.0434
 7657TIP3    H244387   3.684   1.264  15.482 -1.4106  0.2236 -0.7516
 7658TIP3   OH244388   2.715   4.031   5.218  0.4969 -0.0693 -0.2334
 7658TIP3    H144389   2.657   4.107   5.231  3.4668  2.7178 -1.8082
 7658TIP3    H244390   2.770   4.029   5.296  2.6805  1.7223 -1.6076
 7659TIP3   OH244391   4.374   2.789   5.680 -0.0089 -0.0732 -0.3507
 7659TIP3    H144392   4.461   2.786   5.638  0.0768  1.0767 -0.2827
 7659TIP3    H244393   4.391   2.767   5.772  0.5097  1.9187  0.0691
 7660TIP3   OH244394   0.313   3.970   3.269  0.0417  0.2380 -0.2377
 7660TIP3    H144395   0.235   4.024   3.279 -0.9076 -0.9921 -0.7709
 7660TIP3    H244396   0.382   4.032   3.246 -0.9251  1.2700 -0.4380
 7661TIP3   OH244397   2.911   2.379   2.602  0.1862 -0.4129  0.4522
 7661TIP3    H144398   2.986   2.407   2.655  0.8653 -0.0763 -0.6553
 7661TIP3    H244399   2.943   2.380   2.512 -0.3443 -2.8938  0.1585
 7662TIP3   OH244400   3.835   2.150   4.461  0.1038 -0.5606  0.4265
 7662TIP3    H144401   3.751   2.168   4.505  0.4755  0.1543  0.8704
 7662TIP3    H244402   3.810   2.122   4.373 -0.6376 -1.3790  0.8776
 7663TIP3   OH244403   2.983   6.099  14.473 -0.2755 -0.0179  0.7985
 7663TIP3    H144404   3.016   6.166  14.533 -2.4686  0.9887  0.9606
 7663TIP3    H244405   2.998   6.135  14.385 -0.2742  0.0758  0.8378
 7664TIP3   OH244406   4.420   1.407   2.953 -0.1369 -0.0849  0.0305
 7664TIP3    H144407   4.411   1.451   3.038  2.0916 -1.0314  0.8389
 7664TIP3    H244408   4.446   1.477   2.893 -2.5883  0.7649 -0.1693
 7665TIP3   OH244409   1.661   4.123  13.996 -0.0668  0.1618  0.1214
 7665TIP3    H144410   1.721   4.061  14.038 -0.0419  0.0066 -0.1401
 7665TIP3    H244411   1.606   4.069  13.940  1.6695  0.5942 -2.1613
 7666TIP3   OH244412   6.410   4.947  11.970  0.3108  0.8050  0.7555
 7666TIP3    H144413   6.496   4.906  11.958 -0.5901 -1.3619  1.2510
 7666TIP3    H244414   6.428   5.026  12.022  2.0957  0.9422  0.0005
 7667TIP3   OH244415   4.932   4.033  15.146 -0.5426 -0.3412  0.7535
 7667TIP3    H144416   4.930   3.995  15.234 -1.4029  0.3533  1.0421
 7667TIP3    H244417   4.850   4.005  15.105 -0.1233 -0.7108  0.1364
 7668TIP3   OH244418   1.431   0.091  16.986 -0.7754 -0.1446 -0.8121
 7668TIP3    H144419   1.468   0.022  16.932  0.7625 -1.4463  1.7547
 7668TIP3    H244420   1.466   0.076  17.073 -0.8124  3.5654  0.0187
 7669TIP3   OH244421   3.285   6.397  11.518 -0.5017 -0.1959 -0.6430
 7669TIP3    H144422   3.295   6.325  11.457 -2.9241  0.4543 -1.9275
 7669TIP3    H244423   3.250   6.357  11.598 -1.2383 -0.5411 -1.1299
 7670TIP3   OH244424   0.118   4.914   3.058 -0.0364 -0.0209  0.0584
 7670TIP3    H144425   0.098   4.966   2.980 -3.7526 -0.2661  0.6329
 7670TIP3    H244426   0.134   4.826   3.025  2.6766  0.6366 -0.6300
 7671TIP3   OH244427   1.676   1.568   0.585  0.2041  1.0086  0.4943
 7671TIP3    H144428   1.711   1.629   0.649  0.4111 -0.1050  1.4821
 7671TIP3    H244429   1.679   1.483   0.629 -1.9848  0.5843 -0.0723
 7672TIP3   OH244430   5.790   3.337   0.069 -0.1133 -0.1777 -0.6340
 7672TIP3    H144431   5.750   3.371   0.149 -2.2680 -1.2681 -1.1717
 7672TIP3    H244432   5.830   3.414   0.027  4.0248  0.0050  2.9031
 7673TIP3   OH244433   3.403   3.364  14.317  0.0598 -0.5741  0.0371
 7673TIP3    H144434   3.419   3.275  14.286 -0.6422 -0.1382 -1.7357
 7673TIP3    H244435   3.311   3.381  14.294 -0.0510  0.3334  1.0757
 7674TIP3   OH244436   4.934   6.405   4.426  0.0546  0.1281  0.6342
 7674TIP3    H144437   4.959   6.353   4.350 -0.1502  0.2349  0.4921
 7674TIP3    H244438   4.983   6.487   4.417  0.3005  0.0021  0.8054
 7675TIP3   OH244439   1.901   4.251  11.428 -0.4579 -0.3871 -0.2449
 7675TIP3    H144440   1.878   4.215  11.342 -1.7744  0.2959 -0.1934
 7675TIP3    H244441   1.945   4.333  11.408  1.5379 -1.4071 -0.3199
 7676TIP3   OH244442   2.888   3.849   1.145  0.2096 -0.6698  0.1149
 7676TIP3    H144443   2.961   3.861   1.085 -0.1472 -2.1617 -0.6614
 7676TIP3    H244444   2.928   3.815   1.225  0.4881 -0.3032  0.1349
 7677TIP3   OH244445   4.889   2.627  11.365  0.4516 -0.8988  0.2570
 7677TIP3    H144446   4.938   2.623  11.447  0.7498 -0.1410  0.1154
 7677TIP3    H244447   4.862   2.718  11.357 -0.3598 -1.1556 -0.0357
 7678TIP3   OH244448   6.548   0.729   2.544  0.0810 -0.4218  0.5360
 7678TIP3    H144449   6.560   0.655   2.603 -1.9509 -2.7329 -1.7131
 7678TIP3    H244450   6.466   0.769   2.571  0.6760  0.4416  1.1186
 7679TIP3   OH244451   5.639   3.137  14.013  0.4391 -1.0760 -0.4013
 7679TIP3    H144452   5.572   3.094  14.066  1.5758 -2.1443  0.2098
 7679TIP3    H244453   5.720   3.092  14.036  1.2997 -0.1142 -1.4679
 7680TIP3   OH244454   6.235   4.748  15.221 -0.0073  0.0862  0.7618
 7680TIP3    H144455   6.272   4.816  15.277 -2.8478  2.5579 -0.0534
 7680TIP3    H244456   6.215   4.793  15.139 -3.1269 -1.3121  0.5969
 7681TIP3   OH244457   4.660   3.161   1.663  0.2520  0.2100  0.2964
 7681TIP3    H144458   4.619   3.226   1.605 -0.6110 -0.5243  0.0530
 7681TIP3    H244459   4.719   3.212   1.718 -0.3783  1.2018  0.0888
 7682TIP3   OH244460   6.137   0.010   5.852  0.4165  0.5666 -0.0950
 7682TIP3    H144461   6.073  -0.038   5.904  0.6748 -0.2283 -0.4993
 7682TIP3    H244462   6.120   0.102   5.873 -1.1480  0.4083 -0.5278
 7683TIP3   OH244463   2.049   1.734   3.474 -0.6714 -0.1002  0.3554
 7683TIP3    H144464   1.979   1.706   3.415  0.0155  0.6587 -0.8597
 7683TIP3    H244465   2.129   1.720   3.424  0.0069 -0.2987  1.4666
 7684TIP3   OH244466   0.487   0.264   2.388 -0.4967  0.2573  0.1242
 7684TIP3    H144467   0.581   0.275   2.373 -0.7607  3.6642  0.1332
 7684TIP3    H244468   0.450   0.247   2.302  0.0349 -0.3168  0.0055
 7685TIP3   OH244469   5.309   1.561   5.597  0.3406  0.3684 -0.3308
 7685TIP3    H144470   5.335   1.518   5.679 -0.7950 -0.5897 -0.4496
 7685TIP3    H244471   5.290   1.651   5.623  0.2493  0.1450  0.4204
 7686TIP3   OH244472   3.832   2.050   2.651 -0.3930  0.1807  0.8178
 7686TIP3    H144473   3.849   1.966   2.609 -1.9853 -0.5061  1.4931
 7686TIP3    H244474   3.900   2.058   2.718  0.2116 -0.1980  0.2658
 7687TIP3   OH244475   1.108   6.378  14.751 -0.2909  0.4444  0.0076
 7687TIP3    H144476   1.100   6.325  14.831  0.0501 -0.8868 -0.7932
 7687TIP3    H244477   1.171   6.446  14.773 -2.3601  1.9188  1.7557
 7688TIP3   OH244478   3.164   3.154   1.666 -0.8302  0.7064  0.0949
 7688TIP3    H144479   3.147   3.229   1.609  0.9261 -0.6446 -2.4244
 7688TIP3    H244480   3.208   3.190   1.742  1.7616  2.1376 -1.9320
 7689TIP3   OH244481   6.445   4.476   1.023 -0.1729 -0.2823  0.0501
 7689TIP3    H144482   6.364   4.427   1.037 -0.4003  0.3030  0.8711
 7689TIP3    H244483   6.449   4.489   0.928  0.6244 -3.0628 -0.3726
 7690TIP3   OH244484   4.413   6.491  17.261 -0.6376 -0.4839 -0.0775
 7690TIP3    H144485   4.460   6.570  17.237 -2.0527  0.7214  0.9722
 7690TIP3    H244486   4.339   6.487  17.201 -0.3389 -1.2721 -0.4135
 7691TIP3   OH244487   1.205   6.519   4.946  0.3981 -0.4609  0.4845
 7691TIP3    H144488   1.248   6.603   4.964 -0.4063  0.1729 -0.4205
 7691TIP3    H244489   1.162   6.532   4.861  0.6055 -1.9377  0.1362
 7692TIP3   OH244490   4.907   1.044   6.902  0.3627 -0.6554  0.5481
 7692TIP3    H144491   4.883   0.978   6.837 -1.0790  0.5334 -0.2006
 7692TIP3    H244492   4.993   1.076   6.874 -0.4660  0.2319 -1.1625
 7693TIP3   OH244493   2.194   3.067  14.581 -0.3076 -0.4341  0.1911
 7693TIP3    H144494   2.158   3.149  14.547  0.2380  0.1868  1.0919
 7693TIP3    H244495   2.209   3.083  14.674 -1.5616 -2.0392  0.7296
 7694TIP3   OH244496   2.417   0.023   1.445  0.0160  1.1828  0.0807
 7694TIP3    H144497   2.426  -0.053   1.388  1.8139  1.1896  0.3174
 7694TIP3    H244498   2.391  -0.012   1.530 -2.1595  1.1319 -0.5265
 7695TIP3   OH244499   2.149   4.796   2.895  0.7448 -0.0998 -0.4310
 7695TIP3    H144500   2.074   4.798   2.835  1.3884 -2.7643 -1.4378
 7695TIP3    H244501   2.116   4.749   2.972  0.9102  0.2991 -0.1105
 7696TIP3   OH244502   4.160   4.840   1.073 -0.1949  0.0161  0.4073
 7696TIP3    H144503   4.188   4.907   1.011  0.4400 -0.2674  0.3882
 7696TIP3    H244504   4.145   4.762   1.020 -0.7117  0.0719  0.4621
 7697TIP3   OH244505   0.753   3.105  13.858  0.2394  0.0687  0.8097
 7697TIP3    H144506   0.727   3.137  13.944 -2.4310  0.8124 -0.1500
 7697TIP3    H244507   0.781   3.014  13.873 -0.9193 -0.0740  2.3686
 7698TIP3   OH244508   3.489   0.498  12.425  0.0821 -0.6065  0.5818
 7698TIP3    H144509   3.515   0.417  12.382  1.1772  0.5901 -1.1766
 7698TIP3    H244510   3.571   0.547  12.435 -0.8430  1.5285 -1.2623
 7699TIP3   OH244511   1.985   2.191  14.232  0.0862  0.0736  0.5139
 7699TIP3    H144512   2.057   2.128  14.237 -0.8398 -1.3060 -1.8228
 7699TIP3    H244513   1.906   2.138  14.235 -0.8725  1.4682  1.8943
 7700TIP3   OH244514   0.406   1.384  11.635  0.0082 -0.0415 -0.0425
 7700TIP3    H144515   0.446   1.310  11.682 -1.8991 -0.4415  1.0351
 7700TIP3    H244516   0.415   1.361  11.543  1.4712 -0.5173  0.1892
 7701TIP3   OH244517   5.722   2.269   0.348  0.5617 -0.6350 -0.0537
 7701TIP3    H144518   5.702   2.270   0.254 -0.1600 -1.1694  0.0875
 7701TIP3    H244519   5.684   2.351   0.380 -0.1001 -0.9334 -0.0554
 7702TIP3   OH244520   1.475   0.960  16.166  0.8721  0.2554  1.0959
 7702TIP3    H144521   1.434   1.046  16.179 -0.0015 -0.0897  0.7003
 7702TIP3    H244522   1.410   0.898  16.198  0.7374 -0.3462 -0.2742
 7703TIP3   OH244523   5.946   2.984   4.658 -0.0771 -0.2763  0.5053
 7703TIP3    H144524   5.888   2.913   4.686  0.8576 -1.3154 -0.1059
 7703TIP3    H244525   5.959   3.037   4.736  0.8830 -1.9808  1.5689
 7704TIP3   OH244526   0.482   4.172  16.013  0.0817  0.7016  0.4440
 7704TIP3    H144527   0.481   4.236  16.084 -0.6789  0.7617  0.3939
 7704TIP3    H244528   0.519   4.093  16.051  0.0475  0.8548  0.7993
 7705TIP3   OH244529   3.361   5.170  13.793 -0.0761 -0.4638 -0.1763
 7705TIP3    H144530   3.337   5.233  13.861  0.2177 -1.0943  0.5300
 7705TIP3    H244531   3.450   5.194  13.768 -0.4523  0.2306 -0.8869
 7706TIP3   OH244532   4.497   2.922   2.707  0.1117  0.1860 -0.1982
 7706TIP3    H144533   4.576   2.976   2.703  1.3041 -1.5259 -1.6081
 7706TIP3    H244534   4.526   2.840   2.746 -1.1209 -0.2398 -0.1279
 7707TIP3   OH244535   0.969   2.312  14.143 -0.5684 -0.1109  0.0435
 7707TIP3    H144536   0.915   2.258  14.200 -2.3431  0.0628 -1.3628
 7707TIP3    H244537   0.936   2.293  14.055  1.7062  0.0062 -0.9043
 7708TIP3   OH244538   0.517   3.745  13.249 -0.5672  0.0655 -0.1475
 7708TIP3    H144539   0.421   3.749  13.252 -0.5150  1.8592  0.4069
 7708TIP3    H244540   0.545   3.784  13.332  0.6324  3.1747 -1.8199
 7709TIP3   OH244541   5.475   5.262  13.755  0.4186  0.5800  0.2112
 7709TIP3    H144542   5.385   5.267  13.786  0.2525  0.9966 -0.3212
 7709TIP3    H244543   5.528   5.294  13.829  0.1372  0.3084  0.5307
 7710TIP3   OH244544   5.354   4.321  10.690  0.1180  0.1603 -0.3434
 7710TIP3    H144545   5.444   4.323  10.723  0.9878  0.6811 -2.5495
 7710TIP3    H244546   5.300   4.339  10.766  1.8317 -0.7662  1.1755
 7711TIP3   OH244547   6.245   3.377  13.958 -0.8066  0.0903  0.4773
 7711TIP3    H144548   6.329   3.385  14.003  0.8449 -0.0593 -2.3229
 7711TIP3    H244549   6.215   3.289  13.978  0.2971 -0.2660  0.6572
 7712TIP3   OH244550   5.959   4.409   3.544  0.1289  0.1687 -0.4390
 7712TIP3    H144551   5.978   4.318   3.522  1.7271  0.0976  1.0218
 7712TIP3    H244552   5.878   4.405   3.595  0.6825 -0.5589  0.4110
 7713TIP3   OH244553   1.595   6.146  14.689 -0.6872 -0.0536 -0.8789
 7713TIP3    H144554   1.541   6.168  14.765 -0.8010 -1.5816 -0.4742
 7713TIP3    H244555   1.563   6.060  14.662 -0.1552  0.1551 -2.2164
 7714TIP3   OH244556   2.886   2.415   6.805  0.5555 -0.0804  0.9295
 7714TIP3    H144557   2.859   2.428   6.896  2.0265  2.1499  1.1319
 7714TIP3    H244558   2.947   2.487   6.788  0.7115 -0.7389 -1.6795
 7715TIP3   OH244559   6.690   2.309  13.928 -0.6260  0.3931 -0.0444
 7715TIP3    H144560   6.623   2.370  13.960  0.4813  1.3888  0.4269
 7715TIP3    H244561   6.641   2.247  13.873 -1.8413  1.4521 -0.2094
 7716TIP3   OH244562   4.138   4.602   0.908 -0.1320 -0.1907  0.0719
 7716TIP3    H144563   4.147   4.513   0.944 -0.3351 -0.6418 -0.9625
 7716TIP3    H244564   4.117   4.588   0.816  0.3651  0.9469 -0.2234
 7717TIP3   OH244565   6.264   0.630   6.460 -0.6230  0.0453 -0.1407
 7717TIP3    H144566   6.179   0.590   6.443  0.3199 -1.5849 -1.4698
 7717TIP3    H244567   6.288   0.671   6.377 -0.6320  1.5758  0.5909
 7718TIP3   OH244568   4.646   3.472   5.251 -0.0045  0.1812 -0.4090
 7718TIP3    H144569   4.725   3.447   5.204 -0.3511 -0.5776 -0.6068
 7718TIP3    H244570   4.606   3.389   5.277 -1.3430  0.4946 -1.3159
 7719TIP3   OH244571   0.467   0.830   1.322 -0.0514  0.5916  0.2225
 7719TIP3    H144572   0.411   0.753   1.319 -0.8638  1.1908 -0.8054
 7719TIP3    H244573   0.407   0.903   1.307  0.7699  1.3933  0.7400
 7720TIP3   OH244574   6.636   3.915   1.885  0.0210 -0.1257 -0.2091
 7720TIP3    H144575   6.557   3.943   1.931  0.7739 -1.0818  1.7545
 7720TIP3    H244576   6.614   3.925   1.792 -2.6367 -0.9676  0.2459
 7721TIP3   OH244577   0.228   0.163  16.447 -0.0795 -0.1191  0.4355
 7721TIP3    H144578   0.323   0.150  16.447  0.0373  0.5909 -0.8143
 7721TIP3    H244579   0.208   0.197  16.360 -1.6982 -1.6949  0.1271
 7722TIP3   OH244580   2.704   2.375  16.374  0.2231  0.6283 -0.1378
 7722TIP3    H144581   2.664   2.430  16.307 -0.3068 -0.1479 -0.4724
 7722TIP3    H244582   2.631   2.346  16.429  0.6770  1.4663  0.9560
 7723TIP3   OH244583   5.906   0.515  13.357  0.7732 -0.0191 -0.6098
 7723TIP3    H144584   5.973   0.574  13.323  1.4585  0.5604  1.5721
 7723TIP3    H244585   5.843   0.573  13.401  0.7013 -0.7905  0.3473
 7724TIP3   OH244586   5.651   2.071  13.216 -0.1766 -0.1931 -0.1968
 7724TIP3    H144587   5.576   2.103  13.166 -1.0103  0.3832  1.3465
 7724TIP3    H244588   5.618   1.994  13.262 -0.3272  0.9231  1.6739
 7725TIP3   OH244589   0.786   1.096  11.805  0.1780 -0.1771  0.5857
 7725TIP3    H144590   0.785   1.115  11.899  0.2422  3.0590  0.0573
 7725TIP3    H244591   0.698   1.117  11.774  0.1155 -1.3337 -0.0929
 7726TIP3   OH244592   5.053   0.253   1.357  0.4325 -0.3059  0.3527
 7726TIP3    H144593   5.030   0.195   1.284 -0.2288  1.0551 -0.5760
 7726TIP3    H244594   4.984   0.320   1.356 -0.4703 -1.0572  3.2115
 7727TIP3   OH244595   6.309   3.011   4.564 -0.0585  0.6871  0.0578
 7727TIP3    H144596   6.352   3.062   4.633 -1.9138  2.0205  0.3089
 7727TIP3    H244597   6.371   3.011   4.492  2.2249 -1.2561  1.8342
 7728TIP3   OH244598   3.522   2.729   0.458  0.4663 -1.0824  0.9003
 7728TIP3    H144599   3.469   2.655   0.488 -0.5565 -1.1453 -0.9480
 7728TIP3    H244600   3.574   2.695   0.386 -0.4442  0.0629 -0.3763
 7729TIP3   OH244601   3.510   0.062  14.654  0.3394  0.0791 -0.5905
 7729TIP3    H144602   3.542   0.097  14.737 -0.6799 -1.5249  0.5396
 7729TIP3    H244603   3.415   0.077  14.658  0.0155 -1.8015 -0.5177
 7730TIP3   OH244604   3.171   6.677   6.298 -0.1386  0.0555  0.2898
 7730TIP3    H144605   3.081   6.675   6.332  0.7134 -1.6080  2.6974
 7730TIP3    H244606   3.212   6.600   6.335  2.7825  1.6693  0.6924
 7731TIP3   OH244607   5.037   1.981  12.232 -0.3502  0.0657 -0.0128
 7731TIP3    H144608   5.038   2.015  12.322  0.0385  0.9473 -0.3346
 7731TIP3    H244609   5.122   1.938  12.223 -1.0087 -1.3984  0.5293
 7732TIP3   OH244610   4.657   0.442  11.075  0.1045 -0.0249  0.4735
 7732TIP3    H144611   4.625   0.390  11.002 -0.7635  1.4101 -0.2157
 7732TIP3    H244612   4.748   0.461  11.052  0.8862 -2.2896  1.3919
 7733TIP3   OH244613   3.702   2.613  11.703  0.3460  0.0183 -0.2536
 7733TIP3    H144614   3.655   2.615  11.620  1.0212 -2.0512 -0.7505
 7733TIP3    H244615   3.647   2.662  11.764 -1.8738 -1.3137 -1.0861
 7734TIP3   OH244616   3.343   2.279   2.647 -0.1205 -0.3040 -0.4573
 7734TIP3    H144617   3.439   2.290   2.648  0.3080 -3.2587  0.1206
 7734TIP3    H244618   3.327   2.209   2.584 -2.0654  0.8736 -1.3614
 7735TIP3   OH244619   1.099   5.202  13.273  0.5768  0.3327 -0.5208
 7735TIP3    H144620   1.072   5.124  13.226 -1.1560 -0.2639  1.3382
 7735TIP3    H244621   1.097   5.176  13.365  0.9695  2.2854  0.0757
 7736TIP3   OH244622   5.452   1.714   1.489 -0.3598 -0.0449 -0.0853
 7736TIP3    H144623   5.370   1.664   1.494  0.2358 -0.9193  2.3432
 7736TIP3    H244624   5.520   1.650   1.512  1.2765  0.2435 -3.5896
 7737TIP3   OH244625   1.358   5.033  15.474  0.1974 -0.0301  0.5842
 7737TIP3    H144626   1.273   5.013  15.513  0.4928  1.1785  1.9594
 7737TIP3    H244627   1.421   5.017  15.545  0.6887  2.9387  0.9506
 7738TIP3   OH244628   1.478   6.165  13.410 -0.4035  0.1467  0.6467
 7738TIP3    H144629   1.452   6.076  13.386  0.5576 -0.0469  0.2584
 7738TIP3    H244630   1.550   6.186  13.350  1.0351  0.2379  2.3186
 7739TIP3   OH244631   2.588   5.152   0.034  0.1720 -0.0511  0.1950
 7739TIP3    H144632   2.621   5.174   0.121 -0.5022 -1.3137  0.7984
 7739TIP3    H244633   2.498   5.124   0.049  0.0346 -0.2527 -0.9206
 7740TIP3   OH244634   2.917   4.832  12.347 -0.1357  0.3192 -0.2186
 7740TIP3    H144635   2.937   4.922  12.374  0.7976  0.0366  0.0895
 7740TIP3    H244636   2.883   4.841  12.258 -1.4433  1.0944  0.3309
 7741TIP3   OH244637   3.358   4.192  14.697 -0.4699  0.3697  0.3638
 7741TIP3    H144638   3.387   4.254  14.629 -0.6703  0.3640  0.2709
 7741TIP3    H244639   3.263   4.203  14.700 -0.3283  1.5076  1.7451
 7742TIP3   OH244640   5.483   5.097  16.448  0.0845 -0.0952  0.0323
 7742TIP3    H144641   5.421   5.046  16.396 -0.1324  0.1248  0.0762
 7742TIP3    H244642   5.543   5.032  16.483  1.3360 -0.1036 -1.9511
 7743TIP3   OH244643   4.259   3.231  15.227  0.2414  1.0179  0.2434
 7743TIP3    H144644   4.284   3.175  15.154  1.0966  0.8736  0.6435
 7743TIP3    H244645   4.324   3.214  15.295 -0.4504  1.2665  0.9886
 7744TIP3   OH244646   5.830   1.470  14.820  0.0874  0.4141 -0.5305
 7744TIP3    H144647   5.869   1.467  14.733  1.2400 -1.4370 -0.0110
 7744TIP3    H244648   5.824   1.563  14.841  1.5935  0.8364 -1.8111
 7745TIP3   OH244649   4.074   5.408  14.776 -0.3650 -0.1548 -0.2132
 7745TIP3    H144650   4.050   5.315  14.770  0.8399 -0.5137  0.3852
 7745TIP3    H244651   4.114   5.428  14.691 -0.3247 -0.2659 -0.2204
 7746TIP3   OH244652   2.586   0.628   1.268  0.2902 -0.0261 -0.0910
 7746TIP3    H144653   2.618   0.571   1.198  1.9067 -0.3041  0.8242
 7746TIP3    H244654   2.593   0.716   1.232 -0.2790 -0.2494 -0.7786
 7747TIP3   OH244655   2.376   3.979  12.126 -0.6828 -0.0174  0.3119
 7747TIP3    H144656   2.298   3.956  12.075 -0.9551  1.1986  0.1416
 7747TIP3    H244657   2.344   3.986  12.216 -0.6597  0.0022  0.3188
 7748TIP3   OH244658   2.440   3.950   2.295  0.0349 -0.4367  0.6011
 7748TIP3    H144659   2.348   3.969   2.313  0.3122  1.4134  0.2471
 7748TIP3    H244660   2.440   3.859   2.263 -1.3814 -1.1480  2.4635
 7749TIP3   OH244661   3.128   2.653   5.535  0.1042  0.3071  0.0049
 7749TIP3    H144662   3.159   2.647   5.626 -1.8737  1.1316  0.8053
 7749TIP3    H244663   3.087   2.567   5.519  0.5652  0.1162 -0.1554
 7750TIP3   OH244664   2.236   6.351   3.208  0.1405  0.1208 -0.3400
 7750TIP3    H144665   2.164   6.367   3.270  0.3164  1.9183 -0.5281
 7750TIP3    H244666   2.272   6.267   3.235 -0.3880  0.4027  1.4263
 7751TIP3   OH244667   5.731   5.691   3.429  0.3948  0.0302  0.3831
 7751TIP3    H144668   5.664   5.646   3.377 -0.2911  1.6652 -0.2029
 7751TIP3    H244669   5.812   5.641   3.412 -0.3539 -1.0585 -0.1028
 7752TIP3   OH244670   4.006   0.802  14.682  0.0949  0.1636 -0.0456
 7752TIP3    H144671   4.093   0.840  14.667  0.4762  0.0113  1.6347
 7752TIP3    H244672   4.019   0.708  14.669 -0.2158  0.2837 -1.4044
 7753TIP3   OH244673   5.513   0.727  16.589  0.2371  0.1896 -0.0456
 7753TIP3    H144674   5.597   0.769  16.609 -1.0432  1.8990  2.2674
 7753TIP3    H244675   5.532   0.633  16.593  1.7325  0.5076  2.2022
 7754TIP3   OH244676   0.835   6.734  14.442  0.2301 -0.2937 -0.2087
 7754TIP3    H144677   0.799   6.790  14.374 -0.1409 -1.2405 -0.8224
 7754TIP3    H244678   0.809   6.645  14.416 -2.2489 -0.5217  2.5346
 7755TIP3   OH244679   6.718   3.899  11.432 -0.1216 -0.5338 -0.1163
 7755TIP3    H144680   6.629   3.924  11.459  0.3601 -0.0306  1.0579
 7755TIP3    H244681   6.767   3.980  11.433  0.6188 -0.9789  0.2970
 7756TIP3   OH244682   5.432   2.323   1.514  0.1534  0.5352 -0.4641
 7756TIP3    H144683   5.409   2.272   1.592  0.7740 -0.7158 -1.0613
 7756TIP3    H244684   5.517   2.363   1.536  0.2190  0.3699 -0.4126
 7757TIP3   OH244685   3.838   2.807  14.489 -0.5987 -0.6914 -0.2848
 7757TIP3    H144686   3.849   2.755  14.409 -1.9056 -0.1342 -0.8612
 7757TIP3    H244687   3.787   2.750  14.547  0.1190 -0.9939  0.0531
 7758TIP3   OH244688   5.261   3.540  15.057 -0.4062 -0.3310  0.8105
 7758TIP3    H144689   5.345   3.550  15.101  0.0476  1.4492 -0.3464
 7758TIP3    H244690   5.230   3.630  15.044 -2.8267 -0.9406  1.7692
 7759TIP3   OH244691   5.339   0.458   5.665 -0.3326 -0.2375  0.2463
 7759TIP3    H144692   5.402   0.472   5.594  0.3828 -0.4155  0.8315
 7759TIP3    H244693   5.377   0.387   5.717 -0.0968  0.8565  1.6394
 7760TIP3   OH244694   5.404   1.871  12.008  0.4139  0.4201 -0.7380
 7760TIP3    H144695   5.365   1.800  11.957 -0.4284  1.2223 -1.2536
 7760TIP3    H244696   5.453   1.923  11.943 -0.7397  1.5007 -0.7831
 7761TIP3   OH244697   1.594   1.966  16.231 -0.3031 -0.2052  0.3330
 7761TIP3    H144698   1.579   1.919  16.313 -0.3866 -2.5487 -0.9312
 7761TIP3    H244699   1.623   1.898  16.170  0.8781  1.6476 -1.2966
 7762TIP3   OH244700   2.468   2.910   4.287 -0.0746  0.2615 -0.3184
 7762TIP3    H144701   2.385   2.932   4.329  0.1576  0.8613 -0.1672
 7762TIP3    H244702   2.527   2.981   4.311  0.0955  0.5715 -1.5774
 7763TIP3   OH244703   6.502   2.575  15.492 -0.4075  0.0569  0.0342
 7763TIP3    H144704   6.500   2.579  15.587  1.4369  0.9758  0.0833
 7763TIP3    H244705   6.450   2.651  15.463 -0.4257  0.1559  0.3261
 7764TIP3   OH244706   4.308   6.185  14.263 -0.4897 -0.0712  0.0959
 7764TIP3    H144707   4.331   6.226  14.347  1.3178  0.3091 -0.5340
 7764TIP3    H244708   4.291   6.258  14.204 -2.8680 -0.3447  0.3651
 7765TIP3   OH244709   5.838   0.684  14.659 -0.1943  0.4115  0.2378
 7765TIP3    H144710   5.854   0.727  14.743 -0.1236 -1.0546  1.0261
 7765TIP3    H244711   5.743   0.684  14.650 -0.3070 -0.6705  1.0665
 7766TIP3   OH244712   5.646   0.668   1.973  0.9039  0.3982 -0.0681
 7766TIP3    H144713   5.714   0.605   1.948  2.8081  2.1716  0.4229
 7766TIP3    H244714   5.586   0.617   2.028  2.7962 -0.8425  0.9717
 7767TIP3   OH244715   2.206   4.975  11.607  0.2941 -0.0405  0.2977
 7767TIP3    H144716   2.181   5.040  11.542  1.1089 -0.3479 -0.3482
 7767TIP3    H244717   2.290   5.005  11.641  0.2234 -0.2636  0.6789
 7768TIP3   OH244718   2.247   4.229   0.314 -0.3315 -0.6687  0.2228
 7768TIP3    H144719   2.206   4.143   0.308  0.0418 -0.7979 -0.5180
 7768TIP3    H244720   2.335   4.217   0.280 -1.7760  1.0570 -5.1143
 7769TIP3   OH244721   5.816   2.731   2.244 -0.7545  0.0928  0.3293
 7769TIP3    H144722   5.832   2.657   2.186  2.3790  0.1915  0.8957
 7769TIP3    H244723   5.851   2.807   2.197  0.6069  0.3759  1.7095
 7770TIP3   OH244724   3.839   0.688   4.093 -0.8445 -0.6485 -0.5137
 7770TIP3    H144725   3.806   0.773   4.121  0.3523 -0.4492  0.4147
 7770TIP3    H244726   3.769   0.651   4.040 -1.4590  0.8401 -0.7990
 7771TIP3   OH244727   4.124   5.862  15.744  0.3271 -0.0368  0.0711
 7771TIP3    H144728   4.044   5.909  15.767 -0.3121 -0.6044 -0.9051
 7771TIP3    H244729   4.127   5.788  15.805  0.5371  0.4119  0.6182
 7772TIP3   OH244730   3.748   0.678   5.106 -0.2158  0.2472 -0.1431
 7772TIP3    H144731   3.777   0.695   5.017 -0.8917  0.2510 -0.3715
 7772TIP3    H244732   3.689   0.751   5.126 -0.9503 -0.3341 -0.1125
 7773TIP3   OH244733   0.145   5.565   5.755 -0.1225  0.3784 -0.6844
 7773TIP3    H144734   0.186   5.495   5.704 -1.1584 -1.9395  1.4686
 7773TIP3    H244735   0.217   5.605   5.803  0.2541 -0.4327 -0.5589
 7774TIP3   OH244736   4.500   5.911  14.905 -0.4356 -0.1807  0.4099
 7774TIP3    H144737   4.447   5.991  14.901 -0.8239 -0.4763 -0.9787
 7774TIP3    H244738   4.495   5.885  14.997 -0.7982  1.0550  0.7731
 7775TIP3   OH244739   0.967   2.745   1.572  0.2610 -0.2347 -0.0416
 7775TIP3    H144740   1.060   2.768   1.580  0.0716  0.5004  0.0815
 7775TIP3    H244741   0.968   2.654   1.543  1.0218 -0.4050  0.4767
 7776TIP3   OH244742   3.106   0.224  15.578  0.7180  0.2370 -0.3911
 7776TIP3    H144743   3.026   0.184  15.543  1.4673 -1.3588 -0.3402
 7776TIP3    H244744   3.106   0.312  15.541 -1.0985  0.3148 -0.3359
 7777TIP3   OH244745   5.667   0.079   4.601  0.5549 -0.1456  0.1375
 7777TIP3    H144746   5.692   0.079   4.508  2.2675 -0.3154  0.5743
 7777TIP3    H244747   5.748   0.061   4.648 -0.4813 -1.2081  1.6333
 7778TIP3   OH244748   0.222   3.990   0.988 -0.0068  0.2363 -0.0164
 7778TIP3    H144749   0.278   4.066   0.972 -2.7740  2.4172 -0.2589
 7778TIP3    H244750   0.135   4.028   1.001 -1.5127 -2.9362 -0.0279
 7779TIP3   OH244751   5.387   5.495   4.578 -0.2066 -0.0539  0.0552
 7779TIP3    H144752   5.470   5.508   4.533 -0.6345  0.4014 -0.6310
 7779TIP3    H244753   5.387   5.560   4.648 -0.7544  1.2347 -1.0847
 7780TIP3   OH244754   3.630   3.744  16.083  0.3023 -0.3226  0.1291
 7780TIP3    H144755   3.718   3.779  16.099 -0.2703  0.5221  1.6986
 7780TIP3    H244756   3.592   3.804  16.019  0.7251 -0.4496 -0.2460
 7781TIP3   OH244757   4.376   2.428  13.808  0.0824  0.3550 -0.0098
 7781TIP3    H144758   4.372   2.369  13.884 -0.4503  2.3724  1.6271
 7781TIP3    H244759   4.459   2.407  13.766 -0.1323 -1.6187  0.4251
 7782TIP3   OH244760   4.192   6.319  16.705 -0.2651  0.5893  0.1367
 7782TIP3    H144761   4.164   6.231  16.681  0.1595  0.3848  0.3705
 7782TIP3    H244762   4.160   6.375  16.635  0.1812  0.1311 -0.4462
 7783TIP3   OH244763   1.420   4.621   1.141  0.7537 -0.0676 -0.0846
 7783TIP3    H144764   1.352   4.689   1.145  0.3922 -0.4577  0.8526
 7783TIP3    H244765   1.380   4.545   1.183  1.9644 -0.1271  1.0248
 7784TIP3   OH244766   5.753   2.827   2.787 -1.1814  0.3119  0.6681
 7784TIP3    H144767   5.680   2.774   2.819 -0.6906  0.5229  2.1909
 7784TIP3    H244768   5.717   2.874   2.711 -1.5999 -2.2751 -0.8817
 7785TIP3   OH244769   3.208   6.441   2.960 -0.0810 -0.9572  0.4324
 7785TIP3    H144770   3.129   6.462   2.909  0.0849 -1.5038 -0.0645
 7785TIP3    H244771   3.177   6.384   3.030 -0.4801  0.6165  1.5878
 7786TIP3   OH244772   5.543   2.284   2.283  0.4041 -0.0300 -0.5335
 7786TIP3    H144773   5.510   2.209   2.333 -0.5098 -0.0414 -1.1311
 7786TIP3    H244774   5.605   2.327   2.343 -0.4028 -0.2390  0.4863
 7787TIP3   OH244775   1.500   0.759  14.722  0.6333 -0.0331  0.1239
 7787TIP3    H144776   1.493   0.740  14.628  1.7118  0.1838 -0.0090
 7787TIP3    H244777   1.479   0.677  14.765 -0.0142 -0.0986 -0.2956
 7788TIP3   OH244778   4.264   6.406   4.237 -0.1713 -0.0730  0.2029
 7788TIP3    H144779   4.356   6.382   4.240 -0.6479 -2.0712 -0.2463
 7788TIP3    H244780   4.261   6.485   4.183  1.2680  0.0826  0.3319
 7789TIP3   OH244781   1.139   3.274   2.909 -0.1246 -0.3782  0.4773
 7789TIP3    H144782   1.200   3.337   2.947  0.4767  0.4767 -1.7678
 7789TIP3    H244783   1.055   3.294   2.950  0.0599  1.9170 -0.1359
 7790TIP3   OH244784   6.236   4.594  12.665  0.0038  0.1643 -0.4330
 7790TIP3    H144785   6.245   4.590  12.569  0.9501  2.0421 -0.4641
 7790TIP3    H244786   6.159   4.649  12.679 -0.2158 -0.2215 -0.1046
 7791TIP3   OH244787   3.659   6.094  15.421 -0.1795 -0.4606 -0.4224
 7791TIP3    H144788   3.567   6.086  15.397  0.0122 -2.2518 -0.6799
 7791TIP3    H244789   3.678   6.187  15.411 -1.9835 -0.0303 -0.2229
 7792TIP3   OH244790   2.363   2.686  11.356  0.3800  0.3569  0.2175
 7792TIP3    H144791   2.385   2.593  11.352  0.5273  0.3935  0.1404
 7792TIP3    H244792   2.279   2.690  11.402 -1.2077 -0.0649 -2.4389
 7793TIP3   OH244793   3.977   5.267   3.791 -0.1101 -0.1003 -0.1800
 7793TIP3    H144794   4.035   5.343   3.795  1.0957 -0.9090 -1.4292
 7793TIP3    H244795   3.897   5.295   3.836 -0.1150  2.2577 -1.5442
 7794TIP3   OH244796   6.396   4.999   4.798  0.2516  0.2210  0.3562
 7794TIP3    H144797   6.381   4.905   4.791  1.9545 -0.0894  0.5306
 7794TIP3    H244798   6.490   5.010   4.782  0.1076  1.8817  0.4584
 7795TIP3   OH244799   1.145   0.359  11.292  0.4894  0.1009 -0.2224
 7795TIP3    H144800   1.067   0.410  11.271  0.0835 -0.5398 -0.3115
 7795TIP3    H244801   1.177   0.328  11.207 -1.9438 -3.6496 -0.0075
 7796TIP3   OH244802   5.007   1.975   3.481  0.6050 -0.1993 -0.3582
 7796TIP3    H144803   5.039   2.041   3.420  2.2604 -0.5573  0.0962
 7796TIP3    H244804   4.911   1.985   3.478  0.7698  1.5545 -1.0124
 7797TIP3   OH244805   2.901   3.812  12.648 -0.3506  0.5025 -0.1525
 7797TIP3    H144806   2.933   3.902  12.655  0.9418  0.0305  0.1523
 7797TIP3    H244807   2.833   3.816  12.580 -0.0387  1.6276 -0.4162
 7798TIP3   OH244808   3.697   6.310  16.339  0.9283 -0.0784  0.5453
 7798TIP3    H144809   3.672   6.232  16.389  2.6409 -1.8197 -1.1575
 7798TIP3    H244810   3.649   6.381  16.381 -3.1820 -2.3851  0.3109
 7799TIP3   OH244811   0.746   1.423  13.617 -0.3693 -0.8796 -0.6876
 7799TIP3    H144812   0.681   1.463  13.675  2.0162  4.1700 -1.0384
 7799TIP3    H244813   0.716   1.445  13.529  0.4665 -0.8840 -0.9796
 7800TIP3   OH244814   3.005   6.450   0.544  0.3698 -0.3384 -0.3073
 7800TIP3    H144815   3.061   6.504   0.600  0.4442 -0.9775  0.2411
 7800TIP3    H244816   3.065   6.394   0.496  0.1747 -1.8201  1.1091
 7801TIP3   OH244817   2.190   3.274  13.064 -0.1578 -0.2386  0.4434
 7801TIP3    H144818   2.271   3.226  13.082  1.0068  0.9927 -1.1606
 7801TIP3    H244819   2.124   3.207  13.054  0.6256 -1.2828  1.9174
 7802TIP3   OH244820   6.739   3.983  14.938  0.0416 -0.4033 -0.1024
 7802TIP3    H144821   6.827   3.945  14.937  0.5411  0.7246 -0.4327
 7802TIP3    H244822   6.740   4.046  15.010 -0.4429 -0.2743 -0.2037
 7803TIP3   OH244823   1.551   1.953  13.694  0.0713 -0.0519  0.2850
 7803TIP3    H144824   1.611   1.892  13.737 -1.5886 -0.0514  2.8044
 7803TIP3    H244825   1.579   1.953  13.602  2.4616 -1.7272  0.9089
 7804TIP3   OH244826   4.252   3.041  14.697  0.0981  0.3894 -0.1630
 7804TIP3    H144827   4.312   2.997  14.757 -0.5018  1.1205  1.0102
 7804TIP3    H244828   4.228   3.121  14.743  0.0610  1.2561 -1.6396
 7805TIP3   OH244829   2.532   5.912   2.130 -0.1680 -0.3909  0.2447
 7805TIP3    H144830   2.618   5.908   2.087 -0.7823  0.5678 -1.1502
 7805TIP3    H244831   2.515   6.006   2.139 -0.9289 -0.5824  0.8094
 7806TIP3   OH244832   2.966   4.488  14.458  0.0415  0.5173  0.2217
 7806TIP3    H144833   2.903   4.555  14.431  0.2669 -0.1511 -2.1138
 7806TIP3    H244834   3.006   4.457  14.377  3.7435  1.1769  1.6203
 7807TIP3   OH244835   3.756   0.645   1.856 -0.2620  0.1443 -0.2702
 7807TIP3    H144836   3.813   0.579   1.895 -1.2794 -1.9104 -2.0123
 7807TIP3    H244837   3.809   0.724   1.854  1.6857 -1.0650  0.3182
 7808TIP3   OH244838   0.244   5.643   0.308 -0.1666 -0.3935 -0.4735
 7808TIP3    H144839   0.268   5.717   0.252 -1.0269 -0.3394 -0.7882
 7808TIP3    H244840   0.158   5.667   0.344  0.0307 -0.7672  0.2687
 7809TIP3   OH244841   1.126   3.634  15.683  0.0076 -0.1093  0.0133
 7809TIP3    H144842   1.132   3.555  15.630 -1.0337 -0.8793  1.0000
 7809TIP3    H244843   1.182   3.698  15.638 -0.6789 -0.7894 -1.8836
 7810TIP3   OH244844   1.392   3.635   3.236 -0.2544 -0.1482 -0.1237
 7810TIP3    H144845   1.329   3.688   3.286 -0.8157 -0.8445 -0.0737
 7810TIP3    H244846   1.438   3.698   3.180 -2.1965  0.2056 -1.4341
 7811TIP3   OH244847   5.643   5.482   5.470  0.2091 -0.3152 -0.8318
 7811TIP3    H144848   5.681   5.541   5.406  2.4348 -0.0761  0.6025
 7811TIP3    H244849   5.694   5.402   5.463 -0.8755 -1.0402 -0.7542
 7812TIP3   OH244850   6.467   0.752  11.996 -0.1068 -0.1794 -0.1348
 7812TIP3    H144851   6.450   0.768  11.903  0.9874  0.4199 -0.2558
 7812TIP3    H244852   6.473   0.839  12.034 -1.4836 -0.4269  0.7036
 7813TIP3   OH244853   4.016   4.633   2.045 -0.3352 -0.4627  0.1487
 7813TIP3    H144854   4.016   4.633   2.140  0.2855 -1.7010  0.1629
 7813TIP3    H244855   3.936   4.586   2.021 -0.8754  0.4867  0.0344
 7814TIP3   OH244856   1.048   1.966   1.335  0.2871 -0.2113 -0.3177
 7814TIP3    H144857   0.979   1.946   1.272 -0.8445  3.1134 -0.3130
 7814TIP3    H244858   1.022   2.049   1.373  3.2020  0.0556  1.3525
 7815TIP3   OH244859   1.198   3.622  14.815 -0.3567 -0.6598 -0.6805
 7815TIP3    H144860   1.128   3.682  14.841 -0.4022 -0.9827 -0.0541
 7815TIP3    H244861   1.154   3.555  14.763 -0.5004 -0.8113 -0.3649
 7816TIP3   OH244862   3.162   1.186   6.582 -0.1230 -0.0616 -0.2667
 7816TIP3    H144863   3.158   1.096   6.615  0.7047 -0.1049 -0.2591
 7816TIP3    H244864   3.240   1.223   6.622  0.8041 -0.0538 -1.9869
 7817TIP3   OH244865   5.655   2.598   5.968 -0.3856 -0.3274  0.2519
 7817TIP3    H144866   5.659   2.661   5.897 -0.2914  0.0297  0.5714
 7817TIP3    H244867   5.570   2.555   5.958 -0.6374  0.1620  0.3020
 7818TIP3   OH244868   6.107   1.715   0.080 -0.1544  0.4377  0.0060
 7818TIP3    H144869   6.034   1.758   0.124 -1.6977 -0.6872 -1.3323
 7818TIP3    H244870   6.090   1.621   0.090  0.4838  0.1549 -1.2668
 7819TIP3   OH244871   0.679   0.977  15.508 -0.3265 -0.3315 -0.1146
 7819TIP3    H144872   0.652   0.893  15.545  0.9723 -0.2940  1.0424
 7819TIP3    H244873   0.632   1.043  15.560  0.6604 -0.3114  0.8110
 7820TIP3   OH244874   2.498   3.643   4.170 -0.0510 -0.1906 -0.1752
 7820TIP3    H144875   2.456   3.668   4.088  0.9746 -2.6933 -1.5620
 7820TIP3    H244876   2.428   3.647   4.235 -1.4535 -0.4009 -1.6143
 7821TIP3   OH244877   2.668   1.338  16.574 -0.0428 -0.3742  0.4984
 7821TIP3    H144878   2.585   1.341  16.621 -0.7765 -0.3319 -0.7757
 7821TIP3    H244879   2.725   1.286  16.631 -1.5258 -2.1281  0.4849
 7822TIP3   OH244880   5.832   4.020   5.669 -0.3295 -0.0764  0.0640
 7822TIP3    H144881   5.923   4.050   5.667 -1.0153  2.3276  1.2530
 7822TIP3    H244882   5.815   4.001   5.761 -1.2346  0.1670 -0.0425
 7823TIP3   OH244883   6.671   2.389   3.151  0.1853 -0.6397  0.5478
 7823TIP3    H144884   6.670   2.294   3.148 -1.2211 -0.6165 -0.9153
 7823TIP3    H244885   6.656   2.410   3.243 -2.6366 -1.8603  0.4634
 7824TIP3   OH244886   3.102   1.121  13.550  0.1238  0.0312  0.3709
 7824TIP3    H144887   3.116   1.216  13.545 -0.7594  0.1455 -0.1600
 7824TIP3    H244888   3.011   1.109  13.522  0.4212 -1.0324 -0.1892
 7825TIP3   OH244889   1.478   4.408  15.277  0.0750  0.2309  0.6843
 7825TIP3    H144890   1.530   4.453  15.211 -1.8614  2.5163  0.5865
 7825TIP3    H244891   1.523   4.426  15.360  0.3892  0.7004  0.4170
 7826TIP3   OH244892   0.116   0.442  16.822 -0.0434  0.6927  0.4724
 7826TIP3    H144893   0.200   0.408  16.792 -0.9274  0.0698 -1.4788
 7826TIP3    H244894   0.106   0.526  16.779  0.1820  1.4625  1.8497
 7827TIP3   OH244895   6.362   0.982   2.592  0.1938 -0.0855 -0.1533
 7827TIP3    H144896   6.333   0.896   2.621 -1.4033 -0.0369 -1.4518
 7827TIP3    H244897   6.316   1.044   2.649 -1.5775 -0.0442 -1.5133
 7828TIP3   OH244898   0.524   0.280  16.237  0.4232 -0.1638  0.1309
 7828TIP3    H144899   0.488   0.360  16.276  1.0155 -0.0364  0.4110
 7828TIP3    H244900   0.474   0.270  16.155 -0.4834 -0.1725  0.6721
 7829TIP3   OH244901   1.346   0.128   1.773 -0.1037 -0.0229  0.0409
 7829TIP3    H144902   1.315   0.202   1.826 -0.9282 -0.7327  0.5714
 7829TIP3    H244903   1.325   0.152   1.683  0.3622  0.7350  0.1247
 7830TIP3   OH244904   0.252   5.670   6.587 -0.3179 -0.3650 -0.1610
 7830TIP3    H144905   0.178   5.645   6.532 -0.5044 -2.6523  1.0163
 7830TIP3    H244906   0.212   5.704   6.667 -0.0556  0.8003 -0.5078
 7831TIP3   OH244907   6.719   1.641   0.633 -0.3378 -0.3731 -0.3192
 7831TIP3    H144908   6.704   1.567   0.692  0.6602 -1.6770 -1.6387
 7831TIP3    H244909   6.812   1.660   0.641 -0.7466  1.4801  0.7730
 7832TIP3   OH244910   2.543   6.286  12.871 -0.2286 -0.0671 -0.2777
 7832TIP3    H144911   2.567   6.347  12.941  1.0856 -0.4557 -0.3687
 7832TIP3    H244912   2.500   6.340  12.805 -0.8067  0.4277  0.4957
 7833TIP3   OH244913   6.142   1.792  13.550 -0.0701  0.9573  0.2987
 7833TIP3    H144914   6.065   1.826  13.506 -0.3720  0.8642  0.7491
 7833TIP3    H244915   6.205   1.776  13.480 -2.2563 -4.2835 -0.9381
 7834TIP3   OH244916   2.743   0.750   1.689 -0.1169 -0.1021  0.1830
 7834TIP3    H144917   2.729   0.695   1.612 -1.3873  0.4470  0.0015
 7834TIP3    H244918   2.748   0.689   1.762  1.3268 -0.6450 -0.3444
 7835TIP3   OH244919   0.917   5.448   5.436  0.1289 -0.5504 -0.0177
 7835TIP3    H144920   0.971   5.495   5.500  0.7438  0.9828 -1.5804
 7835TIP3    H244921   0.974   5.378   5.404  0.4131 -0.2962 -0.0748
 7836TIP3   OH244922   1.300   6.642   1.433 -0.0003  0.2762  0.2656
 7836TIP3    H144923   1.246   6.613   1.360  1.6888  0.6496 -1.2116
 7836TIP3    H244924   1.241   6.645   1.508 -1.6469 -0.7391 -0.9419
 7837TIP3   OH244925   0.022   0.185   4.955 -0.2813  0.1879 -0.0599
 7837TIP3    H144926   0.054   0.248   5.019 -0.1135  0.7311 -0.6645
 7837TIP3    H244927  -0.034   0.237   4.896 -1.9803 -0.6479  0.7297
 7838TIP3   OH244928   3.769   2.995   0.989  0.0776  0.1596  0.4188
 7838TIP3    H144929   3.848   3.049   0.979 -0.4250  0.7648 -0.4400
 7838TIP3    H244930   3.798   2.920   1.041  1.7903 -0.7879 -1.7428
 7839TIP3   OH244931   0.850   2.399   4.969  0.5704  0.4276  0.5471
 7839TIP3    H144932   0.787   2.340   5.010  1.0122 -0.0839  0.4894
 7839TIP3    H244933   0.891   2.445   5.042  0.8328  0.0492  0.6380
 7840TIP3   OH244934   6.450   3.860  13.943 -0.1188  0.0364  0.0406
 7840TIP3    H144935   6.374   3.823  13.987  1.3549 -0.7541  2.1000
 7840TIP3    H244936   6.496   3.785  13.906  1.8527 -0.1491  2.5525
 7841TIP3   OH244937   6.395   5.569   4.559 -0.2244  0.0730 -0.4524
 7841TIP3    H144938   6.352   5.562   4.645 -0.1936  0.1152 -0.4330
 7841TIP3    H244939   6.323   5.573   4.496 -0.2396 -0.6553 -0.4817
 7842TIP3   OH244940   0.738   2.907  15.856 -0.2229  0.0637  0.3692
 7842TIP3    H144941   0.752   2.899  15.762  0.0950 -0.2615  0.4420
 7842TIP3    H244942   0.683   2.985  15.866 -0.4878 -0.0606 -0.1035
 7843TIP3   OH244943   0.843   2.623  14.443 -0.0111  0.5168  0.1481
 7843TIP3    H144944   0.810   2.570  14.515 -0.9884  0.5341 -0.2709
 7843TIP3    H244945   0.801   2.708  14.453  0.8816  0.9438  0.3186
 7844TIP3   OH244946   2.208   1.322   5.667 -0.0455  0.6420  0.2202
 7844TIP3    H144947   2.280   1.377   5.697  2.0309 -0.3705 -2.4783
 7844TIP3    H244948   2.185   1.358   5.581  0.7740 -2.0264 -1.2260
 7845TIP3   OH244949   4.251   6.267  12.454  0.3847  0.0348 -0.0354
 7845TIP3    H144950   4.294   6.188  12.486  0.5446 -0.6573 -1.8377
 7845TIP3    H244951   4.237   6.250  12.361 -1.7023  1.1861  0.0186
 7846TIP3   OH244952   0.096   1.126  16.351 -0.0285 -0.0260  0.2640
 7846TIP3    H144953   0.020   1.074  16.326 -1.3462  2.1981 -0.6084
 7846TIP3    H244954   0.060   1.196  16.406  1.7735 -0.3917  2.0224
 7847TIP3   OH244955   1.352   2.446   1.945 -0.6377 -0.5184  0.5744
 7847TIP3    H144956   1.361   2.438   2.040 -0.0253  0.5160  0.6219
 7847TIP3    H244957   1.396   2.529   1.924 -1.9257 -0.0570 -0.4467
 7848TIP3   OH244958   1.977   1.246   1.046  0.0208 -0.1258  0.1073
 7848TIP3    H144959   1.956   1.269   1.137  2.9110  1.5419  0.4734
 7848TIP3    H244960   2.069   1.221   1.048  0.4811  1.0123 -2.5054
 7849TIP3   OH244961   6.394   1.057  12.404  0.3620 -0.5464  0.7244
 7849TIP3    H144962   6.373   1.015  12.488 -0.4101  0.1817  0.9085
 7849TIP3    H244963   6.311   1.091  12.373  0.8994  0.4927  0.3863
 7850TIP3   OH244964   3.379   3.863  16.874  0.3044  0.1117 -0.3673
 7850TIP3    H144965   3.310   3.799  16.860  1.1374 -0.5367 -1.6947
 7850TIP3    H244966   3.344   3.921  16.942 -2.1215  0.6243 -1.9151
 7851TIP3   OH244967   1.543   6.740  16.112  0.5227  0.0260  0.8956
 7851TIP3    H144968   1.477   6.808  16.098 -0.8628 -1.4178  0.0442
 7851TIP3    H244969   1.627   6.783  16.096 -0.3835  1.2451 -0.8398
 7852TIP3   OH244970   4.465   6.264  15.545 -0.3928  1.0090 -0.0729
 7852TIP3    H144971   4.377   6.286  15.515 -0.4769  1.4295  0.4787
 7852TIP3    H244972   4.455   6.182  15.593 -0.3547  0.6541 -0.6542
 7853TIP3   OH244973   5.836   1.915  11.701 -0.1599 -0.8015  0.1699
 7853TIP3    H144974   5.811   1.890  11.612  0.9533 -1.1111 -0.0728
 7853TIP3    H244975   5.907   1.978  11.689 -0.2173 -0.6032  0.8362
 7854TIP3   OH244976   4.606   2.710  15.808 -0.3299  0.0714  0.2131
 7854TIP3    H144977   4.524   2.668  15.783 -0.5353  0.7422 -0.2604
 7854TIP3    H244978   4.586   2.804  15.811 -0.0504  0.1137  1.8862
 7855TIP3   OH244979   3.088   4.703   5.766 -0.1157 -0.2650 -0.6611
 7855TIP3    H144980   3.013   4.643   5.771  0.8960 -1.5994 -0.9830
 7855TIP3    H244981   3.158   4.651   5.727  1.4701  0.4787  1.0707
 7856TIP3   OH244982   6.567   4.079   1.539  0.3422 -0.2941  0.2556
 7856TIP3    H144983   6.601   3.991   1.553 -2.2452 -1.6296 -1.0477
 7856TIP3    H244984   6.502   4.091   1.609 -1.2402 -0.5908 -1.0920
 7857TIP3   OH244985   6.144   0.540   0.484  0.0027  0.0098  0.2914
 7857TIP3    H144986   6.172   0.469   0.426 -0.5932  0.5113 -0.6214
 7857TIP3    H244987   6.098   0.601   0.427  0.1581  0.9424  1.1384
 7858TIP3   OH244988   2.375   6.504  13.201 -0.4258  0.1242 -0.3583
 7858TIP3    H144989   2.364   6.567  13.272 -0.7379 -0.5420  0.1976
 7858TIP3    H244990   2.341   6.548  13.124 -0.8404  0.5555  0.0692
 7859TIP3   OH244991   5.191   1.640  12.977  0.1789  0.3175  0.2696
 7859TIP3    H144992   5.244   1.561  12.965  2.6233  1.8920 -0.2005
 7859TIP3    H244993   5.116   1.628  12.920  0.0079 -2.0373  0.9228
 7860TIP3   OH244994   5.261   0.651  14.697  0.5812 -0.8413  0.4340
 7860TIP3    H144995   5.181   0.674  14.650 -0.7580 -0.7818  2.6124
 7860TIP3    H244996   5.237   0.654  14.790  2.8544 -1.8011  1.1419
 7861TIP3   OH244997   1.691   6.164   3.963  0.0561 -0.8944  0.0397
 7861TIP3    H144998   1.644   6.242   3.934  1.5051 -0.1591 -0.3742
 7861TIP3    H244999   1.749   6.194   4.032  2.2401 -1.1093 -1.6017
 7862TIP3   OH245000   2.628   2.775  10.728  0.3109 -0.1673  0.1330
 7862TIP3    H145001   2.555   2.752  10.670 -0.4019 -1.6072  1.4953
 7862TIP3    H245002   2.642   2.869  10.714  0.4737 -0.5275 -2.6249
 7863TIP3   OH245003   3.338   4.941  12.186 -0.2222 -0.4533  0.0213
 7863TIP3    H145004   3.297   4.884  12.251 -0.5782 -0.2496 -0.0272
 7863TIP3    H245005   3.354   4.884  12.111 -3.1603  0.1100 -1.1347
 7864TIP3   OH245006   4.871   5.389  15.464  0.1260 -0.2660 -0.3128
 7864TIP3    H145007   4.827   5.457  15.515  1.9267  0.5897  0.1632
 7864TIP3    H245008   4.939   5.355  15.522  0.7590 -0.8583 -1.3638
 7865TIP3   OH245009   5.931   3.118   0.034 -0.0897 -0.1837 -0.0866
 7865TIP3    H145010   5.869   3.057  -0.005 -0.8766 -0.0916  0.9763
 7865TIP3    H245011   5.887   3.203   0.029  0.0235 -0.0885  0.5122
 7866TIP3   OH245012   3.561   2.056   5.397 -0.6974  0.4435  0.2134
 7866TIP3    H145013   3.489   1.998   5.420 -0.1610  0.2856  1.5727
 7866TIP3    H245014   3.554   2.067   5.302  0.2768 -3.3932 -0.4838
 7867TIP3   OH245015   2.910   1.730   1.090  0.0342  1.2188  0.4438
 7867TIP3    H145016   2.891   1.703   1.000  1.3011  1.6008  0.0281
 7867TIP3    H245017   2.836   1.699   1.142 -1.0306  1.5452 -0.8301
 7868TIP3   OH245018   4.342   3.284  16.484 -0.3926 -0.1862  0.0839
 7868TIP3    H145019   4.392   3.333  16.549 -1.8127 -2.0059  2.7175
 7868TIP3    H245020   4.403   3.219  16.450  0.0376 -0.0200  0.5298
 7869TIP3   OH245021   5.004   1.509  12.800 -0.0594  0.2713  0.1629
 7869TIP3    H145022   5.070   1.470  12.743 -0.2163  0.2136  0.0183
 7869TIP3    H245023   4.961   1.434  12.842  1.8318  0.3317  2.4361
 7870TIP3   OH245024   5.150   6.709   1.848 -0.5281 -0.0175 -0.1898
 7870TIP3    H145025   5.132   6.655   1.772 -1.0120  0.0218 -0.1104
 7870TIP3    H245026   5.242   6.733   1.840 -0.4220 -0.5016 -0.4457
 7871TIP3   OH245027   1.382   1.437  12.986  1.0364 -0.5479 -0.6974
 7871TIP3    H145028   1.293   1.456  13.016  1.9040  0.7789  1.2575
 7871TIP3    H245029   1.393   1.491  12.908  0.6913  0.6860  0.0802
 7872TIP3   OH245030   3.193   5.242   1.232  0.0689 -0.0596  0.4175
 7872TIP3    H145031   3.159   5.299   1.164 -0.5189 -0.4598  0.3656
 7872TIP3    H245032   3.182   5.291   1.313  1.0541  0.5416  0.1976
 7873TIP3   OH245033   0.858   2.056   4.861  0.3266  0.3299 -0.0586
 7873TIP3    H145034   0.830   2.083   4.774 -0.2823 -0.5322 -0.1403
 7873TIP3    H245035   0.792   2.090   4.920  1.3836  1.9908  0.2283
 7874TIP3   OH245036   6.097   0.822  11.809  0.0474 -0.2865  0.3851
 7874TIP3    H145037   6.134   0.873  11.738 -2.2503  0.6291 -0.2165
 7874TIP3    H245038   6.085   0.884  11.881 -1.5744 -0.2212  0.0876
 7875TIP3   OH245039   0.049   6.034  16.949  0.5288  0.0121  0.1796
 7875TIP3    H145040   0.141   6.010  16.954  1.0970  1.8858 -0.5615
 7875TIP3    H245041   0.032   6.082  17.030  0.4899  0.5913 -0.1717
 7876TIP3   OH245042   2.342   4.238   6.068 -0.0213 -0.2973 -0.6063
 7876TIP3    H145043   2.369   4.302   6.134  0.9954  1.0901 -2.2957
 7876TIP3    H245044   2.347   4.154   6.114 -1.2258  0.7537  1.6179
 7877TIP3   OH245045   1.953   5.056   3.459 -0.4929  0.3283 -0.3661
 7877TIP3    H145046   2.018   5.024   3.396 -0.1824  0.9504 -0.3643
 7877TIP3    H245047   1.940   5.148   3.436 -0.8985  0.3742  0.0389
 7878TIP3   OH245048   0.636   4.364   5.053  0.2402 -0.0183 -0.0953
 7878TIP3    H145049   0.673   4.413   5.127  1.3169  0.0308 -0.6388
 7878TIP3    H245050   0.578   4.300   5.093  1.7208 -0.7902  0.8998
 7879TIP3   OH245051   0.222   5.151   0.802 -0.0215  0.2021  0.5800
 7879TIP3    H145052   0.212   5.056   0.812 -1.1709  0.1262 -0.8853
 7879TIP3    H245053   0.293   5.161   0.738  0.6373  0.3676  1.3261
 7880TIP3   OH245054   2.520   4.964   0.735 -0.3218  0.2604 -0.1306
 7880TIP3    H145055   2.440   4.920   0.763  0.5698 -0.9883  0.5222
 7880TIP3    H245056   2.573   4.895   0.696  0.8040  0.9008  0.2261
 7881TIP3   OH245057   0.069   6.394   4.593  0.1655 -0.5902  0.7075
 7881TIP3    H145058   0.140   6.334   4.618  1.3964  1.3540  2.1873
 7881TIP3    H245059   0.081   6.470   4.650 -3.6012 -0.4492  1.5539
 7882TIP3   OH245060   6.223   3.120   0.304  0.1082  0.7576 -0.5019
 7882TIP3    H145061   6.226   3.064   0.227  2.3246  1.3938 -0.9303
 7882TIP3    H245062   6.168   3.194   0.278 -0.5593  0.1381 -0.8676
 7883TIP3   OH245063   5.156   3.887  17.143  0.1818 -0.0264  0.1033
 7883TIP3    H145064   5.123   3.874  17.054  0.4843 -2.5412  0.2822
 7883TIP3    H245065   5.249   3.862  17.138  0.0099 -0.9558  1.2605
 7884TIP3   OH245066   4.067   1.245   5.972 -0.1619  0.2701  0.4591
 7884TIP3    H145067   4.084   1.152   5.953 -2.1426 -0.6410  2.6836
 7884TIP3    H245068   4.064   1.250   6.068 -0.3316  2.6189  0.3950
 7885TIP3   OH245069   6.044   0.655   1.091 -0.2326 -0.5325  0.0339
 7885TIP3    H145070   6.109   0.723   1.073  0.9266 -1.8809 -1.1673
 7885TIP3    H245071   6.076   0.613   1.171 -0.9350  0.2827  0.7618
 7886TIP3   OH245072   6.487   4.777  14.203 -0.1464  0.4833 -0.1237
 7886TIP3    H145073   6.431   4.730  14.265  0.9887 -1.1983 -0.3016
 7886TIP3    H245074   6.484   4.868  14.232 -1.9930  0.2317  0.5803
 7887TIP3   OH245075   2.257   3.389   4.747 -0.6544 -0.6780 -0.2875
 7887TIP3    H145076   2.224   3.315   4.798 -1.6394  0.1369  0.2972
 7887TIP3    H245077   2.352   3.382   4.753 -0.7368 -0.6228  1.6505
 7888TIP3   OH245078   2.335   1.221   5.381 -0.2694  0.3478  0.0319
 7888TIP3    H145079   2.294   1.307   5.392  0.6799  0.6282  1.9005
 7888TIP3    H245080   2.427   1.241   5.363 -0.2764 -0.2940 -0.7722
 7889TIP3   OH245081   6.351   6.289  14.161  0.7396 -0.3288  0.2086
 7889TIP3    H145082   6.416   6.358  14.152  2.1870 -1.7453 -1.0029
 7889TIP3    H245083   6.286   6.324  14.222  2.1265  1.5234  0.7113
 7890TIP3   OH245084   4.197   1.365   4.810 -0.0557 -0.0357  0.0117
 7890TIP3    H145085   4.184   1.271   4.810  2.9176 -0.5742 -0.8298
 7890TIP3    H245086   4.113   1.402   4.786 -0.9294 -2.5564 -1.0837
 7891TIP3   OH245087   2.885   6.060   3.638  0.0951 -0.2807 -0.0077
 7891TIP3    H145088   2.954   6.094   3.582  1.7451 -1.3503  1.2976
 7891TIP3    H245089   2.824   6.134   3.648 -0.2422 -0.0172 -3.0279
 7892TIP3   OH245090   1.316   0.553   2.519  0.6801  0.4268 -0.2149
 7892TIP3    H145091   1.343   0.633   2.474  1.2305  0.6195  0.4348
 7892TIP3    H245092   1.387   0.492   2.503  0.2863  0.0719 -0.6606
 7893TIP3   OH245093   6.570   1.875   0.486  0.0743 -0.2879 -0.8642
 7893TIP3    H145094   6.596   1.784   0.472 -0.9259 -0.4711 -1.5758
 7893TIP3    H245095   6.649   1.917   0.520  0.8956 -1.1433 -1.6665
 7894TIP3   OH245096   0.431   4.116  14.877  0.7326  0.7253  0.9110
 7894TIP3    H145097   0.481   4.038  14.852 -1.6526 -0.5283 -0.4015
 7894TIP3    H245098   0.496   4.186  14.883  2.4938 -0.4081 -2.2530
 7895TIP3   OH245099   2.838   4.723  13.647 -0.3037 -0.5370  0.5013
 7895TIP3    H145100   2.902   4.722  13.577 -0.1349  1.0791  0.5859
 7895TIP3    H245101   2.860   4.801  13.699 -1.8500 -0.3712  0.9725
 7896TIP3   OH245102   1.715   4.054  11.800 -0.2168  0.4728  0.0662
 7896TIP3    H145103   1.796   4.086  11.760  0.3068  0.8712  1.4080
 7896TIP3    H245104   1.735   3.964  11.826 -0.7303  0.0250 -0.9781
 7897TIP3   OH245105   1.665   4.988   5.394  0.3981 -0.5874  0.0333
 7897TIP3    H145106   1.724   5.035   5.336  1.1282 -1.7325 -0.1916
 7897TIP3    H245107   1.602   5.054   5.423  1.0319  0.3787 -0.7154
 7898TIP3   OH245108   3.522   5.068   5.022 -0.1661 -0.4322  0.0945
 7898TIP3    H145109   3.543   4.974   5.018  3.0095  0.1776 -0.0363
 7898TIP3    H245110   3.531   5.090   5.114 -0.9481 -0.2463  0.1294
 7899TIP3   OH245111   3.634   0.108  17.009  0.1148 -0.1962 -0.1873
 7899TIP3    H145112   3.616   0.055  16.931  1.8832 -1.9316  0.4919
 7899TIP3    H245113   3.637   0.044  17.081  1.6425  0.9120  0.7833
 7900TIP3   OH245114   6.702   0.065  14.484  0.1932  0.1877 -0.5048
 7900TIP3    H145115   6.748   0.068  14.568  0.3730  2.1990 -0.6341
 7900TIP3    H245116   6.742  -0.009  14.438  1.9993  0.7168  0.1337
 7901TIP3   OH245117   1.380   2.735   3.059 -0.1814 -0.0944  0.1646
 7901TIP3    H145118   1.311   2.800   3.062  0.3655  0.5576 -0.8007
 7901TIP3    H245119   1.357   2.671   3.127 -1.9613 -0.1435 -0.4410
 7902TIP3   OH245120   2.029   6.555  13.186  0.6434  0.2503 -0.8140
 7902TIP3    H145121   2.064   6.478  13.140  1.4784  0.9225 -1.3207
 7902TIP3    H245122   2.014   6.620  13.117  0.1171  0.6202 -0.3653
 7903TIP3   OH245123   2.396   6.659  11.002  0.3203  0.3724  0.1386
 7903TIP3    H145124   2.358   6.584  10.957  1.3565  0.3646 -0.7588
 7903TIP3    H245125   2.393   6.730  10.938 -0.3019  1.0182  0.8504
 7904TIP3   OH245126   2.351   4.216  11.997 -0.8045  0.5061  0.4401
 7904TIP3    H145127   2.358   4.141  12.057 -1.6419  0.2552  0.2358
 7904TIP3    H245128   2.282   4.191  11.936 -2.2679  2.0867  1.3449
 7905TIP3   OH245129   2.858   2.440   0.725 -0.1206 -0.1587  0.8311
 7905TIP3    H145130   2.774   2.396   0.735 -1.4799  1.8921 -0.9169
 7905TIP3    H245131   2.856   2.511   0.789  1.7548 -1.9564  3.1075
 7906TIP3   OH245132   2.381   4.546  17.081  0.2224  0.3190  0.5283
 7906TIP3    H145133   2.289   4.531  17.102 -0.3914  1.0305 -1.4207
 7906TIP3    H245134   2.386   4.639  17.056  0.5816 -0.5307 -3.1522
 7907TIP3   OH245135   4.227   5.538  13.716  0.4308  0.2057  0.3148
 7907TIP3    H145136   4.217   5.443  13.706 -1.5341  0.2606  1.2411
 7907TIP3    H245137   4.151   5.575  13.672 -0.5318  1.1314  2.5583
 7908TIP3   OH245138   2.145   0.257  17.120  0.7333 -0.1125 -0.3494
 7908TIP3    H145139   2.159   0.180  17.065  0.7244  0.1457 -0.7124
 7908TIP3    H245140   2.221   0.257  17.179 -0.5888 -1.9570  1.5334
 7909TIP3   OH245141   0.542   3.473   3.968 -0.2374  0.3729 -0.1111
 7909TIP3    H145142   0.516   3.565   3.975 -2.6304 -0.3575  2.2770
 7909TIP3    H245143   0.492   3.440   3.893 -1.0793  0.5566  0.3517
 7910TIP3   OH245144   4.133   4.238  14.782  0.1159  0.0727  0.0559
 7910TIP3    H145145   4.094   4.156  14.751 -1.1735  0.7737 -0.2342
 7910TIP3    H245146   4.209   4.251  14.726 -1.1757  0.4095 -1.6926
 7911TIP3   OH245147   6.634   4.186   0.246 -0.2244  0.0832 -0.1354
 7911TIP3    H145148   6.573   4.122   0.209 -0.6493  0.4449 -0.0720
 7911TIP3    H245149   6.708   4.185   0.186 -0.7990  0.4816 -0.8777
 7912TIP3   OH245150   1.143   3.497  16.268 -0.3604  0.4749  0.1865
 7912TIP3    H145151   1.098   3.534  16.344 -3.1036  1.5022 -1.7691
 7912TIP3    H245152   1.130   3.403  16.275 -3.8419  0.7718 -0.7416
 7913TIP3   OH245153   6.460   3.010  14.849  0.1366 -0.7756  0.0370
 7913TIP3    H145154   6.436   2.952  14.777 -0.0252 -0.6234 -0.0298
 7913TIP3    H245155   6.556   3.010  14.848  0.1384 -0.1188 -0.7033
 7914TIP3   OH245156   2.469   0.388  13.626  0.5964 -0.1537  0.2040
 7914TIP3    H145157   2.488   0.479  13.647  0.3262 -0.1930  0.6448
 7914TIP3    H245158   2.472   0.343  13.711 -0.7464 -0.2799  0.1997
 7915TIP3   OH245159   2.675   5.733  16.538 -0.2927 -0.1781 -0.0499
 7915TIP3    H145160   2.750   5.778  16.498  0.3731 -0.0421  1.2984
 7915TIP3    H245161   2.697   5.640  16.529  0.8176 -0.1363  1.6535
 7916TIP3   OH245162   3.243   1.510   4.500  0.3152  0.0146 -0.8480
 7916TIP3    H145163   3.208   1.451   4.566  0.1110  1.9769  0.8911
 7916TIP3    H245164   3.206   1.478   4.417 -0.8957 -1.4191  0.1972
 7917TIP3   OH245165   0.990   1.498   1.885 -0.7782 -0.0074  0.4516
 7917TIP3    H145166   0.999   1.591   1.903  0.2912 -0.2968  1.5871
 7917TIP3    H245167   1.080   1.466   1.882 -1.1282 -1.6563  3.8872
 7918TIP3   OH245168   6.007   3.759   1.396  0.2872  0.6882  0.1853
 7918TIP3    H145169   5.998   3.816   1.320 -0.7531  1.1631  0.6423
 7918TIP3    H245170   6.038   3.816   1.466  0.0577  0.5157  0.4310
 7919TIP3   OH245171   3.676   1.455  15.543  0.3726 -0.6781 -0.0759
 7919TIP3    H145172   3.738   1.522  15.571  0.4289 -0.2530 -1.2109
 7919TIP3    H245173   3.596   1.503  15.519  0.0399 -1.1113  0.1375
 7920TIP3   OH245174   5.451   0.006  11.868 -0.0791 -0.3222  0.5463
 7920TIP3    H145175   5.524  -0.057  11.870  0.1358 -0.1835 -1.2865
 7920TIP3    H245176   5.382  -0.036  11.918  0.0175 -2.1158 -0.7324
 7921TIP3   OH245177   0.505   1.197  14.037  0.3077  0.2724 -0.0526
 7921TIP3    H145178   0.565   1.132  14.074 -0.1757 -0.0259  0.2193
 7921TIP3    H245179   0.420   1.176  14.075 -0.0026  0.5968 -0.5491
 7922TIP3   OH245180   3.765   1.138   4.891  0.1163  0.1756  0.2725
 7922TIP3    H145181   3.798   1.049   4.876 -0.3049  0.1529 -0.5859
 7922TIP3    H245182   3.786   1.156   4.982  0.3586 -0.7440  0.4109
 7923TIP3   OH245183   3.108   5.344   4.188  0.1725  0.1313 -0.0863
 7923TIP3    H145184   3.076   5.424   4.230 -1.4809 -1.1172  1.1701
 7923TIP3    H245185   3.053   5.334   4.110  0.0746 -0.0008 -0.0017
 7924TIP3   OH245186   5.051   6.480  13.794 -0.2817  0.3498  0.3102
 7924TIP3    H145187   5.093   6.467  13.879  0.7916 -0.1833 -0.2890
 7924TIP3    H245188   5.111   6.441  13.731 -1.2603  0.3687 -0.6629
 7925TIP3   OH245189   5.463   0.438  15.265 -0.0441  0.2251  0.1091
 7925TIP3    H145190   5.501   0.379  15.200  2.0058  0.4201  1.0599
 7925TIP3    H245191   5.436   0.381  15.337  0.5877  0.2997  0.4085
 7926TIP3   OH245192   3.915   2.148  14.702  0.7051  0.1146 -0.0694
 7926TIP3    H145193   3.980   2.189  14.645 -0.0350  0.6502 -0.5368
 7926TIP3    H245194   3.888   2.069  14.655  1.7189 -0.6414  0.5759
 7927TIP3   OH245195   0.214   4.492   6.748  0.5557  0.7110  0.3064
 7927TIP3    H145196   0.138   4.551   6.750  1.4552  1.9036  0.0129
 7927TIP3    H245197   0.233   4.481   6.654 -1.3169 -2.3684  0.1468
 7928TIP3   OH245198   6.265   4.921  13.397  0.0711  0.5568 -0.4068
 7928TIP3    H145199   6.331   4.985  13.422  0.8195  0.1700 -1.3439
 7928TIP3    H245200   6.302   4.837  13.423 -0.5298  0.4229  0.0396
 7929TIP3   OH245201   6.037   2.303   3.457 -0.8560 -0.0621  0.0663
 7929TIP3    H145202   6.016   2.371   3.521  1.0716  1.5388 -0.8849
 7929TIP3    H245203   6.108   2.253   3.497 -0.4402  0.2079 -0.3193
 7930TIP3   OH245204   4.116   6.674   0.809  0.1234 -0.0634 -0.6412
 7930TIP3    H145205   4.035   6.642   0.769  0.3228 -0.0722 -1.0361
 7930TIP3    H245206   4.184   6.659   0.743  0.7415 -1.5305  0.2508
 7931TIP3   OH245207   4.829   4.585   2.903 -0.3417 -0.1615 -0.0393
 7931TIP3    H145208   4.747   4.559   2.859 -0.0785  0.5360 -0.9797
 7931TIP3    H245209   4.880   4.505   2.908 -2.1338 -1.3149  3.1079
 7932TIP3   OH245210   3.449   0.310  16.937 -0.1789  0.2447  0.8367
 7932TIP3    H145211   3.438   0.345  17.025  0.0322  0.8190  0.6416
 7932TIP3    H245212   3.544   0.303  16.926 -0.0095  2.9019 -0.3482
 7933TIP3   OH245213   0.583   2.315  15.481  0.7888 -0.0338  0.5557
 7933TIP3    H145214   0.570   2.220  15.485  2.0105 -0.2925 -1.0191
 7933TIP3    H245215   0.609   2.339  15.570 -0.0728 -1.0733  1.1106
 7934TIP3   OH245216   6.723   4.087   4.100  0.3570  0.1044 -0.0203
 7934TIP3    H145217   6.766   4.111   4.183 -0.2706  1.7694 -0.1400
 7934TIP3    H245218   6.733   3.992   4.095 -1.4722 -0.3837  3.0322
 7935TIP3   OH245219   5.838   3.501  11.856  0.1197 -0.3700  0.0136
 7935TIP3    H145220   5.834   3.589  11.820 -0.5293 -0.0831  0.7545
 7935TIP3    H245221   5.929   3.475  11.846  0.8088  1.1832  1.6035
 7936TIP3   OH245222   6.657   4.769  11.036  0.4788 -0.1680 -0.0786
 7936TIP3    H145223   6.593   4.750  11.105 -0.3691 -1.0991 -1.0784
 7936TIP3    H245224   6.604   4.775  10.956  1.4324  0.9224 -0.6549
 7937TIP3   OH245225   6.411   3.792   0.114 -0.1222 -0.0189  0.0796
 7937TIP3    H145226   6.414   3.699   0.138 -1.3298 -0.1398 -0.1920
 7937TIP3    H245227   6.428   3.793   0.020 -3.0174 -0.2879 -0.5403
 7938TIP3   OH245228   3.619   4.995  12.770  0.4167  0.5291 -0.8969
 7938TIP3    H145229   3.705   5.023  12.740  1.0232 -0.9711 -0.6580
 7938TIP3    H245230   3.616   5.023  12.862  1.7701 -1.6737 -0.1028
 7939TIP3   OH245231   2.078   1.561  13.805  0.8564 -0.4795 -0.2935
 7939TIP3    H145232   2.102   1.505  13.879  0.1037  0.0538  0.3734
 7939TIP3    H245233   2.161   1.577  13.760  1.5660  0.2718  1.2081
 7940TIP3   OH245234   5.245   1.155   0.158  0.7584  0.1174  0.2953
 7940TIP3    H145235   5.183   1.083   0.172  0.2702  0.5932  0.6083
 7940TIP3    H245236   5.199   1.233   0.189  0.9592  0.6931 -0.8031
 7941TIP3   OH245237   0.669   6.740   1.558  0.0489 -0.5084 -0.1499
 7941TIP3    H145238   0.645   6.718   1.468  0.8101 -0.8510 -0.2813
 7941TIP3    H245239   0.746   6.796   1.550 -1.0155  1.0648  0.2427
 7942TIP3   OH245240   2.799   5.275  14.004  0.6836  0.0421  0.1882
 7942TIP3    H145241   2.771   5.288  14.094 -0.4010  1.3590 -0.3047
 7942TIP3    H245242   2.727   5.311  13.951  1.1699 -0.9437 -1.2068
 7943TIP3   OH245243   0.102   1.216  11.497  0.4092  0.0830  0.1297
 7943TIP3    H145244   0.194   1.231  11.472  0.6178  0.7641  1.2257
 7943TIP3    H245245   0.084   1.284  11.562 -1.3236  0.8471 -1.0857
 7944TIP3   OH245246   5.795   2.018  16.185 -0.1849 -0.2847 -0.6755
 7944TIP3    H145247   5.855   1.975  16.246 -0.4786 -0.7347 -0.7024
 7944TIP3    H245248   5.715   1.966  16.187 -1.6565  1.8437  1.4536
 7945TIP3   OH245249   3.846   5.058   5.743 -0.3682 -0.1524  0.1103
 7945TIP3    H145250   3.808   4.974   5.768 -0.3238 -0.0482  0.5231
 7945TIP3    H245251   3.941   5.046   5.755 -0.3145 -0.2114 -0.3336
 7946TIP3   OH245252   3.501   3.097  16.356 -0.2557  0.1396 -0.4372
 7946TIP3    H145253   3.452   3.171  16.320  0.1503 -0.0412 -1.3911
 7946TIP3    H245254   3.590   3.130  16.368 -0.5554  0.4273  1.1658
 7947TIP3   OH245255   3.798   2.881  11.449 -0.2904 -0.3095 -0.2080
 7947TIP3    H145256   3.855   2.958  11.444 -0.1922 -0.3887 -0.3509
 7947TIP3    H245257   3.732   2.903  11.514  0.6599 -0.7126  0.9289
 7948TIP3   OH245258   3.784   3.235  11.375  0.3872 -0.2523 -0.1637
 7948TIP3    H145259   3.868   3.282  11.378 -0.1532  0.7875 -0.9225
 7948TIP3    H245260   3.771   3.214  11.283  0.9350 -2.5449  0.2209
 7949TIP3   OH245261   2.683   4.898  14.180 -0.0525  0.7541  0.5785
 7949TIP3    H145262   2.643   4.983  14.162  2.7962  2.4745  1.7054
 7949TIP3    H245263   2.725   4.874  14.097 -0.4763  0.6477  0.3907
 7950TIP3   OH245264   6.736   2.181  13.049 -0.4227 -0.3339 -0.1851
 7950TIP3    H145265   6.777   2.127  12.982  0.8589  0.4779 -0.0779
 7950TIP3    H245266   6.750   2.134  13.131  0.6489  0.1062 -0.0985
 7951TIP3   OH245267   6.335   1.350   2.652  0.0189 -0.0472  0.0278
 7951TIP3    H145268   6.385   1.403   2.589 -0.2603 -0.9367 -0.9662
 7951TIP3    H245269   6.324   1.408   2.727  1.6577  0.5346 -0.1287
 7952TIP3   OH245270   3.964   0.596   2.727  0.1768  0.1259  0.6087
 7952TIP3    H145271   3.908   0.610   2.651  2.0844 -1.4937 -1.2358
 7952TIP3    H245272   3.992   0.505   2.719  2.4301  0.6328  1.8250
 7953TIP3   OH245273   5.619   6.491   0.889  0.0385  0.2876 -0.3727
 7953TIP3    H145274   5.544   6.507   0.946  0.0516  3.0599 -1.0403
 7953TIP3    H245275   5.694   6.486   0.949 -0.2128  1.1090  0.0138
 7954TIP3   OH245276   4.562   1.118   5.357  0.4916 -0.2246  0.7956
 7954TIP3    H145277   4.485   1.075   5.397 -0.7830 -0.9077 -2.1460
 7954TIP3    H245278   4.542   1.211   5.362 -1.5526 -0.4205 -1.5167
 7955TIP3   OH245279   4.407   3.138   0.019  0.4386  0.4336  0.1213
 7955TIP3    H145280   4.334   3.088   0.053  0.0588 -0.1599 -1.4917
 7955TIP3    H245281   4.467   3.147   0.094 -1.6529  1.7567  1.7519
 7956TIP3   OH245282   0.695   4.221   1.440  0.3491 -0.1123 -0.0001
 7956TIP3    H145283   0.783   4.190   1.418  0.4115  1.4897 -2.3830
 7956TIP3    H245284   0.646   4.142   1.461  1.8810 -1.2287 -0.4408
 7957TIP3   OH245285   6.631   2.065  14.364 -0.1249 -0.3498  0.2456
 7957TIP3    H145286   6.597   1.976  14.372  0.3403 -0.4091  1.8217
 7957TIP3    H245287   6.633   2.099  14.453  0.5562  0.9225 -0.2224
 7958TIP3   OH245288   1.691   2.777  14.832 -0.3737  0.3541  0.3071
 7958TIP3    H145289   1.687   2.778  14.736 -2.9936 -1.6171  0.2809
 7958TIP3    H245290   1.602   2.801  14.860 -0.0827 -0.5642  2.1993
 7959TIP3   OH245291   1.180   0.976  11.467  0.0725 -0.1799  0.1652
 7959TIP3    H145292   1.102   0.961  11.520  1.2902 -1.9221  1.6128
 7959TIP3    H245293   1.223   1.051  11.507 -0.4772  0.3320 -0.1903
 7960TIP3   OH245294   0.091   4.257   2.094  0.7011  0.6443 -0.2369
 7960TIP3    H145295   0.115   4.336   2.046  1.0148  0.5436 -0.2411
 7960TIP3    H245296   0.123   4.273   2.183  0.4834  0.6543 -0.1576
 7961TIP3   OH245297   2.877   6.005   3.934 -0.0131 -0.3002  0.1014
 7961TIP3    H145298   2.854   6.097   3.917  1.5809  0.1891  0.4126
 7961TIP3    H245299   2.943   5.985   3.867 -0.9991 -1.5231 -0.5405
 7962TIP3   OH245300   3.223   0.030  13.630 -0.2527 -0.2196  0.7507
 7962TIP3    H145301   3.188   0.117  13.652 -0.1214  0.5610 -1.8168
 7962TIP3    H245302   3.178  -0.030  13.690 -1.6399  1.4085  1.4147
 7963TIP3   OH245303   1.945   5.242   0.347  0.1452 -0.2251  0.8619
 7963TIP3    H145304   1.894   5.206   0.420 -1.0015  0.8782  0.6558
 7963TIP3    H245305   1.985   5.321   0.384  2.2487 -1.3664  1.1841
 7964TIP3   OH245306   3.590   2.962   0.627  0.0135 -0.2199  0.4366
 7964TIP3    H145307   3.554   2.885   0.583  0.7556 -1.0713  1.2697
 7964TIP3    H245308   3.551   2.960   0.714  2.4867 -1.5860  1.6334
 7965TIP3   OH245309   1.317   5.102  11.712 -0.9790  0.0976  0.4105
 7965TIP3    H145310   1.270   5.064  11.638  0.4793 -1.6762  0.3381
 7965TIP3    H245311   1.278   5.060  11.789 -0.8135  0.0649  0.4775
 7966TIP3   OH245312   2.745   2.273   1.187 -0.4908 -0.4942  0.4534
 7966TIP3    H145313   2.801   2.349   1.169  0.2740 -0.9187  0.9911
 7966TIP3    H245314   2.694   2.298   1.264 -0.9714 -0.1490  0.0290
 7967TIP3   OH245315   3.166   0.412  16.915  0.0238  0.7562 -0.0413
 7967TIP3    H145316   3.135   0.412  16.824  0.9359  0.3545 -0.3635
 7967TIP3    H245317   3.251   0.368  16.912  1.3378  3.0715  0.5710
 7968TIP3   OH245318   0.071   5.581  11.748 -0.1441  0.0976 -0.1785
 7968TIP3    H145319   0.043   5.669  11.723 -1.2308 -0.0430  0.4540
 7968TIP3    H245320   0.144   5.561  11.689 -0.1517  1.2486 -0.6090
 7969TIP3   OH245321   6.132   6.157  15.958 -0.3846  0.7596  0.0381
 7969TIP3    H145322   6.162   6.163  15.867 -0.0404  0.3626  0.1189
 7969TIP3    H245323   6.146   6.245  15.994  3.7202 -0.0574  0.9800
 7970TIP3   OH245324   0.107   0.179  15.316 -0.2493  0.2405 -0.4669
 7970TIP3    H145325   0.102   0.129  15.235 -1.1931  1.9825 -1.5331
 7970TIP3    H245326   0.035   0.147  15.370 -0.9473  0.5639 -1.2050
 7971TIP3   OH245327   3.982   3.971   1.806  0.1799 -0.0434  0.0857
 7971TIP3    H145328   3.896   3.931   1.796  0.2175  0.1606 -1.3091
 7971TIP3    H245329   3.998   4.013   1.722  1.5584  0.1003  0.3999
 7972TIP3   OH245330   0.484   2.327   2.529 -0.2037  0.1396 -0.3299
 7972TIP3    H145331   0.528   2.388   2.470  1.6543 -0.8971 -0.0579
 7972TIP3    H245332   0.412   2.379   2.566  0.0543  1.5238 -1.6595
 7973TIP3   OH245333   0.998   5.916  13.528 -0.1042  0.0226  0.0213
 7973TIP3    H145334   0.913   5.882  13.500 -0.4249  1.6074 -1.0756
 7973TIP3    H245335   1.005   5.891  13.620 -1.1404 -1.2826 -0.2246
 7974TIP3   OH245336   4.441   2.342  16.391  0.0140 -0.5835  0.0274
 7974TIP3    H145337   4.508   2.287  16.351 -0.4329 -0.4825 -0.8991
 7974TIP3    H245338   4.393   2.379  16.316 -0.8425 -0.3790  0.6604
 7975TIP3   OH245339   6.736   6.116   5.455 -0.2330  0.1533  0.1899
 7975TIP3    H145340   6.819   6.087   5.418 -1.1751 -0.1070 -1.8803
 7975TIP3    H245341   6.699   6.037   5.495  0.2765  0.1585  0.6855
 7976TIP3   OH245342   1.367   0.232  16.064  0.4584  0.5875  0.3363
 7976TIP3    H145343   1.435   0.291  16.094  0.1868  0.1602  1.8669
 7976TIP3    H245344   1.289   0.259  16.111  0.2181 -0.6621  0.6971
 7977TIP3   OH245345   3.397   6.176   1.538  0.3102  0.8589  0.4472
 7977TIP3    H145346   3.466   6.206   1.597 -1.2802  0.8626  2.4105
 7977TIP3    H245347   3.316   6.212   1.575 -0.7630  0.8400 -1.7608
 7978TIP3   OH245348   1.741   1.608   1.194  0.3392  0.1391  0.4538
 7978TIP3    H145349   1.738   1.626   1.288  0.7527 -0.4504  0.5812
 7978TIP3    H245350   1.755   1.514   1.188  0.1640  0.1540 -0.2011
 7979TIP3   OH245351   1.639   4.218  14.823 -0.1004 -0.3317 -0.9988
 7979TIP3    H145352   1.699   4.292  14.829 -0.2636 -0.2283 -0.5828
 7979TIP3    H245353   1.688   4.151  14.776 -0.3348  0.4236 -2.3465
 7980TIP3   OH245354   3.356   6.098   0.940  0.2104  0.1579 -0.3064
 7980TIP3    H145355   3.307   6.037   0.886  1.6031 -1.0119 -0.3231
 7980TIP3    H245356   3.427   6.045   0.978 -0.0218  1.1950  1.7266
 7981TIP3   OH245357   4.881   3.198   4.286 -1.1036  0.1942 -0.4151
 7981TIP3    H145358   4.812   3.180   4.223 -1.4509 -2.0221  0.5064
 7981TIP3    H245359   4.955   3.145   4.257 -0.2937  1.3215 -0.5006
 7982TIP3   OH245360   1.361   0.676   2.828  0.2053 -0.4194 -0.5835
 7982TIP3    H145361   1.284   0.675   2.771 -0.1274 -0.5971 -0.1428
 7982TIP3    H245362   1.325   0.687   2.916  0.7154 -0.0758 -0.4149
 7983TIP3   OH245363   2.228   3.855   5.972  0.2003  0.2921 -0.3862
 7983TIP3    H145364   2.317   3.860   6.006 -0.4584 -1.4764  1.9006
 7983TIP3    H245365   2.216   3.763   5.949 -1.2242  0.3525  0.0030
 7984TIP3   OH245366   4.923   0.337  14.029 -0.3048 -0.1806 -0.5209
 7984TIP3    H145367   4.961   0.425  14.031 -1.2759  0.2907 -1.9374
 7984TIP3    H245368   4.988   0.285  13.982 -0.1099 -0.0429 -0.4096
 7985TIP3   OH245369   3.315   2.587  16.854 -0.1267 -0.4107  0.2183
 7985TIP3    H145370   3.398   2.549  16.884 -0.2197 -0.7109  0.0923
 7985TIP3    H245371   3.291   2.536  16.777  0.3217  0.6293 -0.6333
 7986TIP3   OH245372   5.812   1.734  11.450  0.0615 -0.2343  0.0903
 7986TIP3    H145373   5.722   1.713  11.474 -0.1070  0.5979  0.2273
 7986TIP3    H245374   5.856   1.649  11.444 -1.0557 -0.7493 -1.2940
 7987TIP3   OH245375   3.546   5.449   5.204  0.0702  0.3469  0.3770
 7987TIP3    H145376   3.552   5.541   5.178 -0.0660  0.0019 -0.9560
 7987TIP3    H245377   3.597   5.402   5.137  0.1264 -0.5492  1.0350
 7988TIP3   OH245378   2.103   6.511  12.331  0.3339  0.9678 -0.2357
 7988TIP3    H145379   2.028   6.520  12.273  0.3556 -2.7861 -1.0768
 7988TIP3    H245380   2.097   6.586  12.390 -3.3967  1.4007 -0.9464
 7989TIP3   OH245381   2.533   6.247   5.610 -0.0323  0.1276  0.6907
 7989TIP3    H145382   2.561   6.189   5.540 -1.4508 -0.3094  0.4564
 7989TIP3    H245383   2.577   6.330   5.591  1.3225 -0.5954  0.5381
 7990TIP3   OH245384   1.042   2.660   1.274 -0.1317  0.2410  0.8084
 7990TIP3    H145385   0.954   2.694   1.257 -0.5099 -1.1305 -0.1153
 7990TIP3    H245386   1.028   2.588   1.336  0.2395 -0.4708  0.0788
 7991TIP3   OH245387   6.408   5.944  14.316 -0.2986  0.1159 -0.5714
 7991TIP3    H145388   6.367   5.864  14.350  0.9743  0.0816  1.0017
 7991TIP3    H245389   6.338   6.009  14.317 -0.2787  0.2291  2.6266
 7992TIP3   OH245390   1.006   6.201  13.695  0.0796  0.8128  0.5342
 7992TIP3    H145391   1.036   6.118  13.658 -1.8082  1.0646 -1.7537
 7992TIP3    H245392   1.084   6.238  13.736  1.1399 -1.7342  0.9948
 7993TIP3   OH245393   1.301   4.722  13.958 -0.1856  0.3983 -0.0286
 7993TIP3    H145394   1.340   4.635  13.952 -0.3774  0.2527  0.7278
 7993TIP3    H245395   1.339   4.761  14.037 -0.1998  0.9527 -0.2872
 7994TIP3   OH245396   3.690   0.327  10.921  0.1685 -0.1127 -0.7313
 7994TIP3    H145397   3.640   0.273  10.982 -1.5839  1.9937 -0.1975
 7994TIP3    H245398   3.753   0.373  10.976 -1.2140  1.5588 -0.4450
 7995TIP3   OH245399   5.185   4.344   3.658 -0.1611 -0.6875  0.4569
 7995TIP3    H145400   5.275   4.313   3.648  0.6979  1.7967 -0.2709
 7995TIP3    H245401   5.177   4.414   3.594 -2.2803 -0.1239  1.2784
 7996TIP3   OH245402   3.304   2.196   0.923 -0.0663 -0.0433  0.3750
 7996TIP3    H145403   3.353   2.251   0.984 -0.0541  0.2396  0.1117
 7996TIP3    H245404   3.217   2.235   0.921  0.1173  0.3338 -0.2812
 7997TIP3   OH245405   0.634   0.304  16.493 -0.0813  0.2732  0.2536
 7997TIP3    H145406   0.633   0.293  16.398  0.6620 -0.5525  0.3332
 7997TIP3    H245407   0.638   0.215  16.528  1.5585  0.5918  0.9986
 7998TIP3   OH245408   1.453   2.112   5.263 -0.5536  0.0104 -0.0921
 7998TIP3    H145409   1.543   2.088   5.241 -0.1348  1.3977  0.0401
 7998TIP3    H245410   1.438   2.070   5.347  0.5121  0.9603  0.6124
 7999TIP3   OH245411   4.306   6.127  11.620 -0.3398  0.4149  0.4837
 7999TIP3    H145412   4.344   6.039  11.614 -0.4375  0.4563 -1.5879
 7999TIP3    H245413   4.265   6.141  11.535 -0.1224  2.5632  0.6732
 8000TIP3   OH245414   5.589   5.943   1.195 -0.3565  0.5238 -0.4959
 8000TIP3    H145415   5.599   6.034   1.167  1.6899  0.3229 -0.5884
 8000TIP3    H245416   5.614   5.944   1.287  2.8886 -0.3768 -1.2467
 8001TIP3   OH245417   2.350   3.489   0.419 -0.3547 -0.0051  0.1157
 8001TIP3    H145418   2.261   3.478   0.383 -1.4004  0.7835  2.2881
 8001TIP3    H245419   2.337   3.489   0.514  1.8967  0.8861  0.4715
 8002TIP3   OH245420   0.271   0.259   6.075 -0.4596  0.6745  0.5710
 8002TIP3    H145421   0.257   0.170   6.107 -1.5398  0.9528  0.9456
 8002TIP3    H245422   0.186   0.301   6.087 -0.0388  1.6689  0.1247
 8003TIP3   OH245423   0.132   3.970   5.996 -0.4700  0.4990 -0.3503
 8003TIP3    H145424   0.215   3.995   6.036  0.1537 -0.3107 -1.0852
 8003TIP3    H245425   0.125   4.026   5.918 -0.5842  0.5295 -0.3184
 8004TIP3   OH245426   4.044   2.231   6.072  0.3794 -0.1173  0.0028
 8004TIP3    H145427   4.111   2.190   6.126 -0.1258 -0.1396  0.6175
 8004TIP3    H245428   4.086   2.243   5.987  0.9074 -0.8517  0.1517
 8005TIP3   OH245429   2.448   3.942  17.257 -0.3696 -0.3426  0.4146
 8005TIP3    H145430   2.443   3.993  17.337 -0.9565  1.0522 -0.4753
 8005TIP3    H245431   2.513   3.873  17.276  0.2965  0.6037  1.7036
 8006TIP3   OH245432   0.070   3.607   4.197  0.0169  0.7045 -0.1331
 8006TIP3    H145433   0.161   3.629   4.214 -0.2399  1.2392  0.6193
 8006TIP3    H245434   0.032   3.591   4.283 -0.3936 -0.3864 -0.5025
 8007TIP3   OH245435   4.786   4.207   2.566 -0.2524  0.2774 -0.1767
 8007TIP3    H145436   4.773   4.145   2.493 -1.3238 -1.5918  1.5054
 8007TIP3    H245437   4.881   4.216   2.572 -0.1116 -0.3504 -1.1457
 8008TIP3   OH245438   1.650   1.754  14.217 -0.2982  0.0393  0.0992
 8008TIP3    H145439   1.616   1.839  14.246  2.3469  2.1347 -2.3296
 8008TIP3    H245440   1.590   1.726  14.148 -0.8716  0.1738  0.5336
 8009TIP3   OH245441   2.294   6.638   5.732 -0.4887  0.0172  0.5324
 8009TIP3    H145442   2.271   6.553   5.770 -1.4829  0.8247  1.8245
 8009TIP3    H245443   2.384   6.627   5.701 -0.4013 -1.3336  1.1854
 8010TIP3   OH245444   0.364   3.661  12.431 -0.2972 -0.3133 -0.3392
 8010TIP3    H145445   0.400   3.708  12.356  0.6780  1.6265  1.2479
 8010TIP3    H245446   0.274   3.641  12.406  0.1002 -0.0064 -2.1297
 8011TIP3   OH245447   2.284   4.018  13.855  0.2886 -0.7078  0.2042
 8011TIP3    H145448   2.280   4.036  13.761 -2.5245 -0.9427  0.1937
 8011TIP3    H245449   2.295   3.923  13.861  0.2996 -0.7130  0.0979
 8012TIP3   OH245450   3.770   5.648   3.436  0.0208  0.5576 -0.3004
 8012TIP3    H145451   3.775   5.573   3.495 -1.7987  0.7084  0.1096
 8012TIP3    H245452   3.722   5.615   3.360 -0.9734  1.3114 -0.0304
 8013TIP3   OH245453   2.588   5.030  15.186 -0.6996 -0.1408 -0.6184
 8013TIP3    H145454   2.508   5.022  15.239 -1.1253 -0.8294 -1.3549
 8013TIP3    H245455   2.558   5.024  15.096  0.1238  0.2051 -0.9222
 8014TIP3   OH245456   3.303   5.627  13.722 -0.6084  0.8815  0.2805
 8014TIP3    H145457   3.216   5.589  13.729 -0.1743  0.1878  2.9063
 8014TIP3    H245458   3.355   5.559  13.679 -0.5191 -0.3807  2.2659
 8015TIP3   OH245459   5.623   4.831   5.907  0.4344 -0.1535 -0.4035
 8015TIP3    H145460   5.670   4.793   5.981 -1.1802 -0.8601  0.2936
 8015TIP3    H245461   5.606   4.756   5.849 -2.1000 -0.4571  0.6164
 8016TIP3   OH245462   3.832   4.432   4.451 -0.4012  0.3732  0.0188
 8016TIP3    H145463   3.916   4.397   4.420 -0.9121 -0.2461 -0.6999
 8016TIP3    H245464   3.766   4.378   4.407 -1.2141  2.1136 -1.0081
 8017TIP3   OH245465   4.489   1.351  14.639 -0.0416  0.4950  0.0666
 8017TIP3    H145466   4.560   1.410  14.614 -0.4452  1.3484  0.8562
 8017TIP3    H245467   4.534   1.272  14.671  0.5458  0.8732  0.2048
 8018TIP3   OH245468   3.947   1.751   3.717 -0.2175  0.7392 -0.1115
 8018TIP3    H145469   3.975   1.795   3.797  0.4527 -1.2531  0.8162
 8018TIP3    H245470   4.019   1.691   3.697 -0.9216  0.3313 -1.5276
 8019TIP3   OH245471   0.235   6.669  16.864  0.3388 -0.7553  0.4667
 8019TIP3    H145472   0.174   6.684  16.936 -1.5004 -0.6431 -1.0240
 8019TIP3    H245473   0.227   6.575  16.846  0.4609 -0.7040  0.1385
 8020TIP3   OH245474   3.343   4.737   2.635 -0.0216  0.1606  0.0160
 8020TIP3    H145475   3.397   4.747   2.714  0.8634  1.4435 -0.7229
 8020TIP3    H245476   3.280   4.669   2.658  0.2661  0.4485  1.8151
 8021TIP3   OH245477   4.823   0.107  14.485  0.2682  0.3990 -0.3255
 8021TIP3    H145478   4.793   0.154  14.563 -0.0683 -0.6529  0.2034
 8021TIP3    H245479   4.919   0.105  14.494  0.2283  0.2042  0.1254
 8022TIP3   OH245480   5.589   2.766  16.799  0.7841  0.2870 -0.1398
 8022TIP3    H145481   5.538   2.832  16.847 -0.0218 -0.2252 -0.2709
 8022TIP3    H245482   5.675   2.766  16.841  1.3406  2.5558 -1.1395
 8023TIP3   OH245483   2.026   5.748  16.033 -0.0160  0.5559  0.6433
 8023TIP3    H145484   2.103   5.734  16.088  0.2923  2.5282  0.7997
 8023TIP3    H245485   1.951   5.740  16.093 -0.2871 -4.2059 -0.0062
 8024TIP3   OH245486   0.171   5.483  13.466  0.3052 -0.8249  0.1677
 8024TIP3    H145487   0.150   5.574  13.448 -0.5541 -0.4261  2.7089
 8024TIP3    H245488   0.252   5.466  13.417  0.4248  1.2521 -0.4228
 8025TIP3   OH245489   4.896   0.741   0.216 -0.6253 -0.3826  0.2397
 8025TIP3    H145490   4.980   0.710   0.249 -1.1807 -1.1803  0.9618
 8025TIP3    H245491   4.904   0.735   0.121 -0.8887 -3.4368  0.3050
 8026TIP3   OH245492   4.231   5.977   2.498 -0.3201  0.0966 -0.3855
 8026TIP3    H145493   4.220   6.008   2.588 -0.4706 -2.4835  0.5756
 8026TIP3    H245494   4.239   5.882   2.507  0.3736 -0.1597 -3.0607
 8027TIP3   OH245495   4.519   5.807   0.191 -0.1578 -0.0848  0.4368
 8027TIP3    H145496   4.478   5.864   0.256  0.6904 -0.1749  1.0665
 8027TIP3    H245497   4.471   5.824   0.110  0.4762  1.9766  0.4543
 8028TIP3   OH245498   1.282   2.335  15.000  0.1177  0.2003 -0.2503
 8028TIP3    H145499   1.334   2.406  14.963 -2.0618  0.9850 -2.0200
 8028TIP3    H245500   1.291   2.346  15.095 -0.1856  2.9215 -0.4620
 8029TIP3   OH245501   5.410   6.303   1.440  0.2671 -0.5647 -0.5194
 8029TIP3    H145502   5.413   6.399   1.443  0.3392 -0.5827 -0.0582
 8029TIP3    H245503   5.420   6.283   1.347 -3.0501 -0.0200 -1.1114
 8030TIP3   OH245504   5.126   4.366   4.960  0.2577  0.1041 -0.2409
 8030TIP3    H145505   5.061   4.427   4.994 -1.6904 -1.9869  0.0675
 8030TIP3    H245506   5.164   4.326   5.038 -0.8901 -1.3975 -0.4081
 8031TIP3   OH245507   0.236   1.321   4.258 -0.5057 -0.4620 -0.1542
 8031TIP3    H145508   0.282   1.255   4.206  1.2412 -0.8244  1.7460
 8031TIP3    H245509   0.230   1.283   4.346 -4.0839 -0.2253 -0.1332
 8032TIP3   OH245510   6.306   5.541   1.620  0.3866 -0.5541 -0.4349
 8032TIP3    H145511   6.373   5.562   1.685  1.1934 -1.8389 -0.8045
 8032TIP3    H245512   6.356   5.514   1.543 -0.5091  2.1947 -2.1064
 8033TIP3   OH245513   2.776   4.557   0.805 -0.4541  0.3417  0.1531
 8033TIP3    H145514   2.823   4.528   0.884 -1.2136  0.8250  0.7936
 8033TIP3    H245515   2.768   4.478   0.752  2.4416  0.5250 -0.7073
 8034TIP3   OH245516   0.910   2.921  15.055  0.5875 -0.5970 -0.5451
 8034TIP3    H145517   0.897   2.869  14.976 -0.7231  0.2131 -0.8964
 8034TIP3    H245518   0.929   3.009  15.023 -0.7642 -0.0784  0.0064
 8035TIP3   OH245519   0.478   0.421   3.715  0.3859  0.2314  0.0129
 8035TIP3    H145520   0.557   0.475   3.707  0.0650  0.7412  0.2455
 8035TIP3    H245521   0.502   0.338   3.674  1.2879  0.1173  0.7412
 8036TIP3   OH245522   6.214   5.125  14.837  0.6290  0.0550  0.5413
 8036TIP3    H145523   6.253   5.044  14.803 -0.2937 -0.6585  1.1151
 8036TIP3    H245524   6.254   5.194  14.785 -1.0055 -1.0096 -2.3697
 8037TIP3   OH245525   1.071   2.308   5.382 -0.1948  0.7979 -0.0566
 8037TIP3    H145526   1.041   2.218   5.374  1.2481  0.3830 -1.0657
 8037TIP3    H245527   0.991   2.361   5.373 -0.9473 -0.3332 -0.2103
 8038TIP3   OH245528   0.765   2.597   2.622 -0.4248  0.4639  0.0642
 8038TIP3    H145529   0.774   2.504   2.598  0.2963  0.2813  0.9940
 8038TIP3    H245530   0.827   2.609   2.694  1.0437  2.1706 -1.4068
 8039TIP3   OH245531   5.877   0.846   4.990  0.1932 -0.2478 -0.4831
 8039TIP3    H145532   5.916   0.931   4.969  1.5261 -0.3619  1.2778
 8039TIP3    H245533   5.783   0.864   5.000  0.4660  1.0394 -0.0592
 8040TIP3   OH245534   6.586   5.047   0.736 -0.1184 -0.6100  0.2159
 8040TIP3    H145535   6.572   4.958   0.769  0.1185 -0.5569  0.4652
 8040TIP3    H245536   6.507   5.095   0.761  0.4646 -0.3089  1.6249
 8041TIP3   OH245537   1.025   0.191   5.263  0.2895  0.2992 -0.1637
 8041TIP3    H145538   1.015   0.157   5.174 -1.5556 -1.0455  0.4820
 8041TIP3    H245539   0.947   0.244   5.277  0.8446  0.9715  0.4921
 8042TIP3   OH245540   0.867   0.440  16.517  0.2636  0.3909 -0.0940
 8042TIP3    H145541   0.784   0.395  16.509  0.1059  0.7720 -0.7591
 8042TIP3    H245542   0.933   0.373  16.500  0.0085  0.5520 -1.9800
 8043TIP3   OH245543   1.649   0.275   4.864 -0.0336 -0.5922 -0.0190
 8043TIP3    H145544   1.713   0.204   4.862  0.9205  0.1613  1.3642
 8043TIP3    H245545   1.624   0.283   4.956 -2.3791 -1.0285 -0.5507
 8044TIP3   OH245546   5.895   4.360   0.478 -0.5180  0.0693 -0.7107
 8044TIP3    H145547   5.985   4.331   0.462 -0.3063 -0.1010  0.6251
 8044TIP3    H245548   5.841   4.288   0.447 -0.0183 -1.6289  1.9749
 8045TIP3   OH245549   4.696   1.767  16.433  0.4829 -0.0402  0.2518
 8045TIP3    H145550   4.615   1.743  16.388  0.6607  0.9338 -0.6053
 8045TIP3    H245551   4.671   1.775  16.525 -0.4705  0.5629 -0.0520
 8046TIP3   OH245552   4.486   4.819  14.905 -0.0636  0.3016  0.1319
 8046TIP3    H145553   4.394   4.811  14.879  0.2742 -1.4060 -0.6822
 8046TIP3    H245554   4.501   4.913  14.911 -1.2599  0.6846 -1.9611
 8047TIP3   OH245555   6.641   0.112   0.763  0.3966 -0.0363 -0.2320
 8047TIP3    H145556   6.636   0.126   0.668  0.5481 -0.2093 -0.2667
 8047TIP3    H245557   6.719   0.058   0.775 -0.9441 -2.1409 -0.2630
 8048TIP3   OH245558   5.144   1.696  15.467  0.3590 -0.3911 -0.8274
 8048TIP3    H145559   5.082   1.769  15.477  0.2241 -0.4203 -1.4005
 8048TIP3    H245560   5.190   1.715  15.385 -0.0336 -1.2113 -1.2505
 8049TIP3   OH245561   0.062   4.482   3.030 -0.7699  0.3671  0.2866
 8049TIP3    H145562   0.052   4.560   2.975  0.0344  1.0456  1.0559
 8049TIP3    H245563   0.126   4.428   2.984  0.6314  1.3702  0.9644
 8050TIP3   OH245564   2.799   3.611   4.912  0.5193 -0.0623 -0.1583
 8050TIP3    H145565   2.809   3.641   5.003 -0.6526 -0.4526  0.1261
 8050TIP3    H245566   2.840   3.525   4.910 -1.8582 -1.3415  0.7982
 8051TIP3   OH245567   3.339   2.808   2.677  0.0906  0.5630 -0.4816
 8051TIP3    H145568   3.428   2.823   2.709  0.1336  1.4514 -0.9915
 8051TIP3    H245569   3.287   2.795   2.756  0.3209  2.0101 -0.0683
 8052TIP3   OH245570   2.585   1.628  14.896  0.2687  0.3128  0.2770
 8052TIP3    H145571   2.654   1.683  14.859  1.2261 -1.8562 -1.4188
 8052TIP3    H245572   2.512   1.635  14.834 -0.7362  1.8467  1.5651
 8053TIP3   OH245573   2.415   4.654   0.621 -0.0211  0.0654  0.2339
 8053TIP3    H145574   2.438   4.563   0.603 -0.1670  0.2160 -0.7914
 8053TIP3    H245575   2.351   4.677   0.553  1.5298  1.5385 -0.8015
 8054TIP3   OH245576   0.130   2.176  12.617  0.6341 -0.5758  0.1740
 8054TIP3    H145577   0.067   2.248  12.625  0.9699 -0.0322 -1.5746
 8054TIP3    H245578   0.204   2.203  12.670 -0.0577 -0.5943  1.1671
 8055TIP3   OH245579   5.171   2.388  11.560  0.8629 -0.1081  0.1130
 8055TIP3    H145580   5.188   2.313  11.503  0.0710 -0.6638  0.5811
 8055TIP3    H245581   5.232   2.377  11.632  0.2965 -0.6962  0.5208
 8056TIP3   OH245582   1.966   0.699   6.008  0.4446  0.1360 -0.1155
 8056TIP3    H145583   1.941   0.660   6.092 -1.5674  4.9125  1.9153
 8056TIP3    H245584   1.893   0.678   5.949  0.2877 -0.6033  0.3348
 8057TIP3   OH245585   5.396   1.748   1.814  0.1438  0.1298 -0.7216
 8057TIP3    H145586   5.324   1.782   1.761  0.5881 -0.2325 -1.5658
 8057TIP3    H245587   5.450   1.698   1.753  2.7799  2.7840 -0.8221
 8058TIP3   OH245588   0.164   5.154   0.115 -0.1536 -0.6019 -0.0023
 8058TIP3    H145589   0.218   5.231   0.133 -1.0161  0.0844 -0.3035
 8058TIP3    H245590   0.132   5.167   0.025 -1.6793 -0.4555  0.5298
 8059TIP3   OH245591   5.856   1.051   5.543 -0.2987  0.0904  0.2424
 8059TIP3    H145592   5.814   0.972   5.578  1.5936 -0.0828  2.2899
 8059TIP3    H245593   5.849   1.041   5.448 -0.8996 -2.1057  0.4637
 8060TIP3   OH245594   2.908   6.088  11.219  0.0385  0.5885  0.0440
 8060TIP3    H145595   2.975   6.154  11.201 -1.4535  2.0305 -0.4933
 8060TIP3    H245596   2.827   6.138  11.225 -1.0124 -1.1105  0.6181
 8061TIP3   OH245597   1.058   4.417   1.476  0.1861 -0.3447  0.3023
 8061TIP3    H145598   1.115   4.493   1.485  0.0671 -0.1324 -0.6904
 8061TIP3    H245599   1.116   4.342   1.490  0.6613 -0.1227 -0.4710
 8062TIP3   OH245600   0.504   0.998   3.162 -0.5095 -0.0600 -0.6179
 8062TIP3    H145601   0.590   0.971   3.132 -1.2135 -1.4688 -1.4865
 8062TIP3    H245602   0.517   1.085   3.199  1.3790 -0.4812 -0.1978
 8063TIP3   OH245603   2.705   0.003  15.096  0.0471  0.0403 -0.0434
 8063TIP3    H145604   2.658  -0.079  15.110 -0.4687  0.2859 -0.2863
 8063TIP3    H245605   2.796  -0.023  15.085 -0.1098 -0.5006 -0.0967
 8064TIP3   OH245606   1.104   5.427  12.392 -0.4885 -0.0989 -0.2050
 8064TIP3    H145607   1.172   5.445  12.326  0.9320 -0.6169  1.0567
 8064TIP3    H245608   1.111   5.332  12.408 -1.5087 -0.1527 -0.0407
 8065TIP3   OH245609   0.543   1.793  14.569  0.2048 -0.5553  0.3887
 8065TIP3    H145610   0.476   1.725  14.578  0.6746 -0.8672  1.9134
 8065TIP3    H245611   0.579   1.802  14.657  0.4116  1.4271  0.1360
 8066TIP3   OH245612   6.414   3.117   3.791 -0.3254  0.4265  0.3268
 8066TIP3    H145613   6.342   3.109   3.854 -0.0555 -2.4748  0.3909
 8066TIP3    H245614   6.493   3.122   3.845 -0.2217 -0.3926  0.2698
 8067TIP3   OH245615   0.705   2.116   3.249 -0.2705 -0.0953  0.3694
 8067TIP3    H145616   0.678   2.030   3.282  0.9686 -0.6583 -0.0442
 8067TIP3    H245617   0.797   2.124   3.274 -0.1026  0.6885 -0.4575
 8068TIP3   OH245618   0.675   6.473  12.256 -0.0576  0.0960  0.2925
 8068TIP3    H145619   0.676   6.461  12.351  1.1698 -3.1739 -0.0271
 8068TIP3    H245620   0.585   6.501  12.237 -0.9683 -1.2857  2.2209
 8069TIP3   OH245621   0.723   0.148   1.123 -0.3465  0.7792 -0.0332
 8069TIP3    H145622   0.811   0.165   1.158  0.1843  1.8973 -1.7611
 8069TIP3    H245623   0.708   0.220   1.061 -1.6348 -0.5126 -1.2946
 8070TIP3   OH245624   4.732   2.949   5.785 -0.4726 -0.0857  0.0134
 8070TIP3    H145625   4.783   2.952   5.866  0.2834  1.8271 -0.4758
 8070TIP3    H245626   4.790   2.988   5.719 -1.1985 -1.2872 -1.3911
 8071TIP3   OH245627   5.770   5.461   2.098 -0.5772 -0.0777 -0.3180
 8071TIP3    H145628   5.720   5.453   2.180  0.5062 -0.2328  0.3470
 8071TIP3    H245629   5.811   5.547   2.103  0.0846 -0.3840 -0.3486
 8072TIP3   OH245630   1.727   3.855   4.111 -0.1816  0.3656  0.9632
 8072TIP3    H145631   1.681   3.857   4.027 -1.4996 -0.4417  1.6365
 8072TIP3    H245632   1.767   3.942   4.118  1.0497  0.0363 -1.0553
 8073TIP3   OH245633   3.001   0.808   4.641  0.4582 -0.0562  0.6059
 8073TIP3    H145634   3.014   0.896   4.604 -1.3834 -0.3428 -0.8692
 8073TIP3    H245635   2.950   0.823   4.720  0.1980  0.2295  0.3896
 8074TIP3   OH245636   2.399   3.965   5.431  0.1015  0.5497 -0.1787
 8074TIP3    H145637   2.383   3.944   5.523  1.7321 -0.1456 -0.0086
 8074TIP3    H245638   2.315   3.950   5.388 -0.4109 -0.1758  1.0213
 8075TIP3   OH245639   0.950   1.454   2.943 -0.0198  0.2685  0.2444
 8075TIP3    H145640   0.973   1.417   2.858 -0.5565 -1.2729  0.7427
 8075TIP3    H245641   0.898   1.531   2.922  0.4780  0.3390 -0.8242
 8076TIP3   OH245642   2.387   1.522   5.033 -0.2551  0.4635  0.2299
 8076TIP3    H145643   2.434   1.479   4.962 -1.7906 -2.5723  0.9190
 8076TIP3    H245644   2.446   1.593   5.060  2.0292 -0.5934 -1.5768
 8077TIP3   OH245645   3.323   4.341  15.514  0.1269 -0.2640 -0.1745
 8077TIP3    H145646   3.228   4.333  15.510  0.2031 -0.8571 -1.1055
 8077TIP3    H245647   3.356   4.252  15.499  0.8269 -0.1597  0.6231
 8078TIP3   OH245648   3.420   5.386  15.862  0.1804  0.2258  0.1205
 8078TIP3    H145649   3.412   5.325  15.788 -0.2419  0.7125 -0.2444
 8078TIP3    H245650   3.332   5.387  15.900  0.0152  1.0733 -0.2587
 8079TIP3   OH245651   6.466   3.126  15.480  0.4359  0.4595 -0.3474
 8079TIP3    H145652   6.414   3.063  15.431 -1.2989  0.6772  1.1394
 8079TIP3    H245653   6.403   3.190  15.512  1.7541  1.2930  0.6980
 8080TIP3   OH245654   5.302   4.682  13.772  0.2200 -0.3725 -0.0964
 8080TIP3    H145655   5.329   4.766  13.735  0.3882 -0.6933 -0.7059
 8080TIP3    H245656   5.352   4.617  13.723 -0.5944 -0.8879 -0.2574
 8081TIP3   OH245657   5.445   0.823   0.968 -0.3261 -0.6003  0.1139
 8081TIP3    H145658   5.533   0.858   0.983 -0.0963 -0.4717 -1.4292
 8081TIP3    H245659   5.456   0.761   0.897 -1.6633  0.2110 -0.8413
 8082TIP3   OH245660   1.161   4.674   5.578 -0.5250 -0.1339  0.2554
 8082TIP3    H145661   1.091   4.631   5.628  0.8937 -1.4533  1.2101
 8082TIP3    H245662   1.123   4.689   5.492 -1.6698 -1.8003  0.4235
 8083TIP3   OH245663   4.129   3.823   4.011  0.2328 -0.1759 -0.4357
 8083TIP3    H145664   4.098   3.875   4.084  0.0276  0.3328 -0.8791
 8083TIP3    H245665   4.211   3.865   3.984 -1.0822  1.3455 -2.2619
 8084TIP3   OH245666   3.094   5.655   2.727 -0.5434 -0.0234 -0.4597
 8084TIP3    H145667   3.046   5.616   2.654 -1.2477  2.9247 -1.7108
 8084TIP3    H245668   3.027   5.692   2.784  0.1151  2.0280 -0.9496
 8085TIP3   OH245669   1.322   2.114  11.688 -0.0218  0.3398 -0.4138
 8085TIP3    H145670   1.418   2.116  11.690 -0.0099 -0.6005  0.3081
 8085TIP3    H245671   1.297   2.205  11.702  0.7642  0.5636 -0.3878
 8086TIP3   OH245672   0.783   2.940  11.642  0.0564 -0.1245  0.3575
 8086TIP3    H145673   0.705   2.930  11.588  1.3427  0.1769 -1.6812
 8086TIP3    H245674   0.783   2.863  11.699 -0.7135 -1.1627 -0.9836
 8087TIP3   OH245675   5.146   5.019  13.428  0.1026  0.3253  0.0554
 8087TIP3    H145676   5.058   4.988  13.407 -0.1042  1.0701 -0.2238
 8087TIP3    H245677   5.205   4.956  13.387 -0.2994 -0.3520  0.5128
 8088TIP3   OH245678   5.127   5.869  13.490  0.4326  0.5848 -0.2117
 8088TIP3    H145679   5.067   5.818  13.545  0.7427  0.2143 -0.2129
 8088TIP3    H245680   5.186   5.913  13.551  0.8268  0.1116 -0.2440
 8089TIP3   OH245681   4.150   3.386   3.474  0.5509 -0.0827 -0.3181
 8089TIP3    H145682   4.099   3.392   3.555  0.6083 -0.4976 -0.2479
 8089TIP3    H245683   4.087   3.358   3.408  0.7976 -1.1946 -0.1060
 8090TIP3   OH245684   5.612   3.724  15.840  0.4717 -0.3188 -0.4459
 8090TIP3    H145685   5.611   3.629  15.853  0.0274 -0.2488  0.0613
 8090TIP3    H245686   5.670   3.757  15.909  2.1458 -0.3682 -1.7631
 8091TIP3   OH245687   6.019   4.144   5.932 -0.4750 -0.1564 -0.0628
 8091TIP3    H145688   5.949   4.096   5.976 -1.1543  0.0875 -0.8491
 8091TIP3    H245689   6.098   4.093   5.950 -0.7534 -0.1598  1.2706
 8092TIP3   OH245690   3.199   4.263   4.837 -0.7076  0.5659  0.1158
 8092TIP3    H145691   3.199   4.216   4.921  1.9164  0.5736  0.2224
 8092TIP3    H245692   3.107   4.285   4.821 -2.2093 -4.6301 -0.0400
 8093TIP3   OH245693   5.218   0.587  15.616 -0.2887  0.2873 -0.5898
 8093TIP3    H145694   5.171   0.630  15.544 -0.7177 -0.5995 -0.8473
 8093TIP3    H245695   5.172   0.504  15.629 -1.9496  1.5304  2.4947
 8094TIP3   OH245696   0.059   4.169  14.583 -0.1705  0.1492  0.3121
 8094TIP3    H145697   0.042   4.250  14.535 -1.2357  0.0727  0.5311
 8094TIP3    H245698   0.094   4.198  14.667  2.0641  0.2747 -0.5935
 8095TIP3   OH245699   4.270   4.311  14.480  0.0601 -0.3858  0.5872
 8095TIP3    H145700   4.314   4.346  14.403  0.6695 -1.1360  0.5803
 8095TIP3    H245701   4.187   4.276  14.446 -0.1042  0.1464  0.4362
 8096TIP3   OH245702   5.504   1.125   0.356  0.3080  0.2372  0.1498
 8096TIP3    H145703   5.571   1.141   0.422 -0.1129 -1.3480  0.9985
 8096TIP3    H245704   5.422   1.121   0.405 -0.2561  0.8623 -0.7145
 8097TIP3   OH245705   2.752   5.339   1.121 -0.2915 -0.2826  0.5258
 8097TIP3    H145706   2.699   5.333   1.042  1.1575  0.0430 -0.5305
 8097TIP3    H245707   2.741   5.254   1.165  1.6137 -1.9328 -1.9090
 8098TIP3   OH245708   3.292   1.181   5.585  0.2302 -0.6963 -0.0511
 8098TIP3    H145709   3.351   1.256   5.577  0.8932 -1.3226 -1.4220
 8098TIP3    H245710   3.246   1.195   5.667  1.2432  0.5669  0.3316
 8099TIP3   OH245711   4.073   2.171   0.448  0.3324 -0.2579  0.3591
 8099TIP3    H145712   4.046   2.262   0.452 -0.2291 -0.4482  3.3685
 8099TIP3    H245713   4.127   2.165   0.369 -0.9024  2.2571 -0.7840
 8100TIP3   OH245714   2.123   0.894   4.131  0.3642 -0.4872 -0.1598
 8100TIP3    H145715   2.201   0.840   4.142  0.4903 -0.0053  1.5571
 8100TIP3    H245716   2.153   0.969   4.079  1.1075 -0.2218  0.6281
 8101TIP3   OH245717   5.305   6.139   2.162 -0.9578  0.2404 -0.2215
 8101TIP3    H145718   5.389   6.138   2.114 -1.7879 -0.9906 -1.7318
 8101TIP3    H245719   5.280   6.231   2.163  0.5600  0.6824  0.5524
 8102TIP3   OH245720   5.452   0.094  12.822 -0.0143  0.2713  0.3211
 8102TIP3    H145721   5.435  -0.000  12.826  0.8081  0.0441 -0.9992
 8102TIP3    H245722   5.404   0.130  12.896 -0.8261 -1.1174  0.5041
 8103TIP3   OH245723   0.353   5.427   4.738  0.5879 -0.0176  0.5610
 8103TIP3    H145724   0.321   5.495   4.679  0.1294  0.5653  1.4518
 8103TIP3    H245725   0.346   5.465   4.826 -1.4528 -1.8420  1.2853
 8104TIP3   OH245726   1.245   0.248  12.157  0.2275 -0.0714  0.6288
 8104TIP3    H145727   1.327   0.249  12.206 -0.0502 -0.4797  1.1111
 8104TIP3    H245728   1.203   0.332  12.179 -0.1818 -0.5117  1.6022
 8105TIP3   OH245729   3.047   5.609   5.530  0.0938  0.1188 -0.0255
 8105TIP3    H145730   3.089   5.523   5.531 -1.5851 -0.7548  1.4592
 8105TIP3    H245731   2.953   5.589   5.525 -0.2968  1.9489 -3.1045
 8106TIP3   OH245732   4.157   3.545   2.361 -0.0121  0.5150  0.0894
 8106TIP3    H145733   4.170   3.526   2.267 -1.2699 -1.3814  0.2333
 8106TIP3    H245734   4.133   3.637   2.364  0.9414  0.8477 -1.3585
 8107TIP3   OH245735   2.691   5.325   0.546  0.0742  0.0551  0.0439
 8107TIP3    H145736   2.718   5.266   0.617  0.5624  2.0744  1.6364
 8107TIP3    H245737   2.774   5.359   0.511 -0.1494 -1.1392 -1.7639
 8108TIP3   OH245738   4.687   5.796  12.481  0.1326 -0.2929 -0.3030
 8108TIP3    H145739   4.780   5.792  12.506  0.5916 -1.0126 -2.0093
 8108TIP3    H245740   4.687   5.786  12.386 -1.6912  0.0656 -0.3796
 8109TIP3   OH245741   6.049   2.566  13.769  0.0491  0.2807  0.0132
 8109TIP3    H145742   5.956   2.541  13.772 -0.1560  1.0887  2.3427
 8109TIP3    H245743   6.096   2.490  13.803  0.3500 -0.3617 -1.7406
 8110TIP3   OH245744   1.629   6.560   3.303 -0.1666 -0.0015 -0.3894
 8110TIP3    H145745   1.664   6.473   3.324  1.8851  0.5680 -1.2236
 8110TIP3    H245746   1.535   6.550   3.311  0.0797 -1.9871  0.7313
 8111TIP3   OH245747   3.019   0.523   1.706 -0.3450  0.4979 -0.5692
 8111TIP3    H145748   3.052   0.433   1.711 -0.2864  0.4582 -1.5276
 8111TIP3    H245749   2.995   0.535   1.614 -2.1403  0.8289 -0.0885
 8112TIP3   OH245750   2.071   0.058  14.231  0.0233  0.1804 -0.2654
 8112TIP3    H145751   2.001   0.020  14.178 -0.8195  2.2857 -0.7850
 8112TIP3    H245752   2.031   0.068  14.318 -0.3730  1.4488 -0.5807
 8113TIP3   OH245753   0.329   3.879   5.252  0.6522 -0.1124  0.3657
 8113TIP3    H145754   0.414   3.849   5.219 -0.7964 -1.9544 -2.0791
 8113TIP3    H245755   0.309   3.820   5.325  1.0090 -0.3765  0.2536
 8114TIP3   OH245756   0.762   5.601  15.332  0.6050  0.4604  0.0399
 8114TIP3    H145757   0.667   5.605  15.345  0.5276 -0.1604 -0.2969
 8114TIP3    H245758   0.799   5.631  15.415  0.1067 -0.2283  0.5254
 8115TIP3   OH245759   4.269   0.824   2.308  0.1855 -0.5433  0.5503
 8115TIP3    H145760   4.213   0.828   2.385 -3.2601  2.8537 -1.7717
 8115TIP3    H245761   4.211   0.800   2.236  2.2564  0.5882 -1.6789
 8116TIP3   OH245762   2.275   5.994   5.571 -0.0832  0.2746  0.0435
 8116TIP3    H145763   2.296   5.950   5.653 -0.0378 -0.9605 -0.6031
 8116TIP3    H245764   2.352   5.980   5.516 -1.1456 -1.3138 -1.1466
 8117TIP3   OH245765   6.561   3.598  11.270  0.0404  0.1240  0.6234
 8117TIP3    H145766   6.498   3.536  11.232  0.6201 -0.6306  0.8708
 8117TIP3    H245767   6.640   3.546  11.283  1.6240  1.6378 -2.0787
 8118TIP3   OH245768   0.310   4.394   3.445 -0.6083  0.2974  0.3265
 8118TIP3    H145769   0.226   4.389   3.491 -0.1216  0.4689  1.2689
 8118TIP3    H245770   0.291   4.363   3.357 -1.6947  0.4891  0.4776
 8119TIP3   OH245771   2.667   5.546  12.097  0.3652  0.2519  0.1898
 8119TIP3    H145772   2.748   5.549  12.148  0.1508 -1.2043  0.6364
 8119TIP3    H245773   2.685   5.481  12.028 -0.7769 -0.8966  0.9416
 8120TIP3   OH245774   0.145   2.639   4.959 -0.2352  0.2403 -0.1406
 8120TIP3    H145775   0.151   2.644   5.055  0.8358  0.8170 -0.2278
 8120TIP3    H245776   0.113   2.550   4.942  0.3074 -0.1362  0.7236
 8121TIP3   OH245777   2.665   2.723   0.987  0.5930  0.2526  0.4555
 8121TIP3    H145778   2.682   2.753   1.076 -0.7512  1.8199  0.2405
 8121TIP3    H245779   2.569   2.722   0.980  0.6746  0.0929 -0.9403
 8122TIP3   OH245780   4.813   0.194  11.226  0.0839 -0.1715  0.9810
 8122TIP3    H145781   4.727   0.235  11.214  0.4268  0.6900  1.3957
 8122TIP3    H245782   4.801   0.103  11.196 -0.3670  0.5473 -1.1953
 8123TIP3   OH245783   2.167   3.303   6.712  0.4508 -0.4350  0.3822
 8123TIP3    H145784   2.104   3.254   6.659 -1.0293  0.3001  1.4069
 8123TIP3    H245785   2.229   3.338   6.649  0.7493 -2.4388 -0.5094
 8124TIP3   OH245786   4.281   1.106  16.909  0.5383 -0.0931  0.5335
 8124TIP3    H145787   4.203   1.078  16.957  1.3545  1.4782  2.9881
 8124TIP3    H245788   4.251   1.175  16.850 -0.0781 -0.0979  0.8423
 8125TIP3   OH245789   3.575   2.627   1.188 -0.0600 -0.3820  0.1503
 8125TIP3    H145790   3.585   2.581   1.272  1.3283 -2.1781 -0.9392
 8125TIP3    H245791   3.536   2.562   1.130  0.2423  0.4194 -0.9668
 8126TIP3   OH245792   1.825   6.724  14.073  0.1881 -1.0495  0.1289
 8126TIP3    H145793   1.736   6.707  14.103  1.1661 -1.6488  2.9129
 8126TIP3    H245794   1.830   6.680  13.988 -2.7601  0.8687 -1.1991
 8127TIP3   OH245795   3.874   2.609  13.380 -0.5490 -0.1859  0.0450
 8127TIP3    H145796   3.810   2.664  13.335 -0.3606  1.0288  1.1889
 8127TIP3    H245797   3.866   2.634  13.472  2.4477  0.9475  0.1003
 8128TIP3   OH245798   1.474   2.418   3.654 -0.1133 -0.6082  0.5219
 8128TIP3    H145799   1.507   2.456   3.735 -0.8926  0.5203  0.3295
 8128TIP3    H245800   1.469   2.492   3.593  0.9979 -1.5277 -0.7443
 8129TIP3   OH245801   5.669   1.144  14.390 -0.2156  0.5951 -0.3360
 8129TIP3    H145802   5.713   1.068  14.429  1.1526  0.0373 -2.7561
 8129TIP3    H245803   5.586   1.151  14.439 -0.5234 -2.6164 -0.1669
 8130TIP3   OH245804   1.493   5.597  12.877  0.5808 -0.4165 -0.0603
 8130TIP3    H145805   1.518   5.506  12.895 -1.1663 -0.7518  0.8921
 8130TIP3    H245806   1.478   5.635  12.964  1.6771  0.9328 -0.4249
 8131TIP3   OH245807   5.100   4.287   5.265  0.0942  0.1919  0.1707
 8131TIP3    H145808   5.111   4.254   5.354  1.6667  0.2979  0.0319
 8131TIP3    H245809   5.089   4.209   5.211  2.3086 -0.0777  0.0479
 8132TIP3   OH245810   3.986   5.672  16.995 -0.3849  0.4075 -0.2014
 8132TIP3    H145811   3.958   5.743  16.937 -2.0855 -0.3713 -0.4012
 8132TIP3    H245812   3.973   5.593  16.943  0.0873 -0.1504  0.5228
 8133TIP3   OH245813   4.000   1.558  15.945 -0.0387 -0.2575 -0.2059
 8133TIP3    H145814   3.923   1.542  16.001 -0.6493 -0.1017 -0.9795
 8133TIP3    H245815   3.983   1.505  15.867  0.5144 -0.0040 -0.4982
 8134TIP3   OH245816   1.803   3.276  12.822 -0.0790  0.2553 -0.5953
 8134TIP3    H145817   1.749   3.314  12.892 -0.6437  1.5612 -1.7030
 8134TIP3    H245818   1.745   3.212  12.781  0.1240 -0.2334 -0.1400
 8135TIP3   OH245819   6.055   1.017   4.258  0.4505 -0.1159  0.1095
 8135TIP3    H145820   6.028   1.102   4.295  0.9486 -0.1695  0.6045
 8135TIP3    H245821   5.972   0.971   4.243  0.1600  0.5512 -0.4046
 8136TIP3   OH245822   2.704   0.733  11.043 -0.1508  0.5910  0.3837
 8136TIP3    H145823   2.782   0.705  11.092 -0.2583  0.9960  0.7880
 8136TIP3    H245824   2.739   0.760  10.958  0.2520  1.4335  0.7991
 8137TIP3   OH245825   2.937   1.224   0.601  0.3517  0.2924  0.1710
 8137TIP3    H145826   2.978   1.276   0.670  0.2364 -1.5703  1.7459
 8137TIP3    H245827   3.009   1.198   0.544  1.2572 -1.6961  2.0661
 8138TIP3   OH245828   2.793   1.951  16.573  0.3952 -0.2282 -0.7179
 8138TIP3    H145829   2.862   1.953  16.507 -0.1970 -1.9945 -1.4462
 8138TIP3    H245830   2.822   1.887  16.637 -0.4361 -0.8240 -0.9122
 8139TIP3   OH245831   0.629   1.958  15.844 -0.1323 -0.4166  0.0559
 8139TIP3    H145832   0.548   2.007  15.859  0.5302  0.3732  1.1587
 8139TIP3    H245833   0.698   2.014  15.879  0.8727 -1.2181 -0.5943
 8140TIP3   OH245834   4.838   0.170   1.644 -0.5006 -0.2457 -0.1307
 8140TIP3    H145835   4.750   0.195   1.615 -0.9573  0.6675  1.8434
 8140TIP3    H245836   4.822   0.104   1.712  0.3162 -0.0209  0.2925
 8141TIP3   OH245837   2.678   1.519  13.143 -0.2634  0.3017  0.0045
 8141TIP3    H145838   2.640   1.589  13.197 -1.4076 -0.2515 -0.0690
 8141TIP3    H245839   2.717   1.459  13.206  0.9814  1.1139  0.0596
 8142TIP3   OH245840   5.650   6.714   5.872  0.1798 -0.0651  0.3747
 8142TIP3    H145841   5.711   6.690   5.942  1.3226  0.7562 -0.3123
 8142TIP3    H245842   5.604   6.791   5.906  1.2179  0.7572  0.0036
 8143TIP3   OH245843   1.714   5.063  14.450 -0.0548  0.2274  0.4344
 8143TIP3    H145844   1.725   5.158  14.454 -1.1592  0.3705  0.4012
 8143TIP3    H245845   1.664   5.047  14.370  1.7821 -0.5786 -0.6296
 8144TIP3   OH245846   3.809   1.458  11.666 -0.1949  0.1098 -0.4774
 8144TIP3    H145847   3.779   1.501  11.585 -2.8322  0.4277  0.5716
 8144TIP3    H245848   3.743   1.392  11.684  0.6752 -0.3846  1.1193
 8145TIP3   OH245849   5.317   3.195   4.985  0.4322 -0.1019 -0.2600
 8145TIP3    H145850   5.299   3.250   5.061 -3.7964  0.0412 -1.1144
 8145TIP3    H245851   5.314   3.105   5.019  0.4861  0.0103  0.0442
 8146TIP3   OH245852   0.972   2.488   1.495 -0.3822  0.8495  0.5840
 8146TIP3    H145853   1.064   2.463   1.484 -0.6813 -0.3148  0.6214
 8146TIP3    H245854   0.941   2.434   1.567 -1.6896 -0.4412 -0.8861
 8147TIP3   OH245855   0.424   0.206   5.844 -0.0850 -0.0323  0.1743
 8147TIP3    H145856   0.346   0.218   5.789  0.4036 -1.8618 -1.0277
 8147TIP3    H245857   0.404   0.252   5.925 -2.3859 -0.3640 -0.1358
 8148TIP3   OH245858   0.819   3.411  15.690 -0.4702 -0.2068 -0.2770
 8148TIP3    H145859   0.770   3.427  15.609 -0.0675 -0.6976 -0.6300
 8148TIP3    H245860   0.909   3.396  15.660 -0.1518  0.4428  0.3402
 8149TIP3   OH245861   4.277   1.717  13.901  0.3182 -0.4671 -0.1367
 8149TIP3    H145862   4.181   1.719  13.900  0.3282  0.7918 -0.3427
 8149TIP3    H245863   4.299   1.634  13.943 -0.8599 -1.0198 -0.5822
 8150TIP3   OH245864   2.347   2.860  16.303 -0.1539 -0.0100 -0.1770
 8150TIP3    H145865   2.402   2.932  16.273  0.4956 -0.2316  0.4424
 8150TIP3    H245866   2.290   2.841  16.229  1.9936 -1.1498 -1.6476
 8151TIP3   OH245867   0.671   3.089  14.656  0.3209  0.3871  0.1872
 8151TIP3    H145868   0.598   3.112  14.713 -0.0423  1.7867 -0.8085
 8151TIP3    H245869   0.712   3.172  14.633  0.7157 -0.1693 -1.2510
 8152TIP3   OH245870   1.698   5.097  11.678 -0.2469  0.3916 -0.1760
 8152TIP3    H145871   1.749   5.086  11.598 -0.4073 -1.2487 -0.0693
 8152TIP3    H245872   1.754   5.063  11.747 -0.6634  0.5183  0.2308
 8153TIP3   OH245873   1.208   0.796  15.614  0.4026  0.3460  0.5361
 8153TIP3    H145874   1.269   0.829  15.549 -0.0462  0.8668  0.3723
 8153TIP3    H245875   1.137   0.860  15.615 -2.3232 -2.2732 -2.3356
 8154TIP3   OH245876   5.217   2.129  11.020  0.8659  0.0563  0.0089
 8154TIP3    H145877   5.155   2.057  11.009 -1.0038  1.6794 -0.6418
 8154TIP3    H245878   5.292   2.090  11.064  0.4498 -2.5427 -1.4590
 8155TIP3   OH245879   0.121   6.295   1.697  0.0779  0.0937  0.1517
 8155TIP3    H145880   0.113   6.341   1.780 -0.1980 -0.6926  0.5722
 8155TIP3    H245881   0.163   6.358   1.638 -1.1170  1.2127  0.4457
 8156TIP3   OH245882   3.852   0.555  16.825 -0.4156  0.2228 -0.2672
 8156TIP3    H145883   3.784   0.620  16.838 -0.5504 -0.0447  0.4170
 8156TIP3    H245884   3.816   0.474  16.862 -0.3528 -0.3152 -1.3269
 8157TIP3   OH245885   5.801   2.503  13.449  0.3630  0.2862 -0.1689
 8157TIP3    H145886   5.781   2.517  13.542  0.3152  1.3675 -0.3357
 8157TIP3    H245887   5.717   2.476  13.411 -0.4400  2.9159 -0.4825
 8158TIP3   OH245888   4.343   6.101   3.020  0.0205 -0.4732 -0.2370
 8158TIP3    H145889   4.278   6.169   3.036 -0.6563 -1.0794 -0.3803
 8158TIP3    H245890   4.422   6.149   2.995 -0.7417  0.2251 -1.3844
 8159TIP3   OH245891   0.032   0.886   2.581 -0.0921  0.0459  0.3471
 8159TIP3    H145892   0.047   0.930   2.498 -0.9257  0.9334  0.6473
 8159TIP3    H245893  -0.043   0.829   2.565  0.7260 -0.9811  0.0745
 8160TIP3   OH245894   0.873   1.705   4.544 -0.5949  0.0603  0.4673
 8160TIP3    H145895   0.957   1.661   4.532 -0.5658  0.2950 -0.2611
 8160TIP3    H245896   0.879   1.784   4.489 -1.7063 -0.5026 -0.5108
 8161TIP3   OH245897   3.600   4.617  11.676  0.0417 -1.2974 -0.1051
 8161TIP3    H145898   3.512   4.649  11.660  0.0930 -1.8538 -1.6111
 8161TIP3    H245899   3.603   4.602  11.771 -1.0242 -0.0103  0.1523
 8162TIP3   OH245900   0.394   2.691  12.995  0.3164  0.2391 -0.4049
 8162TIP3    H145901   0.354   2.699  12.909  1.6430 -0.1389 -1.0979
 8162TIP3    H245902   0.364   2.606  13.027 -2.2719  1.4589  0.7044
 8163TIP3   OH245903   0.510   2.838   3.002 -0.5247  0.2094 -0.0617
 8163TIP3    H145904   0.557   2.849   2.919 -2.2662 -0.2727 -1.1531
 8163TIP3    H245905   0.420   2.864   2.983 -0.6542  1.6678  2.1162
 8164TIP3   OH245906   3.432   0.624   5.413  0.0730 -0.2561 -0.1420
 8164TIP3    H145907   3.346   0.638   5.454  0.4784  1.9103  0.1076
 8164TIP3    H245908   3.454   0.709   5.376  2.4544 -0.5514  0.4401
 8165TIP3   OH245909   1.376   4.246   5.701  0.3260  0.5145 -0.5456
 8165TIP3    H145910   1.456   4.200   5.726 -0.1635  0.6455  1.4021
 8165TIP3    H245911   1.316   4.233   5.775 -0.8519  1.8296 -1.2182
 8166TIP3   OH245912   5.939   2.001   2.999 -0.1474 -0.6435  0.0054
 8166TIP3    H145913   5.987   2.061   3.056  0.8821 -1.1683 -0.2815
 8166TIP3    H245914   6.007   1.961   2.945 -0.8899 -1.6271 -0.2115
 8167TIP3   OH245915   0.599   2.216   6.313 -0.2512  0.4167  0.2481
 8167TIP3    H145916   0.522   2.159   6.313  0.7461 -0.9983  0.0160
 8167TIP3    H245917   0.620   2.226   6.406 -0.9541  1.1788  0.3377
 8168TIP3   OH245918   3.240   5.772   0.659  0.5317 -0.0814 -0.3001
 8168TIP3    H145919   3.268   5.782   0.750  0.3376  1.1205 -0.3464
 8168TIP3    H245920   3.302   5.825   0.609 -0.3828  0.6935 -0.6595
 8169TIP3   OH245921   5.370   2.310   6.887  0.5338 -0.2294  0.3014
 8169TIP3    H145922   5.393   2.296   6.979 -1.7926 -2.5758  0.6529
 8169TIP3    H245923   5.413   2.239   6.840 -0.0000 -0.3109 -0.0800
 8170TIP3   OH245924   5.132   1.804   3.279  0.9104  0.4064  0.1876
 8170TIP3    H145925   5.099   1.814   3.369  0.1420  1.3032 -0.1680
 8170TIP3    H245926   5.224   1.782   3.290  0.5663 -0.6431  1.2114
 8171TIP3   OH245927   4.935   2.919   4.629 -0.8413  0.1039  0.1183
 8171TIP3    H145928   5.002   2.899   4.563  1.9390  1.1281  2.4022
 8171TIP3    H245929   4.878   2.842   4.629  0.8307 -1.2427 -1.3779
 8172TIP3   OH245930   2.907   0.476  15.765 -0.2765 -0.1211  0.3848
 8172TIP3    H145931   2.859   0.417  15.706  0.3849 -0.9487  0.6555
 8172TIP3    H245932   2.898   0.562  15.724 -1.2633 -0.3984 -0.0190
 8173TIP3   OH245933   5.001   0.914  11.520  0.2380  0.1893  0.1989
 8173TIP3    H145934   4.992   0.901  11.615 -0.7729  1.6341  0.3246
 8173TIP3    H245935   4.990   0.826  11.483 -1.2399 -0.1396  1.3166
 8174TIP3   OH245936   4.961   2.043   0.305 -0.4822 -0.3414 -0.0034
 8174TIP3    H145937   5.014   2.110   0.260 -2.2047  0.8882 -0.2768
 8174TIP3    H245938   4.932   1.985   0.234  1.1756 -1.5858  0.2562
 8175TIP3   OH245939   1.804   1.001  14.044 -0.8041 -0.2244 -0.6545
 8175TIP3    H145940   1.720   0.979  14.004 -1.3016  2.2099 -1.1430
 8175TIP3    H245941   1.782   1.040  14.128 -0.2770  1.2743 -1.1719
 8176TIP3   OH245942   5.344   1.241   1.166 -0.4588  0.3764  0.2967
 8176TIP3    H145943   5.249   1.243   1.172 -0.4298  0.8704  0.6179
 8176TIP3    H245944   5.368   1.324   1.126 -0.2597 -0.4353 -1.3634
 8177TIP3   OH245945   5.242   3.394   0.839  0.2283 -0.1758  0.4347
 8177TIP3    H145946   5.152   3.386   0.870 -0.1312  0.1972 -0.4641
 8177TIP3    H245947   5.292   3.422   0.916 -0.5551  0.3361  0.7726
 8178TIP3   OH245948   2.749   3.482  14.946 -0.0172 -0.2085 -0.0976
 8178TIP3    H145949   2.798   3.560  14.917 -0.3561  0.8508  1.9642
 8178TIP3    H245950   2.686   3.516  15.010 -1.2948 -1.9872 -0.3400
 8179TIP3   OH245951   5.004   1.505  12.406  0.2624 -0.3378 -0.1541
 8179TIP3    H145952   4.909   1.516  12.399  0.4791  1.3145 -1.1197
 8179TIP3    H245953   5.039   1.594  12.404  1.7932 -0.8344  1.4565
 8180TIP3   OH245954   5.285   0.385   4.394 -0.2277 -0.5418  0.5988
 8180TIP3    H145955   5.345   0.310   4.392 -1.1850 -1.3313  0.4825
 8180TIP3    H245956   5.256   0.395   4.304 -0.3992 -0.2688  0.6837
 8181TIP3   OH245957   4.044   4.815   4.563 -0.0136 -0.1544 -0.2280
 8181TIP3    H145958   4.118   4.785   4.511  1.1792  0.4697  1.0590
 8181TIP3    H245959   4.029   4.905   4.535  0.0637 -0.1014 -0.0971
 8182TIP3   OH245960   1.204   5.012  11.448 -0.4785 -0.5990  0.1788
 8182TIP3    H145961   1.257   4.939  11.417 -0.6493 -0.5285 -0.2879
 8182TIP3    H245962   1.127   5.011  11.391 -0.7708 -0.4284  0.5643
 8183TIP3   OH245963   2.709   4.275  16.044 -0.2291 -0.1628 -0.1444
 8183TIP3    H145964   2.666   4.357  16.068 -0.4337 -0.2547 -0.1975
 8183TIP3    H245965   2.657   4.207  16.085  0.6843 -0.2103  1.0034
 8184TIP3   OH245966   4.814   0.224  15.184  0.5143  0.2177  0.1411
 8184TIP3    H145967   4.894   0.185  15.147  1.1986  1.5676  0.1412
 8184TIP3    H245968   4.846   0.291  15.245 -0.6239  0.8401  0.0777
 8185TIP3   OH245969   5.786   6.463   0.386  0.2158 -0.6064  0.1142
 8185TIP3    H145970   5.749   6.441   0.472  0.9469 -2.1703  0.0526
 8185TIP3    H245971   5.755   6.395   0.327  0.9251 -0.3855 -0.5356
 8186TIP3   OH245972   0.795   0.660  17.069  0.2343 -0.5179  0.0772
 8186TIP3    H145973   0.856   0.613  17.013 -0.4612  0.1469 -1.2736
 8186TIP3    H245974   0.849   0.694  17.140  1.7327  1.2187 -1.7852
 8187TIP3   OH245975   6.684   5.473   0.346  0.0691 -0.2947  0.6543
 8187TIP3    H145976   6.666   5.420   0.269  0.4230 -0.4606  0.6870
 8187TIP3    H245977   6.658   5.562   0.321 -1.8722 -0.6924  1.0577
 8188TIP3   OH245978   1.206   2.431   4.731  0.2430 -0.2283 -0.4878
 8188TIP3    H145979   1.158   2.395   4.806  0.8935  0.3613  0.2222
 8188TIP3    H245980   1.176   2.522   4.725  0.1608 -0.2837 -0.9772
 8189TIP3   OH245981   5.396   5.415   0.694  0.2841  0.0346  0.1661
 8189TIP3    H145982   5.406   5.356   0.619 -0.3022  0.1327  0.0115
 8189TIP3    H245983   5.440   5.495   0.668  0.4278 -0.0697  0.0850
 8190TIP3   OH245984   3.320   6.268   4.737 -0.4730 -0.2666  0.1264
 8190TIP3    H145985   3.400   6.220   4.716  0.1544  1.2991 -1.3336
 8190TIP3    H245986   3.258   6.201   4.762  1.2941 -1.5409  1.3372
 8191TIP3   OH245987   2.510   4.734  13.570  0.2511  0.5512  0.0926
 8191TIP3    H145988   2.574   4.794  13.532 -0.0664  1.7652  1.3621
 8191TIP3    H245989   2.561   4.680  13.630  0.6880 -1.1120 -1.6835
 8192TIP3   OH245990   5.233   5.347  13.045 -0.2974 -0.7594 -0.4035
 8192TIP3    H145991   5.223   5.253  13.057  2.3788 -1.0189  0.3945
 8192TIP3    H245992   5.194   5.386  13.123  1.1057 -1.4081  0.6452
 8193TIP3   OH245993   2.425   4.975  16.472 -0.0799 -0.2553  0.3649
 8193TIP3    H145994   2.521   4.978  16.468  0.0324 -2.7935 -1.4938
 8193TIP3    H245995   2.397   5.058  16.433  1.4193 -0.7150 -1.8987
 8194TIP3   OH245996   3.609   3.820  12.991 -0.2545  0.3387 -0.4336
 8194TIP3    H145997   3.674   3.890  12.984  0.2759  0.2769  2.7476
 8194TIP3    H245998   3.533   3.861  13.031  0.0025 -0.8213  1.3265
 8195TIP3   OH245999   0.372   2.422  16.050  0.0313 -0.2578 -0.0430
 8195TIP3    H146000   0.344   2.435  15.960 -1.1570 -0.3267  0.3062
 8195TIP3    H246001   0.466   2.405  16.044  0.1831  0.9002 -1.1614
 8196TIP3   OH246002   1.743   6.627   0.753  0.2568 -0.2032 -0.4270
 8196TIP3    H146003   1.821   6.663   0.796  0.9422 -1.1393 -0.8385
 8196TIP3    H246004   1.729   6.543   0.797  0.1886 -0.5684 -1.1372
 8197TIP3   OH246005   1.980   1.408  16.039  0.2989 -0.7951 -0.0867
 8197TIP3    H146006   2.062   1.422  15.991 -1.0415 -1.0976 -2.6253
 8197TIP3    H246007   1.918   1.469  15.999 -0.7357 -0.5267  1.8165
 8198TIP3   OH246008   2.090   2.180  13.303 -0.4776 -0.3904  0.3459
 8198TIP3    H146009   2.162   2.194  13.243  0.7681 -0.8860  1.6655
 8198TIP3    H246010   2.090   2.258  13.359 -0.8439 -0.4806  0.4753
 8199TIP3   OH246011   0.506   2.142  14.847 -1.1241 -0.3162  0.3624
 8199TIP3    H146012   0.438   2.188  14.799 -1.8129 -1.7993 -0.1398
 8199TIP3    H246013   0.527   2.066  14.793  0.9642  0.0878  0.4999
 8200TIP3   OH246014   2.074   2.278  13.911  0.4590 -0.3181 -0.6229
 8200TIP3    H146015   2.024   2.325  13.978 -0.5559 -0.7134 -1.0781
 8200TIP3    H246016   2.129   2.345  13.870 -1.0939  0.5581 -1.3926
 8201TIP3   OH246017   2.657   1.651  15.157 -0.1919  0.0458 -0.0978
 8201TIP3    H146018   2.638   1.647  15.063  1.2205  0.5324 -0.4342
 8201TIP3    H246019   2.723   1.721  15.165  1.6444 -1.6945  0.9018
 8202TIP3   OH246020   6.054   5.081  16.817  0.2995 -0.1133  0.2562
 8202TIP3    H146021   6.018   4.999  16.851 -2.3137  0.7603 -0.1293
 8202TIP3    H246022   6.025   5.148  16.879 -0.4017  0.8795 -1.0775
 8203TIP3   OH246023   5.807   2.537  11.225 -0.6511 -0.5313  0.1044
 8203TIP3    H146024   5.755   2.612  11.198 -0.1751 -0.8151 -1.7095
 8203TIP3    H246025   5.894   2.574  11.244 -0.3672 -0.6147 -0.9568
 8204TIP3   OH246026   3.440   1.412   5.678 -0.4041 -0.2713  0.0046
 8204TIP3    H146027   3.492   1.474   5.730 -1.7487 -1.0322  2.4432
 8204TIP3    H246028   3.502   1.374   5.616  1.5453  0.0933  1.6438
 8205TIP3   OH246029   2.423   5.455  15.515  0.1012 -0.6817  0.2732
 8205TIP3    H146030   2.433   5.415  15.428 -0.3359 -1.0800  0.4047
 8205TIP3    H246031   2.423   5.381  15.576  0.5429 -0.3961  0.6317
 8206TIP3   OH246032   1.532   0.267   2.219  0.0681  0.2788  0.2153
 8206TIP3    H146033   1.515   0.204   2.289  0.8512 -1.8196 -1.3496
 8206TIP3    H246034   1.465   0.335   2.230  1.0609  0.8696  3.8128
 8207TIP3   OH246035   0.126   4.806   0.282 -0.4850 -0.7659  0.1589
 8207TIP3    H146036   0.065   4.850   0.222 -1.9508 -1.3003  1.2064
 8207TIP3    H246037   0.178   4.749   0.224  0.2370  0.9499 -0.9733
 8208TIP3   OH246038   6.045   6.486   0.265 -0.1096  0.1844  0.2789
 8208TIP3    H146039   5.952   6.481   0.287 -0.4205  0.1958 -0.9675
 8208TIP3    H246040   6.051   6.450   0.177  0.9751  0.8257  0.0686
 8209TIP3   OH246041   6.199   5.772   5.331  0.1787 -0.4876  0.0057
 8209TIP3    H146042   6.135   5.714   5.373  0.8385 -0.6024  0.8904
 8209TIP3    H246043   6.261   5.713   5.288  0.1166 -0.4019 -0.2013
 8210TIP3   OH246044   6.717   3.318  13.484 -0.0174  0.4953 -0.0070
 8210TIP3    H146045   6.729   3.255  13.555 -0.9297  1.0204  0.6284
 8210TIP3    H246046   6.627   3.306  13.456 -0.3287  1.7613  0.3806
 8211TIP3   OH246047   4.293   0.673   4.211 -0.2208  0.0710 -0.1143
 8211TIP3    H146048   4.389   0.671   4.209 -0.2362 -0.9533 -0.7484
 8211TIP3    H246049   4.267   0.581   4.220 -1.1447  0.3470  0.1463
 8212TIP3   OH246050   2.151   6.382  17.399  0.2228 -0.1432  0.3318
 8212TIP3    H146051   2.215   6.382  17.328 -0.7011  0.5082 -0.5412
 8212TIP3    H246052   2.198   6.348  17.474  1.0380 -1.5486 -0.7611
 8213TIP3   OH246053   1.017   5.839   6.190 -0.3848 -0.4356  0.0060
 8213TIP3    H146054   0.937   5.884   6.163  0.0522  0.1708 -0.3118
 8213TIP3    H246055   1.008   5.828   6.285 -0.5181  0.2882  0.0788
 8214TIP3   OH246056   4.316   3.753  11.128  0.5288 -0.4197  0.1250
 8214TIP3    H146057   4.269   3.758  11.211  0.2766 -0.3314 -0.0233
 8214TIP3    H246058   4.360   3.838  11.120 -0.6346  0.1490 -0.5342
 8215TIP3   OH246059   3.707   1.190  14.905 -0.2310  0.0281 -0.0430
 8215TIP3    H146060   3.736   1.127  14.971  1.3809 -0.4806 -1.1868
 8215TIP3    H246061   3.613   1.172  14.895 -0.1408 -1.0471  0.8470
 8216TIP3   OH246062   4.343   6.541  11.236 -0.3057 -0.3682  0.2815
 8216TIP3    H146063   4.310   6.554  11.147  1.7878 -0.3828 -0.5571
 8216TIP3    H246064   4.436   6.522  11.224  0.1997  0.4111  2.5407
 8217TIP3   OH246065   0.792   3.896  13.613 -0.4712 -0.6664 -0.6381
 8217TIP3    H146066   0.709   3.861  13.581 -1.3925  0.2435  0.6856
 8217TIP3    H246067   0.784   3.991  13.603 -0.8543 -0.3215  2.2927
 8218TIP3   OH246068   1.841   4.874  13.250 -0.3679  0.3126 -0.0334
 8218TIP3    H146069   1.885   4.843  13.330 -1.9907 -2.0487  0.0491
 8218TIP3    H246070   1.755   4.903  13.279 -0.1908  1.5288 -0.6617
 8219TIP3   OH246071   0.663   3.122   2.291 -0.8024  0.3968  0.2252
 8219TIP3    H146072   0.588   3.073   2.325 -0.2012 -1.3810 -0.8116
 8219TIP3    H246073   0.715   3.143   2.368 -1.9492  0.9225  0.8728
 8220TIP3   OH246074   6.040   1.878   4.695  0.6910  0.8171 -0.3080
 8220TIP3    H146075   5.992   1.874   4.778  0.9884 -1.6218 -0.1599
 8220TIP3    H246076   5.972   1.868   4.628  0.7597 -0.7853 -0.1734
 8221TIP3   OH246077   1.118   6.144  13.130  0.4080  0.1494 -0.5160
 8221TIP3    H146078   1.142   6.221  13.183 -0.4154  0.4054 -0.5079
 8221TIP3    H246079   1.031   6.120  13.161  0.0290  0.1324 -1.5673
 8222TIP3   OH246080   5.479   5.687  13.752  0.8435  0.5954 -0.0540
 8222TIP3    H146081   5.410   5.695  13.687  2.2152  0.5079 -1.6023
 8222TIP3    H246082   5.451   5.743  13.825 -1.4854 -0.5204  0.0043
 8223TIP3   OH246083   3.249   1.720  11.950  0.5306 -0.7781  0.2256
 8223TIP3    H146084   3.186   1.700  11.881 -0.5703  0.2518  0.8916
 8223TIP3    H246085   3.333   1.690  11.916 -0.0019 -0.3822 -1.5093
 8224TIP3   OH246086   1.078   0.138   1.878 -0.5854  0.2355  0.4110
 8224TIP3    H146087   1.009   0.204   1.869 -0.8747  0.0872  1.4346
 8224TIP3    H246088   1.089   0.103   1.790 -1.9760  0.1037  0.2656
 8225TIP3   OH246089   2.522   3.864  16.592  0.1370  0.0442 -0.4335
 8225TIP3    H146090   2.490   3.879  16.680  1.0163 -3.7031  0.7321
 8225TIP3    H246091   2.446   3.830  16.544  0.6760 -2.7227  0.4782
 8226TIP3   OH246092   6.392   2.163  11.553  0.0013  0.0284  0.1294
 8226TIP3    H146093   6.396   2.258  11.566 -0.4402 -0.0645  1.0031
 8226TIP3    H246094   6.409   2.127  11.640  2.5317 -0.7567 -0.5898
 8227TIP3   OH246095   0.304   4.315  13.840 -0.1499 -0.2555 -0.0143
 8227TIP3    H146096   0.398   4.297  13.837  0.0910  0.7289  0.9890
 8227TIP3    H246097   0.284   4.326  13.933 -0.7703  1.8139 -0.3335
 8228TIP3   OH246098   2.290   5.841  17.140 -0.2612  0.5449  0.3384
 8228TIP3    H146099   2.314   5.784  17.212 -1.4846 -2.5812 -1.5212
 8228TIP3    H246100   2.346   5.813  17.067 -2.2331  0.3142 -1.1646
 8229TIP3   OH246101   0.466   3.441  13.574  0.1236 -0.6961 -0.0661
 8229TIP3    H146102   0.501   3.357  13.605  0.3468 -0.9809 -1.0534
 8229TIP3    H246103   0.401   3.416  13.508 -0.9335 -0.1285  0.7323
 8230TIP3   OH246104   2.584   0.765   4.805 -0.1557  0.4132  0.0881
 8230TIP3    H146105   2.657   0.732   4.753 -0.2685  0.8425 -0.3448
 8230TIP3    H246106   2.625   0.826   4.867 -0.1151  0.4406  0.0341
 8231TIP3   OH246107   6.193   5.948  17.119 -0.2849  0.7395  0.3740
 8231TIP3    H146108   6.216   6.035  17.087 -0.7797  1.0069  0.7297
 8231TIP3    H246109   6.171   5.962  17.211 -0.6884  0.2904  0.3461
 8232TIP3   OH246110   2.683   6.362  14.139 -0.3215 -0.0052 -0.7881
 8232TIP3    H146111   2.609   6.358  14.078 -0.6760 -0.9367 -0.3104
 8232TIP3    H246112   2.648   6.410  14.214 -0.2977 -0.0574 -0.7446
 8233TIP3   OH246113   4.141   3.487   0.136  0.0034 -0.2352 -0.5854
 8233TIP3    H146114   4.130   3.436   0.056  1.9128 -0.5805 -0.6828
 8233TIP3    H246115   4.197   3.433   0.192 -0.6102  0.3583  0.6474
 8234TIP3   OH246116   6.326   3.379   1.117  0.4545 -0.1762  0.0514
 8234TIP3    H146117   6.291   3.458   1.074 -0.7763 -1.1565 -0.8095
 8234TIP3    H246118   6.351   3.409   1.204 -1.6909  0.8088  0.3936
 8235TIP3   OH246119   5.361   4.940  16.274  0.0484 -0.2605  0.2070
 8235TIP3    H146120   5.338   4.852  16.301  0.9700 -0.6597 -0.2836
 8235TIP3    H246121   5.428   4.928  16.207  0.9370  0.8442  0.8684
 8236TIP3   OH246122   6.053   4.846   1.391  0.4390 -0.0135 -0.5094
 8236TIP3    H146123   6.114   4.859   1.464  1.4901  2.1787 -1.7033
 8236TIP3    H246124   5.971   4.886   1.421 -0.3365 -2.3861  0.8366
 8237TIP3   OH246125   2.815   0.871   5.746  0.1017  0.9134  0.8538
 8237TIP3    H146126   2.728   0.844   5.776  0.1113 -0.2877 -0.1371
 8237TIP3    H246127   2.812   0.967   5.747 -0.5171  0.9193  2.8269
 8238TIP3   OH246128   1.381   2.892   5.699  0.3505  0.1466  0.1893
 8238TIP3    H146129   1.334   2.975   5.709 -0.6881 -0.5202  0.9998
 8238TIP3    H246130   1.360   2.843   5.779  2.4013 -0.2011  0.5679
 8239TIP3   OH246131   5.295   2.628  11.662  0.4761 -0.3027  0.0087
 8239TIP3    H146132   5.375   2.604  11.708  0.9382 -1.5900 -1.4098
 8239TIP3    H246133   5.290   2.568  11.589 -0.6648  1.1482 -1.1732
 8240TIP3   OH246134   3.710   4.692   6.103  0.1476  0.2117 -0.1399
 8240TIP3    H146135   3.643   4.760   6.114  0.7621  0.6664  1.0378
 8240TIP3    H246136   3.793   4.739   6.115  0.6178 -0.6144 -0.1011
 8241TIP3   OH246137   5.046   0.982   0.204 -0.1533 -0.4024  0.5318
 8241TIP3    H146138   5.028   0.914   0.139  0.3834 -1.3668  1.3626
 8241TIP3    H246139   4.968   1.036   0.204  0.0007 -0.1205 -1.2134
 8242TIP3   OH246140   2.623   1.425  13.727  0.3549  0.0965  0.3184
 8242TIP3    H146141   2.649   1.498  13.671 -1.2069 -1.1004 -2.1410
 8242TIP3    H246142   2.683   1.355  13.705  0.6410  0.0252  1.2662
 8243TIP3   OH246143   4.955   5.115  13.066  0.0402  0.1628  0.0586
 8243TIP3    H146144   4.861   5.094  13.069  0.0562  0.1383  0.5059
 8243TIP3    H246145   4.960   5.203  13.104  0.2436 -0.0134  0.4470
 8244TIP3   OH246146   4.924   0.333  14.345 -0.6048 -0.0479 -0.6270
 8244TIP3    H146147   4.971   0.275  14.285  1.8345 -0.6723  1.7088
 8244TIP3    H246148   4.877   0.273  14.404 -0.7197  0.4579 -0.1984
 8245TIP3   OH246149   5.601   5.719  16.455  0.7587 -0.5044 -0.3491
 8245TIP3    H146150   5.532   5.664  16.417 -2.6157  2.6088  0.7550
 8245TIP3    H246151   5.626   5.778  16.384  3.1025 -2.1287 -0.9982
 8246TIP3   OH246152   1.867   0.898  13.533 -0.3812  0.3650 -0.1893
 8246TIP3    H146153   1.901   0.962  13.471 -1.8867  1.2003 -0.2025
 8246TIP3    H246154   1.943   0.872  13.585  0.7231  0.3374 -1.7476
 8247TIP3   OH246155   6.579   4.645  17.051 -0.4156  0.0387 -0.0026
 8247TIP3    H146156   6.559   4.662  17.143  1.0043  0.6238  0.2244
 8247TIP3    H246157   6.651   4.704  17.030  0.6736 -1.5253 -0.8998
 8248TIP3   OH246158   6.447   6.315   0.629 -0.1618 -1.1044  0.2364
 8248TIP3    H146159   6.541   6.309   0.613 -0.0841 -0.1912  0.2490
 8248TIP3    H246160   6.440   6.375   0.704 -0.7886 -0.1334 -0.5663
 8249TIP3   OH246161   5.701   0.249  15.759  0.3542 -0.2203  0.1788
 8249TIP3    H146162   5.770   0.298  15.804  1.6113 -1.1938 -0.6336
 8249TIP3    H246163   5.651   0.316  15.712  1.1942  0.4329  0.2007
 8250TIP3   OH246164   2.407   1.513   5.725 -0.6099 -0.3144  0.0658
 8250TIP3    H146165   2.429   1.522   5.817 -2.2735 -0.7744  0.5353
 8250TIP3    H246166   2.419   1.601   5.689  1.2919 -0.3972  0.3919
 8251TIP3   OH246167   5.246   1.905   4.057  0.2298 -0.1608  0.7510
 8251TIP3    H146168   5.325   1.892   4.005 -0.9729 -0.7236 -1.0193
 8251TIP3    H246169   5.177   1.861   4.008 -1.0747 -0.3024  2.6140
 8252TIP3   OH246170   6.623   2.702  16.513  0.3566  0.4563  0.7044
 8252TIP3    H146171   6.682   2.630  16.488 -0.1594  0.3494 -0.2370
 8252TIP3    H246172   6.638   2.769  16.447 -0.9904  0.2020  0.1138
 8253TIP3   OH246173   6.634   5.761  13.800 -0.0673 -0.4954 -0.4752
 8253TIP3    H146174   6.609   5.847  13.835 -0.5438  0.1318 -2.2408
 8253TIP3    H246175   6.728   5.756  13.815 -0.5255 -1.2861  2.9201
 8254TIP3   OH246176   3.719   0.228   6.224  0.2692 -0.4311  0.1418
 8254TIP3    H146177   3.683   0.301   6.173  0.5203 -2.0912 -2.6206
 8254TIP3    H246178   3.644   0.173   6.243  0.0516  0.5434  2.3822
 8255TIP3   OH246179   2.282   2.343  15.974  0.2024 -0.4860  0.1371
 8255TIP3    H146180   2.354   2.299  16.019  0.0611 -0.8526  0.0113
 8255TIP3    H246181   2.283   2.433  16.008  0.2779 -0.6805  0.6533
 8256TIP3   OH246182   0.459   3.344   2.349 -0.1749  0.2810  0.4331
 8256TIP3    H146183   0.387   3.343   2.286 -0.4832  0.8614  0.7583
 8256TIP3    H246184   0.493   3.255   2.349  0.8685  0.6201 -1.7157
 8257TIP3   OH246185   2.032   5.872  14.510  0.5878 -0.4859  0.2763
 8257TIP3    H146186   1.956   5.928  14.492  0.9179  0.0576  0.5513
 8257TIP3    H246187   2.105   5.933  14.519  1.0980 -1.0208 -0.1937
 8258TIP3   OH246188   2.726   3.493  13.319 -0.4775 -0.3289 -0.5291
 8258TIP3    H146189   2.814   3.527  13.306 -0.7069 -0.1740 -1.8060
 8258TIP3    H246190   2.687   3.493  13.232 -0.9882 -2.4939 -0.3537
 8259TIP3   OH246191   4.322   2.554   2.045 -0.0124  0.2325 -0.0429
 8259TIP3    H146192   4.280   2.486   2.099 -2.7767  3.0859  1.7857
 8259TIP3    H246193   4.359   2.615   2.109  5.8736 -1.1329 -1.5795
 8260TIP3   OH246194   5.746   5.140  15.339 -0.5067  0.1828  0.7223
 8260TIP3    H146195   5.803   5.069  15.370  0.5582  0.2755 -0.8786
 8260TIP3    H246196   5.683   5.096  15.282  0.8760  0.5710 -1.2257
 8261TIP3   OH246197   4.720   3.354   2.230  0.1281  0.1390  0.0933
 8261TIP3    H146198   4.740   3.261   2.240  0.9250  0.4258  1.4457
 8261TIP3    H246199   4.651   3.357   2.164 -0.3531 -1.4570  0.4859
 8262TIP3   OH246200   0.138   2.863  13.456  0.3058 -0.6229 -0.1752
 8262TIP3    H146201   0.090   2.937  13.495  1.8279  0.3638 -0.1219
 8262TIP3    H246202   0.207   2.844  13.519  1.7178 -0.1692 -1.5473
 8263TIP3   OH246203   3.934   1.350   0.903  0.4420  0.9243  0.0960
 8263TIP3    H146204   3.947   1.337   0.809 -2.3634 -1.1644 -0.1367
 8263TIP3    H246205   3.873   1.423   0.909  1.4502  1.7658  0.4031
 8264TIP3   OH246206   0.607   5.430   5.708  0.2252 -0.2627 -0.1087
 8264TIP3    H146207   0.596   5.492   5.635 -0.0559  2.1327  1.8372
 8264TIP3    H246208   0.521   5.389   5.717 -0.3091  0.8432  0.0428
 8265TIP3   OH246209   5.312   0.746  15.157 -0.2536 -0.2172 -0.0378
 8265TIP3    H146210   5.367   0.823  15.140 -0.4871 -0.3718 -1.7186
 8265TIP3    H246211   5.364   0.672  15.123 -0.5069 -0.6537  0.5200
 8266TIP3   OH246212   0.745   0.353   3.173 -0.0420 -0.0784 -0.5880
 8266TIP3    H146213   0.709   0.265   3.161 -2.9172  0.8064  0.5610
 8266TIP3    H246214   0.722   0.399   3.093 -3.6271  1.0400  0.8811
 8267TIP3   OH246215   1.520   4.543   4.297 -0.5527 -0.7103  0.0719
 8267TIP3    H146216   1.528   4.448   4.290  0.9408 -0.7125  1.2466
 8267TIP3    H246217   1.588   4.577   4.239 -1.1596 -0.3326 -0.4387
 8268TIP3   OH246218   0.585   2.270   2.768  0.1796 -1.2086  0.2350
 8268TIP3    H146219   0.579   2.364   2.785  0.8978 -1.1373  0.1162
 8268TIP3    H246220   0.557   2.260   2.677  0.7811 -1.0180  0.0259
 8269TIP3   OH246221   4.593   0.935  15.954  0.4134  0.2026  0.0329
 8269TIP3    H146222   4.687   0.922  15.962  0.3615  0.8281  2.6519
 8269TIP3    H246223   4.557   0.889  16.030 -1.7560 -2.6536 -2.4459
 8270TIP3   OH246224   5.780   5.398   3.804 -0.5777 -0.0002 -0.3726
 8270TIP3    H146225   5.793   5.324   3.864 -0.3061  0.8614  0.6610
 8270TIP3    H246226   5.811   5.474   3.853  2.5987  0.4025 -2.6602
 8271TIP3   OH246227   3.238   2.376   2.252  0.2532  0.1357 -0.4366
 8271TIP3    H146228   3.309   2.382   2.316 -0.2770  1.4057  0.0687
 8271TIP3    H246229   3.247   2.289   2.215  2.5101  0.4736 -0.8800
 8272TIP3   OH246230   5.247   1.186   5.981 -0.1003  0.3797  0.4586
 8272TIP3    H146231   5.225   1.149   6.066  1.1422  1.6208  1.3758
 8272TIP3    H246232   5.164   1.221   5.948 -0.5159  0.2814  1.3579
 8273TIP3   OH246233   4.206   2.437  14.175  0.6036  0.6329  0.2030
 8273TIP3    H146234   4.227   2.383  14.098 -2.4711  0.4007 -0.5896
 8273TIP3    H246235   4.239   2.524  14.152  1.4104  0.1477 -0.5524
 8274TIP3   OH246236   5.375   1.565  16.206 -0.2107  0.2244  0.3250
 8274TIP3    H146237   5.284   1.561  16.176 -0.0718  0.3956 -0.1245
 8274TIP3    H246238   5.426   1.584  16.127  0.2567 -0.2610  0.4993
 8275TIP3   OH246239   4.094   1.241   6.250 -0.2329 -0.4757 -0.0746
 8275TIP3    H146240   4.035   1.177   6.290 -2.4805  2.7174  2.1226
 8275TIP3    H246241   4.161   1.257   6.317  0.5767 -0.8041 -0.7890
 8276TIP3   OH246242   4.567   2.808  11.836  0.0064  0.1035 -0.4938
 8276TIP3    H146243   4.590   2.782  11.926  0.6106 -0.2725 -0.7487
 8276TIP3    H246244   4.637   2.771  11.782 -0.7013 -0.2300 -1.1955
 8277TIP3   OH246245   3.774   3.221  14.973  0.0856  0.6699 -0.6217
 8277TIP3    H146246   3.697   3.250  14.923 -1.3024 -1.7830 -0.0263
 8277TIP3    H246247   3.745   3.224  15.064  0.4358 -0.9241 -0.4440
 8278TIP3   OH246248   6.500   1.995   4.380  0.0366 -0.3971 -0.4438
 8278TIP3    H146249   6.427   1.942   4.349 -0.8654  0.6173 -0.1413
 8278TIP3    H246250   6.459   2.065   4.431  1.0374  1.3699 -1.8971
 8279TIP3   OH246251   0.507   3.677  14.290 -0.0050  0.3406  0.2367
 8279TIP3    H146252   0.487   3.742  14.222 -1.8634 -0.9791 -0.5754
 8279TIP3    H246253   0.578   3.625  14.253  3.3396  3.2572  1.9162
 8280TIP3   OH246254   3.290   4.863  15.298  0.2944 -0.8912 -0.5236
 8280TIP3    H146255   3.226   4.924  15.335 -1.1186 -2.8500  0.4542
 8280TIP3    H246256   3.368   4.876  15.351 -1.0633 -2.2075  2.0159
 8281TIP3   OH246257   2.233   1.239   2.351  0.0845 -0.3323 -0.8783
 8281TIP3    H146258   2.277   1.158   2.325 -0.8053 -0.8278 -0.8786
 8281TIP3    H246259   2.266   1.305   2.290 -0.7310 -1.1345 -2.2333
 8282TIP3   OH246260   4.539   6.458  15.829 -0.8706 -0.2749  0.2800
 8282TIP3    H146261   4.573   6.486  15.744 -1.2569 -1.3020 -0.2250
 8282TIP3    H246262   4.478   6.528  15.854 -1.7449 -0.5777 -0.9054
 8283TIP3   OH246263   3.023   5.905   1.065  0.4896  0.7444  0.5641
 8283TIP3    H146264   2.982   5.991   1.065  0.3192  0.7116 -1.6025
 8283TIP3    H246265   2.984   5.860   1.141  0.7367  2.5948  1.8423
 8284TIP3   OH246266   3.066   4.023  14.912 -0.0308  0.0040  0.8196
 8284TIP3    H146267   3.121   3.946  14.927  0.7057  0.2812 -0.3126
 8284TIP3    H246268   3.078   4.044  14.819  0.2638  1.8280  1.2169
 8285TIP3   OH246269   1.007   6.282   1.685 -0.1704  0.0268  0.0525
 8285TIP3    H146270   1.053   6.364   1.665 -0.7474  0.2334 -0.4460
 8285TIP3    H246271   1.068   6.234   1.742  1.2844 -0.3168 -1.6771
 8286TIP3   OH246272   5.804   3.186  11.686 -0.2275  0.2327  0.6365
 8286TIP3    H146273   5.723   3.235  11.702 -1.1184 -1.1432  0.5149
 8286TIP3    H246274   5.838   3.166  11.773 -0.6857 -0.2303  0.7155
 8287TIP3   OH246275   0.562   1.808   5.861 -0.1044  0.1232  0.3474
 8287TIP3    H146276   0.579   1.746   5.931  1.6324  1.4908  1.2334
 8287TIP3    H246277   0.640   1.864   5.860 -1.7770  2.5931 -0.0456
 8288TIP3   OH246278   3.657   3.696   4.061  0.2440 -0.1752 -0.5908
 8288TIP3    H146279   3.612   3.772   4.097 -0.1756 -0.8381  0.3382
 8288TIP3    H246280   3.600   3.664   3.991 -0.6882 -0.9116  0.4703
 8289TIP3   OH246281   4.719   4.519  11.609  0.4043  0.0667  0.1767
 8289TIP3    H146282   4.743   4.572  11.686  1.1670 -3.8160  2.9300
 8289TIP3    H246283   4.796   4.523  11.552  1.1340  0.4988  1.1566
 8290TIP3   OH246284   4.142   0.149  10.611 -0.0854  0.1256  0.1867
 8290TIP3    H146285   4.109   0.072  10.657 -1.1179 -1.9554 -3.5464
 8290TIP3    H246286   4.072   0.214  10.620  0.1606  0.1689  2.1857
 8291TIP3   OH246287   0.169   0.264  14.516  0.1933  0.5282 -0.7335
 8291TIP3    H146288   0.219   0.183  14.522 -0.1843  0.3773  1.6892
 8291TIP3    H246289   0.093   0.243  14.463  0.3145 -0.5936 -0.4773
 8292TIP3   OH246290   2.912   2.016   4.162 -0.1834  0.0307 -0.1821
 8292TIP3    H146291   2.882   1.968   4.084 -2.2887 -0.7097  0.9925
 8292TIP3    H246292   2.972   1.956   4.206  0.9506  0.4184 -1.1334
 8293TIP3   OH246293   4.914   2.248  11.660  0.3524 -0.1437 -0.0631
 8293TIP3    H146294   5.003   2.225  11.686 -0.2895 -0.4265  2.0277
 8293TIP3    H246295   4.872   2.278  11.740 -1.1506  0.9863 -1.2061
 8294TIP3   OH246296   3.580   5.257   4.816 -0.1142  0.3531 -0.6082
 8294TIP3    H146297   3.566   5.197   4.889 -2.0532  2.8132  1.2245
 8294TIP3    H246298   3.672   5.284   4.825  0.2221 -0.8452 -0.3072
 8295TIP3   OH246299   1.791   4.666  14.498 -0.2553  0.3350  0.3618
 8295TIP3    H146300   1.799   4.730  14.427 -1.4199 -1.1755 -1.2164
 8295TIP3    H246301   1.846   4.701  14.568  0.9099  1.9170 -1.2484
 8296TIP3   OH246302   2.794   0.303  17.298 -0.4391  0.6981 -0.6009
 8296TIP3    H146303   2.888   0.288  17.312 -0.6661  0.0319  0.2806
 8296TIP3    H246304   2.790   0.381  17.243  0.6216  0.9851 -0.2910
 8297TIP3   OH246305   6.358   4.239  14.771 -0.4897  0.3384  0.0699
 8297TIP3    H146306   6.439   4.188  14.766  2.1787  4.2236 -0.3453
 8297TIP3    H246307   6.300   4.198  14.706  2.5074 -0.4922 -2.3248
 8298TIP3   OH246308   3.449   0.490  13.694 -0.2402  0.2265 -0.1032
 8298TIP3    H146309   3.535   0.455  13.716 -0.4764  0.6624  1.7129
 8298TIP3    H246310   3.451   0.502  13.599  1.2561 -0.9025 -0.2464
 8299TIP3   OH246311   4.082   5.907   3.325 -0.0620 -0.3214  1.1288
 8299TIP3    H146312   4.046   5.891   3.412  0.7537 -1.0618  1.3385
 8299TIP3    H246313   4.176   5.921   3.340 -0.2034  1.4944  0.5861
 8300TIP3   OH246314   3.376   3.042  15.283  0.3692 -0.0726  0.3618
 8300TIP3    H146315   3.463   3.030  15.247  0.7831  0.6465  1.0977
 8300TIP3    H246316   3.340   2.953  15.289 -1.1731 -0.1612 -5.1026
 8301TIP3   OH246317   6.360   0.421  16.074 -0.4515  0.1298  0.3185
 8301TIP3    H146318   6.359   0.466  16.158  1.4758  0.1209  0.3747
 8301TIP3    H246319   6.442   0.372  16.073 -0.3877  0.1851 -1.5896
 8302TIP3   OH246320   3.094   5.038   4.810 -0.3617  0.2717  0.1404
 8302TIP3    H146321   3.158   5.108   4.810  0.7018 -0.6238  2.0006
 8302TIP3    H246322   3.027   5.065   4.873  0.1044 -0.3891  0.9433
 8303TIP3   OH246323   6.253   5.454  11.805 -0.7736 -0.5301 -0.2565
 8303TIP3    H146324   6.167   5.411  11.806 -1.2308  0.3462 -0.4441
 8303TIP3    H246325   6.309   5.395  11.755 -1.7164 -0.3083 -1.6209
 8304TIP3   OH246326   4.985   0.808   5.304  0.1322  0.0772 -0.3395
 8304TIP3    H146327   4.995   0.767   5.218 -1.0052  1.5346 -1.2213
 8304TIP3    H246328   5.034   0.890   5.297 -0.3809  0.4422  0.2152
 8305TIP3   OH246329   1.014   0.377   0.825 -0.0179 -0.5417  0.0872
 8305TIP3    H146330   1.089   0.359   0.881  0.5318 -1.0157 -0.7726
 8305TIP3    H246331   1.039   0.455   0.775 -0.1170 -0.6662 -0.1592
 8306TIP3   OH246332   4.108   0.516   5.194  0.5044  0.6642 -0.0783
 8306TIP3    H146333   4.110   0.610   5.175  2.0687  0.4459 -1.1443
 8306TIP3    H246334   4.170   0.505   5.266  1.4421  0.2627 -0.9332
 8307TIP3   OH246335   6.497   4.464  12.509 -0.4283 -0.2411 -0.7233
 8307TIP3    H146336   6.538   4.550  12.503 -1.0474  0.1167  0.0694
 8307TIP3    H246337   6.406   4.478  12.483 -0.6113 -0.5857 -0.2804
 8308TIP3   OH246338   0.288   0.163   0.248 -0.3767  0.3199 -0.1463
 8308TIP3    H146339   0.292   0.151   0.153  0.8307  2.2094 -0.3817
 8308TIP3    H246340   0.195   0.180   0.266 -0.7422 -0.8240 -0.8572
 8309TIP3   OH246341   5.619   6.103  11.736  0.2512 -0.3858 -0.2532
 8309TIP3    H146342   5.572   6.116  11.818 -0.3160  0.7903 -0.7394
 8309TIP3    H246343   5.711   6.118  11.758 -0.1334  2.8061 -0.3207
 8310TIP3   OH246344   1.569   2.941   4.314  0.3728  0.4149 -0.0179
 8310TIP3    H146345   1.520   2.863   4.286  0.4348  0.0983  0.7487
 8310TIP3    H246346   1.522   3.014   4.274 -1.2745  0.2063  1.4173
 8311TIP3   OH246347   2.074   0.863  15.594  0.6380  0.3032 -0.5060
 8311TIP3    H146348   2.087   0.958  15.586  0.9828  0.2534 -0.5561
 8311TIP3    H246349   2.002   0.844  15.534 -0.1524  0.6905  0.2848
 8312TIP3   OH246350   1.755   4.050   2.656 -0.3107 -0.6267 -0.3945
 8312TIP3    H146351   1.727   4.120   2.715  2.2612 -0.5603  0.8986
 8312TIP3    H246352   1.788   3.981   2.714 -0.2904 -1.7658 -1.7005
 8313TIP3   OH246353   4.969   3.367   2.853 -0.5468  0.8257 -0.1728
 8313TIP3    H146354   4.997   3.459   2.851 -0.4448  0.8404  1.2138
 8313TIP3    H246355   4.954   3.345   2.761  2.7773  1.1978 -0.9547
 8314TIP3   OH246356   1.273   0.171  13.145  0.4298  0.0086  0.0724
 8314TIP3    H146357   1.298   0.162  13.053 -0.0720  1.2872 -0.2099
 8314TIP3    H246358   1.336   0.233  13.181  0.1377  0.1296  0.3823
 8315TIP3   OH246359   3.009   5.263  13.361 -0.2584 -0.8466  0.4743
 8315TIP3    H146360   3.100   5.237  13.379  0.6086 -0.6330 -2.9110
 8315TIP3    H246361   3.002   5.260  13.266 -3.5833  0.0680  0.5748
 8316TIP3   OH246362   4.347   3.986   1.904 -0.2518  0.2793 -0.0311
 8316TIP3    H146363   4.353   4.082   1.900 -1.5986  0.3960  0.3279
 8316TIP3    H246364   4.285   3.969   1.975 -1.5955 -0.8029 -1.4022
 8317TIP3   OH246365   1.887   2.081   2.704 -0.4255 -0.3899  0.3647
 8317TIP3    H146366   1.960   2.124   2.750 -0.3943  1.3485 -1.1683
 8317TIP3    H246367   1.820   2.071   2.771  0.4197 -0.0076  1.3090
 8318TIP3   OH246368   4.322   5.316   2.153  0.5130  0.1543  0.0519
 8318TIP3    H146369   4.388   5.384   2.141  0.6436  0.0003 -0.1134
 8318TIP3    H246370   4.360   5.256   2.217  1.0840 -0.6202 -0.9775
 8319TIP3   OH246371   6.172   2.668   0.985  0.0494  0.1736 -0.5822
 8319TIP3    H146372   6.189   2.759   1.009 -1.3500 -0.3896  3.1498
 8319TIP3    H246373   6.077   2.661   0.980 -0.0930 -1.5926  2.2191
 8320TIP3   OH246374   5.039   0.009   1.606  0.1378 -0.5433  0.1478
 8320TIP3    H146375   4.962   0.065   1.617 -0.0287 -0.5569 -0.8654
 8320TIP3    H246376   5.098   0.036   1.676  0.4541  1.5691 -0.8547
 8321TIP3   OH246377   3.751   1.156   2.859  0.2581  0.1898 -0.2135
 8321TIP3    H146378   3.762   1.061   2.860  1.2308  0.3001  1.1371
 8321TIP3    H246379   3.671   1.170   2.807  0.4547 -1.3110 -0.9627
 8322TIP3   OH246380   2.999   0.293  12.082  0.3938  0.3861  0.4482
 8322TIP3    H146381   2.905   0.301  12.099  0.3212 -0.2221  0.3464
 8322TIP3    H246382   3.007   0.217  12.025  0.8493  1.0783 -0.4513
 8323TIP3   OH246383   6.214   3.346   1.917 -0.0479  0.1969 -0.6599
 8323TIP3    H146384   6.140   3.306   1.871 -1.7368  1.4970  0.8013
 8323TIP3    H246385   6.288   3.287   1.899 -1.0030 -0.2881 -3.5172
 8324TIP3   OH246386   4.434   5.269  12.651 -0.0517  0.4394  0.4105
 8324TIP3    H146387   4.494   5.201  12.619  0.0295  0.8434 -0.3339
 8324TIP3    H246388   4.368   5.221  12.701  0.9408 -0.0060  1.3417
 8325TIP3   OH246389   5.032   1.210  14.477  0.3013  0.5853  0.0687
 8325TIP3    H146390   5.085   1.136  14.509  0.7201  1.3386  1.1858
 8325TIP3    H246391   5.096   1.269  14.437 -0.0098  0.4530 -0.6473
 8326TIP3   OH246392   0.329   3.871   5.731 -0.2498  0.5409  0.4953
 8326TIP3    H146393   0.266   3.861   5.803  0.0059 -1.8298  0.4778
 8326TIP3    H246394   0.402   3.815   5.756  1.0268  1.7603 -0.3946
 8327TIP3   OH246395   4.424   3.854  14.942  0.3255  0.1170  0.1142
 8327TIP3    H146396   4.447   3.886  14.855  0.1358  1.5368  0.5682
 8327TIP3    H246397   4.470   3.770  14.949 -1.7514 -1.3677 -2.3562
 8328TIP3   OH246398   3.497   4.440  11.434  0.2384 -0.8460  0.0236
 8328TIP3    H146399   3.478   4.453  11.527  1.4056  0.4374  0.0961
 8328TIP3    H246400   3.441   4.503  11.389 -0.1368 -1.2917 -0.1463
 8329TIP3   OH246401   0.079   6.152   3.152 -0.3219  0.4296  0.2479
 8329TIP3    H146402   0.087   6.058   3.136 -0.0264  0.6478 -1.0059
 8329TIP3    H246403  -0.004   6.177   3.111  0.3168  0.9633 -0.7523
 8330TIP3   OH246404   4.229   5.784   0.695 -0.3231 -0.1672  0.4415
 8330TIP3    H146405   4.190   5.861   0.735  2.1771  0.9424  0.9461
 8330TIP3    H246406   4.318   5.781   0.730 -0.2496 -3.1991  0.2895
 8331TIP3   OH246407   6.478   1.291   6.005  0.1820  0.2696 -0.0027
 8331TIP3    H146408   6.534   1.366   6.025 -1.3904  1.4021  0.3124
 8331TIP3    H246409   6.434   1.314   5.923  0.1640 -0.6084 -0.2547
 8332TIP3   OH246410   0.422   6.195  17.143  0.4655  0.2021 -0.8667
 8332TIP3    H146411   0.396   6.123  17.085  1.1733 -0.6404 -0.1626
 8332TIP3    H246412   0.353   6.261  17.131 -1.8030 -1.7614  0.6051
 8333TIP3   OH246413   2.057   4.233  12.552  0.5704  0.4746 -0.5952
 8333TIP3    H146414   1.987   4.234  12.487  1.9834  0.1247 -2.2055
 8333TIP3    H246415   2.090   4.143  12.550  0.4850  0.3887  0.8333
 8334TIP3   OH246416   2.860   5.148   4.369  0.1433  0.2612 -0.2491
 8334TIP3    H146417   2.799   5.101   4.426  0.3421  0.0908 -0.1744
 8334TIP3    H246418   2.813   5.228   4.345 -0.8426 -0.7045 -1.6696
 8335TIP3   OH246419   2.036   6.486   2.188  0.1517 -0.1298 -0.1166
 8335TIP3    H146420   2.004   6.452   2.104  1.7670  1.1957 -1.3512
 8335TIP3    H246421   1.968   6.546   2.216  0.6332  1.3285 -1.8215
 8336TIP3   OH246422   6.015   6.175   1.731  0.5360 -0.1352 -0.5614
 8336TIP3    H146423   6.068   6.096   1.740  1.9231  0.8298  0.2671
 8336TIP3    H246424   6.075   6.247   1.753 -0.8619  1.1013 -0.5801
 8337TIP3   OH246425   2.665   2.781  13.132 -0.3856  0.1215  0.5913
 8337TIP3    H146426   2.617   2.864  13.131  0.7004  0.7700 -0.3051
 8337TIP3    H246427   2.738   2.797  13.193  0.1399  0.0263 -0.0065
 8338TIP3   OH246428   1.844   4.804  15.872 -0.0508  0.5122 -0.5673
 8338TIP3    H146429   1.912   4.736  15.866  1.4012  1.8461 -0.1126
 8338TIP3    H246430   1.767   4.765  15.831  0.6239 -1.5158 -0.0186
 8339TIP3   OH246431   2.596   0.085  12.050  0.1090  0.1918  0.2647
 8339TIP3    H146432   2.535   0.158  12.051 -2.4554 -1.7660  1.4946
 8339TIP3    H246433   2.614   0.069  11.957  1.4346  2.7906 -0.0094
 8340TIP3   OH246434   0.824   1.712  13.372 -0.2067  0.2660  0.4379
 8340TIP3    H146435   0.767   1.775  13.417  0.9987  1.2151  0.6821
 8340TIP3    H246436   0.788   1.707  13.283 -0.3696  1.2547  0.4337
 8341TIP3   OH246437   3.239   5.196  11.768  0.4254 -0.1820  0.7700
 8341TIP3    H146438   3.253   5.135  11.696  1.2638 -1.2714  1.8059
 8341TIP3    H246439   3.187   5.267  11.730 -0.0532 -1.2304 -0.6277
 8342TIP3   OH246440   2.770   5.853  12.502  0.8107 -0.5046  0.1944
 8342TIP3    H146441   2.760   5.929  12.559 -0.8599  0.3680 -1.1799
 8342TIP3    H246442   2.755   5.778  12.560  0.1957  0.3130  1.1271
 8343TIP3   OH246443   4.109   4.039  16.060  0.1563 -0.2862 -0.1517
 8343TIP3    H146444   4.067   4.110  16.108  0.2380 -0.5653  0.3411
 8343TIP3    H246445   4.177   4.008  16.119  1.1919  0.2782 -0.9971
 8344TIP3   OH246446   4.103   6.163  14.078 -0.5035  0.2884  0.0430
 8344TIP3    H146447   4.186   6.120  14.102 -2.0642 -2.1135  1.6287
 8344TIP3    H246448   4.093   6.232  14.144  0.4025  0.8861 -0.4192
 8345TIP3   OH246449   0.869   4.495   1.281 -0.0715  0.7938 -0.0114
 8345TIP3    H146450   0.823   4.558   1.336 -1.8126 -2.6251  2.9077
 8345TIP3    H246451   0.942   4.466   1.335 -0.8202 -1.4536 -0.1055
 8346TIP3   OH246452   0.136   3.989   3.662 -0.0558  0.7308 -0.0740
 8346TIP3    H146453   0.119   4.072   3.617 -0.9746  1.5062  1.6180
 8346TIP3    H246454   0.203   4.012   3.727 -0.1779  0.1026  0.2731
 8347TIP3   OH246455   1.438   0.270  14.123  0.2989 -0.0914  0.2499
 8347TIP3    H146456   1.367   0.310  14.073 -0.6785 -0.8271  1.0031
 8347TIP3    H246457   1.398   0.193  14.164  0.8386  0.8474  2.7142
 8348TIP3   OH246458   4.956   1.763  16.373 -0.3836  0.0793  0.3379
 8348TIP3    H146459   4.966   1.672  16.347 -0.4211 -0.1613  1.1444
 8348TIP3    H246460   4.862   1.776  16.383 -0.5068  0.6549 -1.3033
 8349TIP3   OH246461   0.466   0.156   1.699  0.1791 -0.2253  0.2409
 8349TIP3    H146462   0.522   0.233   1.702  0.9875 -0.8373  1.6034
 8349TIP3    H246463   0.487   0.113   1.616  1.0853  0.0292  0.3354
 8350TIP3   OH246464   1.961   0.436  16.978  0.7680 -0.5387 -0.1151
 8350TIP3    H146465   2.023   0.470  16.913  1.3305 -1.4900 -0.1077
 8350TIP3    H246466   2.014   0.375  17.031  0.5438  0.8523  1.7954
 8351TIP3   OH246467   6.107   1.528   2.630 -0.1521 -0.4587  0.1226
 8351TIP3    H146468   6.029   1.579   2.610  0.5427  0.5449 -0.1222
 8351TIP3    H246469   6.081   1.472   2.704 -0.5804  1.2130  1.2993
 8352TIP3   OH246470   4.391   3.087   4.127  0.5466  0.1042 -0.0519
 8352TIP3    H146471   4.322   3.153   4.135  1.3447  0.7344  2.9208
 8352TIP3    H246472   4.453   3.109   4.197  2.3736 -2.0508 -0.8810
 8353TIP3   OH246473   2.268   3.789  14.285  0.0259  0.0841  0.5083
 8353TIP3    H146474   2.336   3.844  14.324 -1.1228  2.0133 -0.0327
 8353TIP3    H246475   2.306   3.761  14.202  0.5785  0.2155  0.7082
 8354TIP3   OH246476   0.240   3.524   1.116 -0.3620  0.6587  0.1103
 8354TIP3    H146477   0.307   3.460   1.139 -1.2312 -0.5278 -0.5974
 8354TIP3    H246478   0.270   3.606   1.157  1.2297  0.0313  0.2468
 8355TIP3   OH246479   3.546   4.324  13.314 -0.5618  0.2624  0.0474
 8355TIP3    H146480   3.595   4.387  13.367 -1.3017  0.9942 -0.1016
 8355TIP3    H246481   3.482   4.287  13.375 -0.3746 -0.0655  0.0435
 8356TIP3   OH246482   2.127   2.498   0.276  0.5531 -0.1559 -0.5123
 8356TIP3    H146483   2.037   2.471   0.256  0.2028  0.4615  0.1846
 8356TIP3    H246484   2.182   2.436   0.228 -0.2432 -0.7599 -0.6601
 8357TIP3   OH246485   4.531   0.796  13.142  0.1423 -0.2790 -0.7663
 8357TIP3    H146486   4.579   0.818  13.222 -1.4862  0.9011 -0.0776
 8357TIP3    H246487   4.595   0.811  13.071  0.1997  3.5496 -0.0856
 8358TIP3   OH246488   5.560   2.395  15.311  0.1119 -0.4414 -0.0307
 8358TIP3    H146489   5.632   2.409  15.249 -0.8352 -1.2050 -1.3429
 8358TIP3    H246490   5.596   2.423  15.395  1.1949  1.3439 -1.0218
 8359TIP3   OH246491   0.138   0.209   0.562 -0.1732 -0.0547 -0.1685
 8359TIP3    H146492   0.221   0.207   0.515 -0.0825  2.0442 -0.2000
 8359TIP3    H246493   0.132   0.123   0.604  0.5958 -1.3255 -2.5112
 8360TIP3   OH246494   4.348   1.132   1.610  0.6700  0.1353 -0.4611
 8360TIP3    H146495   4.354   1.179   1.526  0.0833  1.4544  0.2072
 8360TIP3    H246496   4.392   1.048   1.593  1.4463  0.7698 -1.8027
 8361TIP3   OH246497   2.303   1.793   2.687 -0.0680 -0.1145  0.5366
 8361TIP3    H146498   2.398   1.796   2.699 -0.0887  2.8224  0.8300
 8361TIP3    H246499   2.270   1.745   2.763  0.9669  2.7960  3.0350
 8362TIP3   OH246500   3.303   2.207  14.230 -0.4285  0.1089 -0.4109
 8362TIP3    H146501   3.264   2.187  14.144 -1.7230  1.3966 -0.1667
 8362TIP3    H246502   3.373   2.269  14.210 -0.9284  0.6457 -0.5196
 8363TIP3   OH246503   6.321   6.047   4.921  0.0349 -0.4732 -0.5554
 8363TIP3    H146504   6.245   6.060   4.978  1.2349 -2.3393  1.5660
 8363TIP3    H246505   6.385   6.111   4.952  0.0154 -0.1538 -1.1512
 8364TIP3   OH246506   5.127   3.360   3.258  0.4717 -0.6301  0.1001
 8364TIP3    H146507   5.194   3.426   3.273  0.3340  0.1185 -2.1366
 8364TIP3    H246508   5.173   3.290   3.210  0.2723 -1.4535  1.0827
 8365TIP3   OH246509   3.156   4.417   3.465  0.3278 -0.7523  0.2055
 8365TIP3    H146510   3.195   4.447   3.383  0.6710 -0.6711  0.3940
 8365TIP3    H246511   3.154   4.322   3.457 -1.0424 -0.6847 -0.5182
 8366TIP3   OH246512   0.230   0.217   1.843 -0.8101 -0.1758 -0.3379
 8366TIP3    H146513   0.220   0.312   1.853  0.9502  0.0295 -0.3566
 8366TIP3    H246514   0.309   0.207   1.791 -0.3363 -1.6980  0.6494
 8367TIP3   OH246515   0.420   3.148  13.055 -0.0490  0.2143  0.1155
 8367TIP3    H146516   0.359   3.088  13.012  0.1056  0.7800 -0.9284
 8367TIP3    H246517   0.395   3.235  13.025  1.2469  0.4643 -0.3291
 8368TIP3   OH246518   4.446   3.340   2.872 -0.3217 -0.5209 -0.4529
 8368TIP3    H146519   4.495   3.261   2.850 -0.4636 -1.7939  3.1636
 8368TIP3    H246520   4.370   3.309   2.921  0.6203  1.8120  2.8503
 8369TIP3   OH246521   5.491   0.879  14.371  0.3165 -0.3238 -0.2886
 8369TIP3    H146522   5.475   0.851  14.280  0.6354 -2.8988  0.3602
 8369TIP3    H246523   5.584   0.898  14.374  0.1381  0.6830 -0.6902
 8370TIP3   OH246524   5.495   4.809  15.434 -0.3160  0.3119  0.4066
 8370TIP3    H146525   5.557   4.820  15.361 -0.2959  1.1773  0.5457
 8370TIP3    H246526   5.424   4.870  15.414 -1.2265 -0.7846  0.1671
 8371TIP3   OH246527   6.288   2.719  14.989 -0.0219 -0.1189  0.1047
 8371TIP3    H146528   6.236   2.753  15.062  1.2493  0.2824  0.8547
 8371TIP3    H246529   6.224   2.694  14.923 -1.1682  0.1171  1.1073
 8372TIP3   OH246530   0.700   3.929   5.917  0.2900 -0.5837 -0.0222
 8372TIP3    H146531   0.654   4.011   5.897  0.0604 -1.0999 -1.7487
 8372TIP3    H246532   0.767   3.954   5.980 -1.2994  0.4932  1.3198
 8373TIP3   OH246533   5.560   4.044  12.580  0.5359 -0.6139  0.3283
 8373TIP3    H146534   5.634   3.986  12.598  0.9850 -0.6239 -1.3830
 8373TIP3    H246535   5.530   4.019  12.493  0.4639  1.4205 -0.2889
 8374TIP3   OH246536   2.073   6.452   5.624 -0.5745 -0.6332 -0.2477
 8374TIP3    H146537   2.068   6.463   5.719  1.1624  1.2615 -0.3168
 8374TIP3    H246538   2.153   6.403   5.609 -0.5121 -0.3856 -0.7606
 8375TIP3   OH246539   5.174   2.397   3.839  0.0684 -0.2922 -0.1449
 8375TIP3    H146540   5.082   2.385   3.814 -0.1368 -1.0188  0.9225
 8375TIP3    H246541   5.223   2.364   3.763 -0.5105  2.0447 -1.6257
 8376TIP3   OH246542   1.626   4.193   2.904  0.4318  0.4438  0.0710
 8376TIP3    H146543   1.719   4.175   2.916  0.2999 -0.1624  0.1676
 8376TIP3    H246544   1.581   4.136   2.965 -0.1663 -1.7292 -2.2354
 8377TIP3   OH246545   5.851   3.375   5.079  0.0399 -0.4568  0.1917
 8377TIP3    H146546   5.918   3.426   5.034 -0.6387  1.3030  1.1128
 8377TIP3    H246547   5.771   3.390   5.028 -0.3757  0.2340  1.0237
 8378TIP3   OH246548   4.452   1.456   6.065  0.3315  0.1277 -0.0572
 8378TIP3    H146549   4.455   1.402   5.985  2.1431  2.6017 -1.8109
 8378TIP3    H246550   4.372   1.508   6.055 -0.1826 -0.5364  0.4853
 8379TIP3   OH246551   3.256   1.851   0.883  0.0419 -0.2036 -0.0505
 8379TIP3    H146552   3.240   1.855   0.977  1.6502 -1.8041  0.3514
 8379TIP3    H246553   3.265   1.943   0.856 -1.1819  0.3090  1.1874
 8380TIP3   OH246554   0.465   0.143  11.044 -0.7645 -0.1461  0.2569
 8380TIP3    H146555   0.426   0.145  11.132  1.9781 -0.6694  1.5762
 8380TIP3    H246556   0.437   0.059  11.008 -0.1524 -0.9358  1.5387
 8381TIP3   OH246557   5.213   0.200   2.708  0.5039 -0.5964  0.3183
 8381TIP3    H146558   5.241   0.204   2.799 -0.3659 -0.8605  0.6072
 8381TIP3    H246559   5.190   0.290   2.685  1.3858 -0.4072  0.1307
 8382TIP3   OH246560   0.612   3.746  15.800  0.1214 -0.1311 -0.0323
 8382TIP3    H146561   0.562   3.793  15.733 -0.3542 -2.7043 -1.5838
 8382TIP3    H246562   0.693   3.721  15.757  1.3357  0.9998  1.4391
 8383TIP3   OH246563   5.219   0.143   3.758  0.4963 -0.4471  0.0240
 8383TIP3    H146564   5.273   0.208   3.804 -0.5532  0.8973 -0.5579
 8383TIP3    H246565   5.229   0.166   3.666 -0.1090 -0.9592 -0.1697
 8384TIP3   OH246566   1.852   4.995  11.473 -0.4858  0.4795 -0.3415
 8384TIP3    H146567   1.944   5.004  11.449 -0.9345  0.6177 -2.1987
 8384TIP3    H246568   1.825   4.911  11.434 -1.4248  1.0223 -0.9223
 8385TIP3   OH246569   4.043   4.115  16.747  0.3404 -0.0425 -0.6158
 8385TIP3    H146570   4.066   4.094  16.838  3.1027  0.0921 -1.1944
 8385TIP3    H246571   4.061   4.034  16.699 -1.9933 -0.4118 -0.9755
 8386TIP3   OH246572   3.070   5.313  14.402  0.6041 -0.2391  0.5020
 8386TIP3    H146573   3.153   5.317  14.451  1.2357  2.9871 -0.5693
 8386TIP3    H246574   3.095   5.329  14.311 -1.0242 -1.4335 -0.1944
 8387TIP3   OH246575   3.720   3.031  14.381 -0.6378  0.0307 -0.4675
 8387TIP3    H146576   3.661   3.076  14.443  1.4063  1.0145  0.8628
 8387TIP3    H246577   3.739   2.947  14.424 -0.2561  0.1511 -0.4032
 8388TIP3   OH246578   4.377   0.373  14.031  0.4971  1.0044 -0.3878
 8388TIP3    H146579   4.327   0.439  14.081  1.7724  1.0039  0.9515
 8388TIP3    H246580   4.460   0.366  14.078  1.3480  0.2301 -1.9643
 8389TIP3   OH246581   0.940   2.464  14.827 -0.0954 -0.1221 -0.4305
 8389TIP3    H146582   0.934   2.436  14.736  1.3417 -2.3164  0.0560
 8389TIP3    H246583   0.968   2.556  14.823  1.1256 -0.5150 -2.2319
 8390TIP3   OH246584   3.375   0.612   0.027 -0.1944  0.4931 -0.5319
 8390TIP3    H146585   3.307   0.559  -0.014 -0.6138  0.8260 -0.2723
 8390TIP3    H246586   3.451   0.601  -0.030  0.0213 -1.1277  0.0324
 8391TIP3   OH246587   2.549   4.383  13.388  0.2570 -0.3926  0.2585
 8391TIP3    H146588   2.593   4.324  13.327  0.3099  0.3579 -0.4646
 8391TIP3    H246589   2.568   4.471  13.353 -0.6915 -0.0009  0.7027
 8392TIP3   OH246590   5.975   2.548   4.817 -0.1063  0.2667  0.1070
 8392TIP3    H146591   5.890   2.571   4.855 -1.2323  0.8103 -2.5153
 8392TIP3    H246592   5.992   2.459   4.848 -0.5997  0.8968  2.3196
 8393TIP3   OH246593   3.698   3.340   0.898 -0.0321  0.4034  0.0961
 8393TIP3    H146594   3.676   3.309   0.811  0.8034  0.2535 -0.0682
 8393TIP3    H246595   3.634   3.297   0.956 -0.6022  0.5247 -0.4317
 8394TIP3   OH246596   1.677   2.059  12.707 -0.0873 -0.3505 -0.0488
 8394TIP3    H146597   1.661   1.993  12.641  1.6246 -1.1502  0.2793
 8394TIP3    H246598   1.765   2.094  12.687  0.6401 -0.8715  1.9412
 8395TIP3   OH246599   4.014   5.749   5.484 -0.0082 -0.0896  0.9690
 8395TIP3    H146600   3.959   5.821   5.515  1.7279  0.7439  2.2179
 8395TIP3    H246601   4.053   5.712   5.563  0.6094 -1.1876  0.1781
 8396TIP3   OH246602   2.973   0.705  15.213  0.5207 -0.1003  0.0158
 8396TIP3    H146603   3.017   0.782  15.249  1.8923  0.3602 -2.4425
 8396TIP3    H246604   2.886   0.707  15.251  0.6817  2.3895  0.4203
 8397TIP3   OH246605   2.638   3.430  11.351  0.3414 -0.0708  0.7944
 8397TIP3    H146606   2.610   3.365  11.286 -0.9816  2.3149 -1.2031
 8397TIP3    H246607   2.585   3.411  11.429  0.0681 -1.4418  0.2954
 8398TIP3   OH246608   2.116   6.357  13.581  0.0366 -0.2301 -0.0187
 8398TIP3    H146609   2.174   6.291  13.544  0.7464 -0.1210  0.8456
 8398TIP3    H246610   2.030   6.337  13.546  0.6779 -0.0893 -1.7425
 8399TIP3   OH246611   6.285   0.941   4.928 -0.1959  0.3733  0.3622
 8399TIP3    H146612   6.349   1.012   4.920 -0.7204  0.8507  0.3960
 8399TIP3    H246613   6.335   0.869   4.968  0.2008  0.9015  0.8375
 8400TIP3   OH246614   5.379   6.677   2.146  0.1020 -0.0113 -0.9033
 8400TIP3    H146615   5.433   6.740   2.097 -0.2646  0.9943 -0.0714
 8400TIP3    H246616   5.363   6.721   2.230 -4.5929  1.2118 -2.1377
 8401TIP3   OH246617   5.144   3.342   4.095 -0.5708  0.6592  0.6694
 8401TIP3    H146618   5.082   3.270   4.082 -1.1344  1.1887  0.3455
 8401TIP3    H246619   5.091   3.413   4.131 -0.1604  1.1309  0.3628
 8402TIP3   OH246620   3.733   2.949   5.603 -0.2122 -0.2781 -0.0075
 8402TIP3    H146621   3.777   2.926   5.521  0.3907 -0.0572  0.2437
 8402TIP3    H246622   3.757   2.878   5.663 -1.8976 -1.2515 -0.4284
 8403TIP3   OH246623   2.776   6.440   4.567  0.1317  0.3039 -0.1242
 8403TIP3    H146624   2.758   6.505   4.636  0.5361 -1.4867  1.7718
 8403TIP3    H246625   2.871   6.437   4.560  0.4607 -2.8742  2.8582
 8404TIP3   OH246626   6.160   4.894   4.059 -0.6333 -0.3298 -0.3245
 8404TIP3    H146627   6.236   4.911   4.115 -0.3198  0.3077 -0.9343
 8404TIP3    H246628   6.181   4.813   4.013 -1.0849 -1.1093  0.7881
 8405TIP3   OH246629   1.034   1.544  10.998 -0.3647 -0.9023 -0.0375
 8405TIP3    H146630   1.112   1.492  11.015 -0.9728 -1.2526  1.9420
 8405TIP3    H246631   1.068   1.629  10.970  0.8757 -0.3421  2.8099
 8406TIP3   OH246632   4.280   4.700  15.207  0.1515 -0.0945  0.3931
 8406TIP3    H146633   4.200   4.701  15.260  1.2590  1.1472  2.1392
 8406TIP3    H246634   4.295   4.607  15.189 -0.9305 -0.4605  1.2507
 8407TIP3   OH246635   6.395   3.965   2.030 -0.2275  0.7181  0.0378
 8407TIP3    H146636   6.303   3.979   2.007 -0.0258 -0.1395 -1.4346
 8407TIP3    H246637   6.406   4.009   2.114 -1.5029  2.4381 -0.6528
 8408TIP3   OH246638   3.736   1.776   5.864  0.2425 -0.0892  0.1148
 8408TIP3    H146639   3.703   1.840   5.927  2.4592  3.8292 -2.2190
 8408TIP3    H246640   3.818   1.745   5.902 -0.1247 -0.4315  0.6351
 8409TIP3   OH246641   1.159   5.512   1.748  0.4911 -0.4060 -0.1985
 8409TIP3    H146642   1.231   5.471   1.797  1.5877 -0.6176 -1.9006
 8409TIP3    H246643   1.199   5.539   1.665 -0.6586  2.3211  0.0187
 8410TIP3   OH246644   6.725   3.827  12.697  0.0559  0.7871 -0.7771
 8410TIP3    H146645   6.800   3.769  12.685 -1.5131 -1.4422 -0.5096
 8410TIP3    H246646   6.666   3.806  12.625 -0.4193  2.3630 -0.8843
 8411TIP3   OH246647   2.792   1.953   1.450 -0.0960  0.2854  0.1472
 8411TIP3    H146648   2.779   1.959   1.545 -0.2784 -3.2627  0.4946
 8411TIP3    H246649   2.704   1.959   1.413 -0.4262 -1.5192  0.5479
 8412TIP3   OH246650   0.592   2.539  15.063 -0.4074 -0.3541 -0.3695
 8412TIP3    H146651   0.500   2.531  15.039 -0.2427 -1.1854 -0.7648
 8412TIP3    H246652   0.635   2.466  15.019  0.0401 -1.4693  1.7576
 8413TIP3   OH246653   4.333   3.872   0.874 -0.5845 -0.0683 -0.0863
 8413TIP3    H146654   4.362   3.903   0.788 -1.6699  1.0368 -0.0877
 8413TIP3    H246655   4.390   3.797   0.893  0.1952  0.1498 -1.4073
 8414TIP3   OH246656   0.441   1.119  14.364  0.7164  0.7962 -0.2921
 8414TIP3    H146657   0.403   1.061  14.298  0.0205  0.5096  0.3504
 8414TIP3    H246658   0.370   1.136  14.425  1.4837  0.6535  0.6717
 8415TIP3   OH246659   5.751   2.836   5.462 -0.5854 -0.2615 -0.0320
 8415TIP3    H146660   5.813   2.823   5.534 -1.7267 -0.0331  1.0225
 8415TIP3    H246661   5.785   2.913   5.416  0.5082 -0.7817 -0.1385
 8416TIP3   OH246662   4.576   1.239   0.446 -0.1833 -0.0540  0.2874
 8416TIP3    H146663   4.580   1.232   0.541 -0.7220  0.0399  0.3203
 8416TIP3    H246664   4.651   1.295   0.423 -0.2025  0.1358  0.6777
 8417TIP3   OH246665   4.020   6.363   2.389  0.0127 -0.1363 -0.4452
 8417TIP3    H146666   3.993   6.426   2.456  1.2577  1.4082 -1.3485
 8417TIP3    H246667   3.939   6.317   2.367 -0.9448  1.1663  0.2070
 8418TIP3   OH246668   4.186   5.911   4.733 -0.4886  0.5300 -0.7042
 8418TIP3    H146669   4.237   5.840   4.694  1.2946  1.8976 -1.0045
 8418TIP3    H246670   4.129   5.868   4.796  2.6933 -0.9657  1.4269
 8419TIP3   OH246671   1.586   3.083  14.034 -0.4403 -0.8775 -0.0985
 8419TIP3    H146672   1.570   3.085  13.940 -0.1184 -2.2108 -0.2007
 8419TIP3    H246673   1.567   3.172  14.064  0.5797 -0.1167 -1.6030
 8420TIP3   OH246674   1.978   1.452   0.855  0.6025  0.0845  0.4859
 8420TIP3    H146675   1.972   1.388   0.925 -1.3104 -0.9547 -0.5666
 8420TIP3    H246676   1.903   1.434   0.798 -0.5432  3.7581  0.5435
 8421TIP3   OH246677   2.540   5.691   3.338  0.5054 -0.0927 -0.1566
 8421TIP3    H146678   2.497   5.727   3.260 -1.7621 -0.3816  0.8861
 8421TIP3    H246679   2.605   5.757   3.362  0.5061  0.4892 -1.6532
 8422TIP3   OH246680   3.324   4.643  15.124 -0.0991 -0.1754 -0.2221
 8422TIP3    H146681   3.325   4.570  15.187  1.7100  0.1880  0.2411
 8422TIP3    H246682   3.334   4.721  15.178  0.9486  0.1786 -0.8976
 8423TIP3   OH246683   4.446   6.042   0.746 -0.1763  0.2543  0.1113
 8423TIP3    H146684   4.503   6.038   0.670 -0.4716 -1.9689 -0.0739
 8423TIP3    H246685   4.504   6.059   0.820  0.6077 -0.8711 -0.2179
 8424TIP3   OH246686   6.538   6.427  16.013 -0.4219 -0.3348 -0.0466
 8424TIP3    H146687   6.534   6.518  15.984 -2.2002 -0.7241 -1.1562
 8424TIP3    H246688   6.458   6.414  16.063 -0.1622 -1.2895  0.1414
 8425TIP3   OH246689   2.377   1.067   5.678 -0.0921  0.0917  0.0388
 8425TIP3    H146690   2.433   1.141   5.654 -0.3184  0.3459  0.2936
 8425TIP3    H246691   2.335   1.042   5.596  0.7876 -0.4386 -0.2626
 8426TIP3   OH246692   1.907   5.128  15.324  0.2615  0.3716 -0.1996
 8426TIP3    H146693   1.919   5.222  15.311  0.3942  0.1696 -1.8150
 8426TIP3    H246694   1.813   5.116  15.330  0.0930  0.4305 -2.0169
 8427TIP3   OH246695   1.008   1.143  15.865 -0.0110  0.4052  0.8646
 8427TIP3    H146696   1.091   1.120  15.822 -0.6044  0.4747 -0.3450
 8427TIP3    H246697   0.979   1.062  15.906 -1.7227 -1.0164 -2.7581
 8428TIP3   OH246698   6.579   2.492   6.009  0.1504  0.3612 -0.2461
 8428TIP3    H146699   6.575   2.403   5.974  1.7563  0.1589  0.0111
 8428TIP3    H246700   6.568   2.548   5.932 -1.0177 -0.0419 -0.3869
 8429TIP3   OH246701   6.167   2.123   3.607  0.9412  0.5209 -0.0425
 8429TIP3    H146702   6.171   2.090   3.697  1.0517  0.8590  0.0776
 8429TIP3    H246703   6.253   2.102   3.570  0.9822  0.5999  0.0078
 8430TIP3   OH246704   1.110   6.585  12.675  0.0924 -0.4311  0.2670
 8430TIP3    H146705   1.198   6.550  12.664  1.1388  2.2557 -0.6746
 8430TIP3    H246706   1.123   6.671  12.714 -2.0604  0.2818 -0.4357
 8431TIP3   OH246707   0.172   5.140  12.209 -0.0751  0.2944 -0.4041
 8431TIP3    H146708   0.175   5.108  12.299 -1.2237 -0.5054 -0.6268
 8431TIP3    H246709   0.139   5.230  12.216 -1.6536 -0.2699 -0.1049
 8432TIP3   OH246710   3.707   2.424   3.212  0.0108 -0.2744  0.9849
 8432TIP3    H146711   3.676   2.507   3.250  0.3825  0.1518  0.3747
 8432TIP3    H246712   3.705   2.362   3.285 -0.5466  0.2000  1.3799
 8433TIP3   OH246713   0.507   0.838   5.314 -0.0207  0.0452 -0.2583
 8433TIP3    H146714   0.557   0.865   5.237  1.0764 -0.5712  0.2111
 8433TIP3    H246715   0.560   0.867   5.388 -0.2530 -0.8029  0.2536
 8434TIP3   OH246716   5.230   2.430  15.086 -0.4571  0.2314 -0.0985
 8434TIP3    H146717   5.201   2.344  15.115 -0.0146  0.0417 -0.2039
 8434TIP3    H246718   5.217   2.429  14.991 -2.6289  1.1269  0.1178
 8435TIP3   OH246719   0.294   2.675   5.556  0.4005  0.2764 -0.3531
 8435TIP3    H146720   0.304   2.770   5.560 -0.5576  0.4651 -1.6131
 8435TIP3    H246721   0.360   2.647   5.491 -1.1870  0.4684 -2.1313
 8436TIP3   OH246722   3.980   4.952   4.000  0.0539 -0.7284 -0.0056
 8436TIP3    H146723   3.971   5.002   4.081 -0.3011 -2.8564  1.3589
 8436TIP3    H246724   4.068   4.915   4.004  0.6248  0.4259 -1.4022
 8437TIP3   OH246725   5.156   5.123  17.402 -0.1817  0.1153  0.2557
 8437TIP3    H146726   5.140   5.040  17.448 -0.6889  0.3240  0.4732
 8437TIP3    H246727   5.095   5.121  17.328  1.5087 -0.7801 -1.1737
 8438TIP3   OH246728   5.512   1.577  14.598  0.0312 -0.3877 -0.5616
 8438TIP3    H146729   5.549   1.614  14.679  0.5676 -0.3249 -0.8337
 8438TIP3    H246730   5.475   1.493  14.626  0.3742 -0.4491 -0.2824
 8439TIP3   OH246731   2.064   5.859  16.514  0.0441  0.0409  0.3409
 8439TIP3    H146732   2.069   5.927  16.581 -2.7338  2.1892 -1.4231
 8439TIP3    H246733   2.117   5.893  16.442 -0.9456  0.1110 -0.3682
 8440TIP3   OH246734   2.728   4.464  16.366  0.1693  0.3877  0.0277
 8440TIP3    H146735   2.733   4.370  16.388 -1.7339  0.4020  0.7239
 8440TIP3    H246736   2.634   4.481  16.358  0.4937  2.2530 -0.0976
 8441TIP3   OH246737   1.837   5.909   0.054 -0.8782 -0.2285 -0.1732
 8441TIP3    H146738   1.806   5.999   0.063  1.0903  0.6229 -1.3698
 8441TIP3    H246739   1.931   5.914   0.071 -0.6863 -2.0191 -0.5164
 8442TIP3   OH246740   3.183   6.724  14.122  0.2221 -0.3488 -0.4541
 8442TIP3    H146741   3.137   6.676  14.191 -0.0795  1.3358  0.5794
 8442TIP3    H246742   3.274   6.727  14.152  0.4181 -1.0256 -0.9643
 8443TIP3   OH246743   3.066   3.747   5.601 -0.0865 -0.1554  0.8068
 8443TIP3    H146744   3.016   3.795   5.666 -0.0194 -0.8132  1.3583
 8443TIP3    H246745   3.007   3.741   5.525  0.1824  1.4213  0.4336
 8444TIP3   OH246746   1.795   1.708  13.382 -0.5664 -0.0608 -0.1276
 8444TIP3    H146747   1.844   1.660  13.450  0.3046  0.6828 -0.2176
 8444TIP3    H246748   1.850   1.783  13.361 -0.6307 -0.4776 -1.9437
 8445TIP3   OH246749   0.875   3.029   4.702 -0.5266  0.0485  0.1345
 8445TIP3    H146750   0.900   3.065   4.787  0.5911 -1.1953  0.3631
 8445TIP3    H246751   0.912   3.091   4.638  1.7310 -0.8200  0.5074
 8446TIP3   OH246752   0.990   0.321  12.974  0.5020 -0.9108 -0.3806
 8446TIP3    H146753   0.983   0.388  13.043  2.3623 -0.2194 -0.7794
 8446TIP3    H246754   1.056   0.356  12.915 -1.5245 -1.1647 -2.9367
 8447TIP3   OH246755   3.283   6.375   0.533  0.2684  0.2537 -0.0025
 8447TIP3    H146756   3.260   6.287   0.504  2.3013 -0.4220  0.3144
 8447TIP3    H246757   3.325   6.362   0.618  1.8402  1.3874 -0.5669
 8448TIP3   OH246758   5.158   0.147  12.835 -0.1538 -0.5949  0.3815
 8448TIP3    H146759   5.201   0.177  12.755  2.1169 -1.2107  1.2767
 8448TIP3    H246760   5.143   0.053  12.821 -3.1106 -0.0666 -0.6594
 8449TIP3   OH246761   1.684   2.015   5.103  0.2199  0.6903 -0.4390
 8449TIP3    H146762   1.629   2.046   5.031 -0.3345 -0.9815 -0.7752
 8449TIP3    H246763   1.715   1.929   5.074  1.3338  0.7005  0.6317
 8450TIP3   OH246764   6.474   2.460  14.738  0.3393  0.4544  0.2991
 8450TIP3    H146765   6.552   2.515  14.747 -0.9372  2.6112 -0.9809
 8450TIP3    H246766   6.428   2.496  14.662 -0.9911 -1.9533 -0.1507
 8451TIP3   OH246767   6.043   5.819   4.033  0.0434 -0.2330  0.6708
 8451TIP3    H146768   6.122   5.787   3.988 -0.3663 -1.8414  1.0296
 8451TIP3    H246769   5.972   5.770   3.993 -0.5197 -0.4449  1.8937
 8452TIP3   OH246770   2.136   0.422   2.662 -0.0427 -0.1095 -0.3981
 8452TIP3    H146771   2.132   0.436   2.757  0.4688 -0.4748 -0.3185
 8452TIP3    H246772   2.096   0.336   2.649 -1.8731  0.7301 -0.7339
 8453TIP3   OH246773   1.353   0.591   5.350 -0.4348 -0.1416  0.5573
 8453TIP3    H146774   1.319   0.527   5.286  0.6494  2.0994 -2.4798
 8453TIP3    H246775   1.447   0.577   5.350  0.0464  2.4056 -1.4856
 8454TIP3   OH246776   1.373   5.178   3.870  0.5168  0.3936  0.0119
 8454TIP3    H146777   1.305   5.179   3.803 -0.6695  0.0992  1.1673
 8454TIP3    H246778   1.390   5.085   3.886  1.0567  0.4645 -0.1425
 8455TIP3   OH246779   5.580   0.464  10.429  1.0808  0.1599  0.3850
 8455TIP3    H146780   5.514   0.416  10.379  0.1460  0.4351  1.3200
 8455TIP3    H246781   5.639   0.396  10.462  0.8619 -0.1600  0.1247
 8456TIP3   OH246782   3.722   5.691   0.887 -0.3367  0.7745 -0.7133
 8456TIP3    H146783   3.628   5.677   0.899  0.0145 -1.5892 -0.2784
 8456TIP3    H246784   3.761   5.603   0.891  1.8655  1.6488 -1.2135
 8457TIP3   OH246785   4.388   4.420  14.276 -0.4472 -0.6468  0.0600
 8457TIP3    H146786   4.426   4.396  14.191 -1.6629  0.4270 -0.8148
 8457TIP3    H246787   4.410   4.512  14.286  0.6376 -1.0173  1.4688
 8458TIP3   OH246788   1.576   2.103  15.634 -0.1493  0.6708  0.2162
 8458TIP3    H146789   1.652   2.091  15.690 -0.9425  0.5580  1.3003
 8458TIP3    H246790   1.575   2.197  15.614 -0.6581  0.9700  1.5835
 8459TIP3   OH246791   5.913   4.257  12.010 -0.1630 -0.0891 -0.1402
 8459TIP3    H146792   5.947   4.211  12.086  0.6037 -0.8576 -0.9236
 8459TIP3    H246793   5.818   4.253  12.019 -0.1383 -2.2541 -0.4163
 8460TIP3   OH246794   1.215   0.193  13.947  1.2187 -1.0045  0.2294
 8460TIP3    H146795   1.281   0.142  13.899  1.9078  0.7815 -0.8454
 8460TIP3    H246796   1.131   0.165  13.911  1.6841 -0.2308 -1.5907
 8461TIP3   OH246797   1.169   5.833   0.389 -0.7358 -0.1886 -0.5297
 8461TIP3    H146798   1.100   5.823   0.455  2.0546  1.3571  2.9975
 8461TIP3    H246799   1.169   5.926   0.367  1.4184  0.3422  1.2549
 8462TIP3   OH246800   3.539   3.265  12.545  0.1990  0.2650  0.0827
 8462TIP3    H146801   3.563   3.282  12.636 -0.5412 -0.5620  0.4537
 8462TIP3    H246802   3.616   3.293  12.494 -0.9854  5.0907  0.4818
 8463TIP3   OH246803   4.651   1.522   3.734  0.1659 -0.0824  0.4868
 8463TIP3    H146804   4.738   1.542   3.700 -0.3592  1.7578  0.1312
 8463TIP3    H246805   4.664   1.510   3.828  0.8723 -0.3435  0.3576
 8464TIP3   OH246806   2.369   0.601  13.961 -0.5784  0.0866  0.1977
 8464TIP3    H146807   2.362   0.587  14.056 -1.3165  1.2328  0.3397
 8464TIP3    H246808   2.284   0.573  13.926 -0.1442 -0.7658 -0.1984
 8465TIP3   OH246809   2.337   1.208  13.852  0.0089  0.8448 -0.5043
 8465TIP3    H146810   2.428   1.177  13.852 -0.2213 -0.1497  2.4654
 8465TIP3    H246811   2.287   1.131  13.826 -0.1786  0.1306  1.7259
 8466TIP3   OH246812   3.864   4.178  17.046 -0.7933  0.2207 -0.1430
 8466TIP3    H146813   3.877   4.273  17.055 -2.4195  0.6579 -1.8929
 8466TIP3    H246814   3.951   4.145  17.024  0.8791  0.5596  4.6371
 8467TIP3   OH246815   6.571   2.738   1.784  0.4968  0.0860 -0.1946
 8467TIP3    H146816   6.650   2.693   1.815  2.2999  2.2930 -1.2499
 8467TIP3    H246817   6.533   2.680   1.719  1.8794 -0.5834 -0.4338
 8468TIP3   OH246818   1.961   5.467   2.594  0.1251  0.0280 -0.4466
 8468TIP3    H146819   1.868   5.446   2.583  0.5846 -2.4387 -0.0727
 8468TIP3    H246820   1.964   5.526   2.669 -1.1337  0.0823 -0.4260
 8469TIP3   OH246821   6.077   0.813   5.857  0.9358  0.0598 -0.3047
 8469TIP3    H146822   6.079   0.776   5.769 -1.1407  1.7482 -1.1641
 8469TIP3    H246823   6.013   0.761   5.905  1.4020 -0.2856 -0.0370
 8470TIP3   OH246824   2.192   0.589  15.217  0.5581  0.1128 -0.1014
 8470TIP3    H146825   2.112   0.634  15.189 -0.3871 -1.4043  0.0089
 8470TIP3    H246826   2.190   0.592  15.312  1.4884  1.4571 -0.1038
 8471TIP3   OH246827   2.516   5.539   0.334 -0.0980  0.1557  0.3950
 8471TIP3    H146828   2.590   5.491   0.297 -0.8919 -0.2250 -0.7838
 8471TIP3    H246829   2.457   5.470   0.366 -0.1727  0.4361  0.8660
 8472TIP3   OH246830   6.369   4.119   1.349  0.4995  0.2884 -0.5911
 8472TIP3    H146831   6.455   4.137   1.386 -0.1734  0.2004  1.0834
 8472TIP3    H246832   6.328   4.058   1.411 -0.9879  0.7871 -1.0457
 8473TIP3   OH246833   3.425   1.181  14.864 -0.4519 -0.3288  0.3981
 8473TIP3    H146834   3.379   1.225  14.792  1.0545  1.3214  0.3736
 8473TIP3    H246835   3.363   1.115  14.895 -1.0995 -1.2596 -2.5184
 8474TIP3   OH246836   2.873   1.492  16.723 -0.1400 -0.0296  0.4953
 8474TIP3    H146837   2.922   1.436  16.663 -0.0280  0.6250 -0.0327
 8474TIP3    H246838   2.805   1.435  16.759 -0.1094 -0.4688 -0.1242
 8475TIP3   OH246839   3.468   1.108   1.578  0.5267  0.0899 -0.0774
 8475TIP3    H146840   3.373   1.114   1.576  0.3941 -1.5658 -0.9861
 8475TIP3    H246841   3.493   1.097   1.486  1.4453 -0.9043  0.2642
 8476TIP3   OH246842   5.508   3.238  15.284 -0.2194  0.0051  0.0976
 8476TIP3    H146843   5.573   3.211  15.349  0.8959  2.4260  0.0777
 8476TIP3    H246844   5.532   3.190  15.204 -0.7449 -1.9082  1.0304
 8477TIP3   OH246845   6.345   2.903  11.022 -0.0613 -0.7829 -0.5659
 8477TIP3    H146846   6.264   2.939  10.985 -0.3413  0.5446  1.2011
 8477TIP3    H246847   6.315   2.830  11.077 -0.0326 -0.4769 -0.1428
 8478TIP3   OH246848   5.894   4.741   3.102  0.2175  0.7312 -0.6316
 8478TIP3    H146849   5.833   4.788   3.046  0.1686  0.9131 -0.4261
 8478TIP3    H246850   5.915   4.803   3.172  1.1074  0.8966 -1.0290
 8479TIP3   OH246851   5.899   2.342  14.282 -0.2242  0.1200 -0.0238
 8479TIP3    H146852   5.867   2.256  14.309 -1.2585  0.6719  0.5769
 8479TIP3    H246853   5.833   2.404  14.314  0.3586  1.1209 -0.6747
 8480TIP3   OH246854   1.553   1.041  14.815 -0.1601  0.9418  0.0360
 8480TIP3    H146855   1.517   0.960  14.852 -0.1953  1.7042  1.7870
 8480TIP3    H246856   1.487   1.070  14.752 -2.2003  1.7120  2.3548
 8481TIP3   OH246857   4.453   2.602   4.596 -0.4171 -0.7271  0.2333
 8481TIP3    H146858   4.393   2.674   4.576 -0.7565 -0.7643  1.0922
 8481TIP3    H246859   4.437   2.538   4.526 -0.2945 -0.0967 -0.3909
 8482TIP3   OH246860   4.408   5.703  14.487  0.7012  0.1627 -0.3868
 8482TIP3    H146861   4.448   5.664  14.409  0.6421  0.0420 -0.3567
 8482TIP3    H246862   4.482   5.725  14.544  0.6471 -1.7867  0.5005
 8483TIP3   OH246863   1.130   0.769   2.606 -0.4697 -0.4995 -0.2789
 8483TIP3    H146864   1.209   0.744   2.559 -0.1939  1.2007 -0.7807
 8483TIP3    H246865   1.120   0.863   2.590 -4.0416 -1.0327 -2.4667
 8484TIP3   OH246866   0.661   1.059   1.143 -0.1383 -0.5597 -0.0095
 8484TIP3    H146867   0.680   1.130   1.205  0.0285 -0.0034 -0.6959
 8484TIP3    H246868   0.586   1.013   1.182 -1.1609  0.8495 -0.2453
 8485TIP3   OH246869   0.249   6.447   1.520  0.2723  0.1541 -0.4146
 8485TIP3    H146870   0.331   6.486   1.491 -0.2577  1.3596 -0.3292
 8485TIP3    H246871   0.190   6.455   1.446 -0.0439  0.0950 -0.1715
 8486TIP3   OH246872   0.276   5.349  13.890  0.4601 -0.1696  0.4392
 8486TIP3    H146873   0.313   5.436  13.876 -1.0093  0.4044 -0.1550
 8486TIP3    H246874   0.204   5.343  13.827 -0.1008 -1.4232  1.1418
 8487TIP3   OH246875   1.175   1.774   3.941 -0.4603 -0.4991  0.1277
 8487TIP3    H146876   1.118   1.758   4.016 -0.2987  0.2603  0.4236
 8487TIP3    H246877   1.115   1.795   3.870 -0.5504  2.6013  0.9916
 8488TIP3   OH246878   4.508   3.714   2.236  0.6776 -0.1733  0.6860
 8488TIP3    H146879   4.432   3.697   2.181 -0.0254 -1.2425  1.9335
 8488TIP3    H246880   4.570   3.759   2.179 -0.6046  0.0815 -0.5467
 8489TIP3   OH246881   5.920   4.027  14.053  0.1546  0.1064  0.2741
 8489TIP3    H146882   5.870   4.087  13.998  0.6721 -0.2751 -0.6535
 8489TIP3    H246883   5.970   3.974  13.990  1.3565  0.1662  1.1396
 8490TIP3   OH246884   1.239   3.716   2.907  0.4161  0.3208 -0.8152
 8490TIP3    H146885   1.218   3.678   2.821 -0.5727 -2.1594  0.4043
 8490TIP3    H246886   1.216   3.647   2.969  2.9172  1.2910  1.3672
 8491TIP3   OH246887   5.298   3.367  15.737  0.0946  0.0216 -0.3977
 8491TIP3    H146888   5.235   3.307  15.697  1.2505 -0.2469 -1.8998
 8491TIP3    H246889   5.324   3.426  15.665  1.9946 -0.2609  0.0105
 8492TIP3   OH246890   4.448   0.284  11.998 -0.5030  0.6661  0.8358
 8492TIP3    H146891   4.418   0.354  11.941 -0.0251  1.2462  1.2893
 8492TIP3    H246892   4.368   0.246  12.034 -0.8830 -0.4427 -1.0491
 8493TIP3   OH246893   2.428   0.473   3.322  0.2410  0.5292 -0.3293
 8493TIP3    H146894   2.387   0.532   3.385 -2.5277  0.4421 -1.9083
 8493TIP3    H246895   2.449   0.528   3.247  1.0796  0.1471 -0.3916
 8494TIP3   OH246896   4.283   3.971   5.638 -0.2003 -0.6440  0.2075
 8494TIP3    H146897   4.293   4.034   5.566 -0.1832  0.7009  1.3471
 8494TIP3    H246898   4.308   4.020   5.716 -0.5985 -1.9606  1.1919
 8495TIP3   OH246899   5.236   3.706  15.387 -0.1071  0.0969  0.1472
 8495TIP3    H146900   5.211   3.719  15.296  1.6706  0.5765 -0.2938
 8495TIP3    H246901   5.277   3.789  15.413 -0.4339 -0.0929  1.3355
 8496TIP3   OH246902   5.971   3.623   1.818  0.1150  0.4712 -0.5524
 8496TIP3    H146903   5.912   3.551   1.795  1.0127 -0.2427 -0.6639
 8496TIP3    H246904   5.923   3.673   1.884 -0.9431  0.3773 -1.2276
 8497TIP3   OH246905   2.545   5.974  14.637  0.1493 -1.1766  0.2325
 8497TIP3    H146906   2.609   5.930  14.581  0.7523  0.4439 -0.4387
 8497TIP3    H246907   2.480   6.009  14.575  0.0912 -0.5016  0.6663
 8498TIP3   OH246908   5.594   4.848  16.535  0.7484 -0.6448 -0.1234
 8498TIP3    H146909   5.515   4.801  16.560  0.1235  0.0821 -0.6709
 8498TIP3    H246910   5.637   4.791  16.472 -0.2245 -0.3248 -1.1084
 8499TIP3   OH246911   0.747   4.913  16.632 -0.3319  0.4681 -0.2826
 8499TIP3    H146912   0.777   4.840  16.577 -0.6602  0.0127  0.1360
 8499TIP3    H246913   0.786   4.897  16.717 -0.8134  0.5047 -0.0514
 8500TIP3   OH246914   3.427   0.795  16.203  0.2077 -0.3019 -0.4047
 8500TIP3    H146915   3.414   0.839  16.119 -0.5917 -1.4649 -0.9277
 8500TIP3    H246916   3.347   0.814  16.253 -0.5976 -1.8930 -1.0102
 8501TIP3   OH246917   5.379   1.711   3.836 -0.1699  0.1617 -0.1806
 8501TIP3    H146918   5.438   1.677   3.769 -1.1555  1.0227 -1.5429
 8501TIP3    H246919   5.415   1.797   3.858 -0.4775  0.3686 -0.4683
 8502TIP3   OH246920   3.001   1.977  14.927 -0.0201 -0.1963  0.2077
 8502TIP3    H146921   2.990   2.060  14.880 -1.0173  0.0684  0.8660
 8502TIP3    H246922   2.974   1.997  15.017 -3.9001 -2.0607 -0.3615
 8503TIP3   OH246923   1.532   3.661  15.106  0.7554  0.7646 -0.0209
 8503TIP3    H146924   1.516   3.570  15.081  0.4313  1.1474 -1.2571
 8503TIP3    H246925   1.520   3.662  15.201 -0.1671 -0.2847 -0.1108
 8504TIP3   OH246926   0.986   4.014   6.436  0.2748 -0.0599 -0.0225
 8504TIP3    H146927   0.895   4.010   6.466  0.4573  0.4710  0.6173
 8504TIP3    H246928   1.038   4.019   6.517  0.9665 -1.7564 -0.3169
 8505TIP3   OH246929   0.685   1.842   1.999 -0.3404 -0.1487  0.3470
 8505TIP3    H146930   0.653   1.869   1.913 -1.4107  2.1981  1.3986
 8505TIP3    H246931   0.748   1.911   2.023  1.9494 -2.1226  0.4111
 8506TIP3   OH246932   4.366   5.378  14.243  0.3323  0.3593 -0.1924
 8506TIP3    H146933   4.354   5.472  14.248  1.2258  0.4155  2.6150
 8506TIP3    H246934   4.305   5.342  14.308  2.1369 -0.6681  1.0620
 8507TIP3   OH246935   5.389   0.005   3.301  0.0520  0.4337  0.1998
 8507TIP3    H146936   5.322  -0.050   3.343  0.8985 -1.0757 -0.3686
 8507TIP3    H246937   5.472  -0.035   3.326  0.6611  0.9961 -0.8852
 8508TIP3   OH246938   3.409   3.887   2.345 -0.4179  0.8830 -0.1528
 8508TIP3    H146939   3.473   3.860   2.411  0.5434  0.6280 -1.1586
 8508TIP3    H246940   3.333   3.832   2.361 -0.5546  1.4342  1.2930
 8509TIP3   OH246941   1.605   1.910   3.480 -0.1785  0.3254  0.4195
 8509TIP3    H146942   1.628   1.991   3.436 -0.0105 -0.7631 -1.6240
 8509TIP3    H246943   1.510   1.915   3.493 -0.6169 -0.1503 -2.0288
 8510TIP3   OH246944   5.310   1.867  12.782 -0.3902 -0.5908  0.1052
 8510TIP3    H146945   5.388   1.820  12.753 -1.2476 -2.9424  1.3292
 8510TIP3    H246946   5.258   1.801  12.828 -1.6359  1.6324  2.1158
 8511TIP3   OH246947   3.206   2.132  12.101 -0.2860 -0.3144 -0.3334
 8511TIP3    H146948   3.138   2.166  12.160  0.3071 -1.9962  1.4237
 8511TIP3    H246949   3.271   2.093  12.159  2.8559  2.2255 -1.8735
 8512TIP3   OH246950   0.665   2.159   6.587  0.1407  0.4753  0.3286
 8512TIP3    H146951   0.737   2.097   6.604  0.0978  0.9450  2.4446
 8512TIP3    H246952   0.586   2.109   6.608 -0.2849 -0.2394 -2.5802
 8513TIP3   OH246953   5.219   6.547  15.835 -0.0935 -1.0700 -0.0051
 8513TIP3    H146954   5.186   6.603  15.906 -1.6140  0.5661 -1.8738
 8513TIP3    H246955   5.287   6.493  15.876  0.9058  1.5915  2.1083
 8514TIP3   OH246956   4.273   4.239   2.960  0.5556 -0.0530 -0.0759
 8514TIP3    H146957   4.230   4.196   2.886 -0.2087  1.3592 -0.4947
 8514TIP3    H246958   4.338   4.297   2.920 -1.5426  2.6352  0.0842
 8515TIP3   OH246959   1.954   5.036  10.801 -0.1067  0.2515 -0.3421
 8515TIP3    H146960   1.924   4.951  10.835  2.4495 -0.2365  0.9050
 8515TIP3    H246961   1.883   5.097  10.824 -0.8030 -1.0603  1.2280
 8516TIP3   OH246962   4.921   5.695  13.565 -0.5357 -0.3476  0.7328
 8516TIP3    H146963   4.878   5.656  13.489 -0.3885  0.0459  0.4397
 8516TIP3    H246964   4.953   5.621  13.616 -0.4931 -0.6137  0.3249
 8517TIP3   OH246965   2.117   1.402  16.590 -0.5871 -0.0699 -0.3847
 8517TIP3    H146966   2.048   1.396  16.656 -0.6656  1.3428 -0.3173
 8517TIP3    H246967   2.070   1.399  16.506 -0.3596 -3.9988 -0.5476
 8518TIP3   OH246968   1.217   5.886  12.427  0.8595 -0.3630  0.2632
 8518TIP3    H146969   1.208   5.907  12.520  1.2203 -0.2435  0.2718
 8518TIP3    H246970   1.127   5.890  12.393  0.9451  1.7574  0.1604
 8519TIP3   OH246971   0.052   4.327   4.967 -0.2749 -0.4589 -0.2817
 8519TIP3    H146972  -0.022   4.266   4.973  0.1975 -1.1796 -1.4412
 8519TIP3    H246973   0.055   4.369   5.053 -0.0080 -2.8103  0.9469
 8520TIP3   OH246974   2.150   5.641  14.756 -0.2981 -0.0501  0.0777
 8520TIP3    H146975   2.176   5.706  14.821  0.8430 -0.2658 -0.1512
 8520TIP3    H246976   2.175   5.679  14.672 -1.8717  0.2818 -0.2787
 8521TIP3   OH246977   3.633   3.236  12.811 -0.2350 -0.5604  0.4737
 8521TIP3    H146978   3.555   3.189  12.839 -1.6513  1.3581 -0.0219
 8521TIP3    H246979   3.687   3.244  12.889 -1.0976 -0.8883  1.1110
 8522TIP3   OH246980   6.732   2.836  11.855 -0.4191 -0.2688 -0.1981
 8522TIP3    H146981   6.736   2.920  11.901 -1.5088  0.4937 -1.4212
 8522TIP3    H246982   6.662   2.788  11.898  0.1383 -0.5365  0.4382
 8523TIP3   OH246983   0.651   6.293  14.719 -0.2717 -0.1949 -0.1677
 8523TIP3    H146984   0.639   6.225  14.653 -0.3779  0.1684 -0.5287
 8523TIP3    H246985   0.563   6.308  14.754 -0.1730 -0.5770  0.2493
 8524TIP3   OH246986   3.799   5.258   4.572  0.0595  0.0099  0.2442
 8524TIP3    H146987   3.703   5.255   4.574  0.0614  0.3242  1.3748
 8524TIP3    H246988   3.823   5.292   4.658  1.2048 -0.4713  0.1208
 8525TIP3   OH246989   2.417   5.240  11.025 -0.2266  0.1872  0.4860
 8525TIP3    H146990   2.479   5.311  11.009  0.7326 -0.4972  1.0461
 8525TIP3    H246991   2.357   5.243  10.950  1.4406 -0.1200 -0.9319
 8526TIP3   OH246992   2.733   3.404   1.147 -0.2591  0.2401 -0.1722
 8526TIP3    H146993   2.760   3.393   1.056 -1.7307 -0.4462 -0.5614
 8526TIP3    H246994   2.686   3.323   1.168  0.5718  0.1259  1.4070
 8527TIP3   OH246995   5.631   1.232  15.803 -0.1513 -0.5851  0.3356
 8527TIP3    H146996   5.538   1.233  15.784 -0.0669  0.3590 -0.1083
 8527TIP3    H246997   5.638   1.262  15.894 -0.2625 -0.2290  0.2303
 8528TIP3   OH246998   4.722   2.082  13.641  0.1260  0.2025  0.4934
 8528TIP3    H146999   4.713   2.036  13.558  0.9998  0.4508  0.2510
 8528TIP3    H247000   4.748   2.171  13.617 -1.9378  0.9919  0.9356
 8529TIP3   OH247001   1.739   6.613  15.911 -0.1919 -0.5701 -0.1429
 8529TIP3    H147002   1.777   6.700  15.922 -0.3559 -0.4659 -0.3975
 8529TIP3    H247003   1.687   6.599  15.991 -1.6115  0.3028 -0.8776
 8530TIP3   OH247004   1.051   3.393   3.379 -0.0109 -0.2358 -0.6782
 8530TIP3    H147005   1.034   3.407   3.473  0.7949  0.6772 -0.6517
 8530TIP3    H247006   0.974   3.428   3.336 -0.1590 -0.1810 -0.3757
 8531TIP3   OH247007   3.508   0.943  11.142 -0.4411  0.0009 -0.6021
 8531TIP3    H147008   3.602   0.935  11.154 -0.7442 -1.6786  1.0260
 8531TIP3    H247009   3.499   1.002  11.067  1.9033 -0.6446 -1.4930
 8532TIP3   OH247010   5.967   3.720  15.865  0.7774 -0.1744  0.0657
 8532TIP3    H147011   5.895   3.657  15.860  0.2932  0.2431  1.2908
 8532TIP3    H247012   6.018   3.692  15.941  2.3742 -0.9003 -1.2196
 8533TIP3   OH247013   1.556   1.132  11.438  0.3919  0.6746  0.5415
 8533TIP3    H147014   1.547   1.209  11.494  0.0375  0.4268  0.8290
 8533TIP3    H247015   1.579   1.061  11.498  0.2469  0.4574  0.3449
 8534TIP3   OH247016   3.790   3.131  16.721  0.3470  0.1178 -0.0199
 8534TIP3    H147017   3.843   3.185  16.780 -0.3386  0.9147 -0.1243
 8534TIP3    H247018   3.804   3.042  16.753  2.2513  0.2237 -0.4294
 8535TIP3   OH247019   2.097   3.815  10.892  0.4905 -0.1094 -0.2159
 8535TIP3    H147020   2.134   3.885  10.839  3.3267 -0.3249  1.3010
 8535TIP3    H247021   2.063   3.860  10.970 -0.2652 -0.1753 -0.4972
 8536TIP3   OH247022   1.469   3.394   2.316  0.1419  0.0507  0.5546
 8536TIP3    H147023   1.442   3.325   2.377  1.5667 -0.2225  0.9081
 8536TIP3    H247024   1.388   3.440   2.295 -0.9051 -1.9725 -0.0243
 8537TIP3   OH247025   3.427   1.199   4.808  0.0573  0.7352 -0.0849
 8537TIP3    H147026   3.518   1.183   4.832 -0.3830 -0.9519  0.6100
 8537TIP3    H247027   3.387   1.235   4.888 -0.0357  0.8313 -0.1741
 8538TIP3   OH247028   4.332   2.785   2.220  0.2599  0.3205 -0.1538
 8538TIP3    H147029   4.389   2.789   2.296 -0.1344  1.3610  0.1139
 8538TIP3    H247030   4.246   2.810   2.253 -0.1104 -0.1183 -0.7669
 8539TIP3   OH247031   3.297   3.203   2.317  0.5487 -0.0693  0.2578
 8539TIP3    H147032   3.289   3.140   2.388 -0.6694  0.7214  0.8512
 8539TIP3    H247033   3.241   3.169   2.248  0.2746  0.1033  0.3925
 8540TIP3   OH247034   1.310   1.382   2.187 -0.7502  0.8051  0.1718
 8540TIP3    H147035   1.400   1.373   2.156 -0.5542  0.0189  0.9500
 8540TIP3    H247036   1.268   1.436   2.120  0.5909  2.2026  0.3990
 8541TIP3   OH247037   0.427   6.355   5.147 -0.2104 -0.4070 -0.3423
 8541TIP3    H147038   0.453   6.398   5.065 -1.1549  0.1434 -0.3784
 8541TIP3    H247039   0.495   6.378   5.209 -0.0639  0.1224 -0.6910
 8542TIP3   OH247040   3.716   2.296   0.284  0.1351  1.0234  0.8727
 8542TIP3    H147041   3.762   2.375   0.256  0.1782  0.5811 -0.3537
 8542TIP3    H247042   3.765   2.224   0.243 -2.3517  0.5772 -1.6673
 8543TIP3   OH247043   1.899   0.772   5.031 -0.4994 -1.2200  0.4486
 8543TIP3    H147044   1.954   0.748   5.106  2.0632  0.1616 -0.8402
 8543TIP3    H247045   1.931   0.718   4.959  0.4606  0.8078 -0.7440
 8544TIP3   OH247046   6.049   5.902   6.326 -0.0634  0.1068  0.7007
 8544TIP3    H147047   6.118   5.939   6.272 -1.5457  1.6404 -0.2361
 8544TIP3    H247048   6.013   5.977   6.374 -1.4986 -0.5198  0.6620
 8545TIP3   OH247049   0.891   4.827   0.488  0.1058  0.2381  0.3119
 8545TIP3    H147050   0.816   4.883   0.509  1.0438  1.2853  0.9572
 8545TIP3    H247051   0.901   4.770   0.565 -0.8290 -0.8274 -0.3314
 8546TIP3   OH247052   1.658   5.295   4.938  0.4887  0.0898  0.5623
 8546TIP3    H147053   1.684   5.385   4.918  1.3283 -0.1738  0.4304
 8546TIP3    H247054   1.563   5.294   4.926  0.0990  1.5451  2.8417
 8547TIP3   OH247055   2.718   6.030   4.400  0.1444  0.0408 -0.1730
 8547TIP3    H147056   2.652   5.985   4.349  0.6042  0.3715 -1.0723
 8547TIP3    H247057   2.801   6.004   4.361  0.6291 -0.9649  1.4011
 8548TIP3   OH247058   3.039   2.804  14.756  0.1615  0.0590 -0.2179
 8548TIP3    H147059   2.974   2.804  14.686 -0.0050 -2.5925 -0.1637
 8548TIP3    H247060   3.087   2.723  14.744  0.7268 -0.0430  2.2072
 8549TIP3   OH247061   6.559   5.251   3.787 -0.1394  0.2102  0.2245
 8549TIP3    H147062   6.581   5.229   3.878  0.7556 -2.2840 -0.5212
 8549TIP3    H247063   6.464   5.235   3.782 -0.2488  0.6396  0.7868
 8550TIP3   OH247064   5.330   3.729   5.294 -0.6728 -0.7880  0.2028
 8550TIP3    H147065   5.294   3.666   5.356 -0.0137 -2.2021 -0.7930
 8550TIP3    H247066   5.264   3.735   5.225 -0.9494  0.0004  0.5292
 8551TIP3   OH247067   3.036   1.109  12.891 -0.7684  0.4085  0.1822
 8551TIP3    H147068   3.075   1.190  12.858  0.8668 -0.4250 -0.0352
 8551TIP3    H247069   3.110   1.048  12.899 -1.6322 -0.4642  2.2175
 8552TIP3   OH247070   0.547   6.007  12.847  0.0922  0.1062  0.2900
 8552TIP3    H147071   0.540   6.102  12.857 -2.1953  0.1204 -0.8392
 8552TIP3    H247072   0.635   5.993  12.812  0.0671  1.9291 -0.6295
 8553TIP3   OH247073   5.875   0.835   6.268 -0.5502  0.0628  0.0546
 8553TIP3    H147074   5.908   0.922   6.245 -0.3545  0.1071  0.5010
 8553TIP3    H247075   5.952   0.779   6.270 -0.8055 -0.3763 -1.3344
 8554TIP3   OH247076   5.143   5.999   4.245  0.1588 -0.2202 -0.0345
 8554TIP3    H147077   5.114   6.012   4.335 -0.5964  1.9606 -0.5371
 8554TIP3    H247078   5.066   5.967   4.199 -0.2571  1.3170 -0.4491
 8555TIP3   OH247079   3.798   2.619  15.013 -0.0868 -0.2254  0.1684
 8555TIP3    H147080   3.866   2.584  14.956 -0.4190  1.4107 -1.3104
 8555TIP3    H247081   3.840   2.691  15.060 -0.9822  1.5653 -1.6057
 8556TIP3   OH247082   5.548   0.064  14.043 -0.0781 -0.1064 -0.6530
 8556TIP3    H147083   5.580   0.141  13.995 -1.4521 -0.3680 -2.0634
 8556TIP3    H247084   5.468   0.038  13.997 -0.3147 -1.6592  0.5400
 8557TIP3   OH247085   5.368   1.771  15.312 -0.1142 -0.8457  0.0258
 8557TIP3    H147086   5.424   1.805  15.382  0.1210  0.6394 -0.8399
 8557TIP3    H247087   5.427   1.723  15.254  0.5278  1.4433 -1.3556
 8558TIP3   OH247088   4.652   0.122   3.202 -0.1001 -0.3087  0.3927
 8558TIP3    H147089   4.657   0.204   3.252  0.0381 -0.4700  0.6485
 8558TIP3    H247090   4.591   0.067   3.252  0.7083 -0.7988  0.8802
 8559TIP3   OH247091   3.642   0.249   5.442  0.6209 -0.2380  0.2171
 8559TIP3    H147092   3.579   0.205   5.500  0.3219  0.3705  0.3692
 8559TIP3    H247093   3.651   0.336   5.480  0.5325  0.1211 -0.5715
 8560TIP3   OH247094   1.783   5.534   1.199 -0.0623 -0.3850 -0.2019
 8560TIP3    H147095   1.848   5.493   1.142  1.7829  1.6246  0.2872
 8560TIP3    H247096   1.825   5.615   1.229 -2.9653  1.2618 -0.1490
 8561TIP3   OH247097   2.656   4.780  16.990 -0.2164  0.1968 -0.4224
 8561TIP3    H147098   2.720   4.772  16.919 -1.0164  1.2544 -1.2954
 8561TIP3    H247099   2.674   4.705  17.047  1.4180  0.1604 -0.9431
 8562TIP3   OH247100   1.522   4.004  12.937  0.0897 -0.7125 -0.1022
 8562TIP3    H147101   1.527   4.099  12.951  1.1859 -0.9069  1.0288
 8562TIP3    H247102   1.462   3.994  12.863  1.6480  0.9852 -1.7141
 8563TIP3   OH247103   3.555   3.485   4.873 -0.5554  0.7546  0.9523
 8563TIP3    H147104   3.523   3.468   4.785  0.4463  0.5893  0.6124
 8563TIP3    H247105   3.614   3.560   4.863 -0.5385  0.8202  1.4987
 8564TIP3   OH247106   0.630   5.821   3.424 -0.1352 -0.1703  0.0790
 8564TIP3    H147107   0.597   5.886   3.486 -0.0989 -0.7185  0.6800
 8564TIP3    H247108   0.689   5.871   3.368 -1.4717  0.6917 -0.6194
 8565TIP3   OH247109   2.366   1.904  16.741 -0.0188  0.3296  0.8347
 8565TIP3    H147110   2.283   1.925  16.699  0.4776 -0.3019 -0.5241
 8565TIP3    H247111   2.344   1.840  16.809 -0.7976  1.1363  1.3547
 8566TIP3   OH247112   0.072   5.743   4.771  0.0528 -0.7233 -0.2711
 8566TIP3    H147113   0.059   5.697   4.688 -1.2938  0.9391 -1.0316
 8566TIP3    H247114   0.025   5.825   4.761  1.4759  0.3766  1.4384
 8567TIP3   OH247115   6.421   0.299  12.208  0.0910  0.3512 -0.5513
 8567TIP3    H147116   6.380   0.385  12.199  0.0757  0.2118 -2.0029
 8567TIP3    H247117   6.443   0.273  12.119 -0.4818 -1.4362 -0.2164
 8568TIP3   OH247118   1.805   5.275  16.215 -0.0907  0.1422  0.1646
 8568TIP3    H147119   1.827   5.215  16.144  2.9486  0.0486  1.0323
 8568TIP3    H247120   1.829   5.361  16.181  0.8857  0.1553  0.8421
 8569TIP3   OH247121   1.010   4.800   1.346  0.7788  0.1109  0.1278
 8569TIP3    H147122   0.950   4.785   1.418  0.5967 -0.5538 -0.1580
 8569TIP3    H247123   1.065   4.873   1.375  1.2666 -0.6980  1.2820
 8570TIP3   OH247124   0.779   5.570   0.345  0.5884 -0.1996 -0.4473
 8570TIP3    H147125   0.764   5.490   0.395  0.6425  1.0464  1.7218
 8570TIP3    H247126   0.694   5.614   0.344  0.6922 -0.0088 -1.0869
 8571TIP3   OH247127   3.634   0.207  11.853  0.1740 -0.1508 -0.4923
 8571TIP3    H147128   3.581   0.128  11.849 -0.4297  0.2076  0.2962
 8571TIP3    H247129   3.717   0.181  11.811  0.6062 -1.6982  1.1683
 8572TIP3   OH247130   5.607   4.254   2.083 -0.3057  0.0073 -0.0364
 8572TIP3    H147131   5.653   4.326   2.126 -0.4739  0.1400 -0.0781
 8572TIP3    H247132   5.620   4.270   1.989 -0.5806  0.1372 -0.0511
 8573TIP3   OH247133   1.759   6.335   5.685 -0.2749  0.0448 -0.7000
 8573TIP3    H147134   1.780   6.267   5.621  1.2656  0.7503 -0.9986
 8573TIP3    H247135   1.716   6.404   5.634 -0.5523 -0.0953 -0.6582
 8574TIP3   OH247136   2.818   4.132  16.293 -0.3164  0.3616 -0.1122
 8574TIP3    H147137   2.729   4.101  16.274  0.3768 -1.5602 -0.4359
 8574TIP3    H247138   2.861   4.134  16.208  0.3928 -0.2672  0.2192
 8575TIP3   OH247139   6.724   5.683  14.148 -0.2562 -0.1230  0.1518
 8575TIP3    H147140   6.814   5.691  14.117 -0.8101  0.8494 -1.2956
 8575TIP3    H247141   6.699   5.593  14.127 -1.1521  0.8861 -4.0325
 8576TIP3   OH247142   0.555   1.368   1.569 -0.5489 -0.2489 -0.2654
 8576TIP3    H147143   0.612   1.424   1.622  1.4213 -0.0247 -2.4633
 8576TIP3    H247144   0.468   1.407   1.579  0.5340  2.5631 -0.7390
 8577TIP3   OH247145   5.925   0.339   4.107  0.4091  0.3311  0.8670
 8577TIP3    H147146   5.844   0.338   4.055  1.8370 -2.1775 -1.6071
 8577TIP3    H247147   5.976   0.411   4.070  0.3131  0.2997  0.6678
 8578TIP3   OH247148   4.821   1.561   1.493 -0.0229 -0.2185  0.1498
 8578TIP3    H147149   4.758   1.500   1.454  0.2435  0.4763 -1.4656
 8578TIP3    H247150   4.905   1.536   1.455 -0.0093  1.5185 -1.0930
 8579TIP3   OH247151   2.204   3.427  11.051 -0.1283 -0.3618 -0.2576
 8579TIP3    H147152   2.227   3.347  11.003  1.1013  0.6368 -1.3912
 8579TIP3    H247153   2.125   3.459  11.007  0.1973 -0.1925 -0.7212
 8580TIP3   OH247154   0.108   3.500  14.240  0.5251  0.7257 -0.1068
 8580TIP3    H147155   0.151   3.429  14.193 -1.6695 -0.5281 -0.3605
 8580TIP3    H247156   0.048   3.538  14.176 -2.3697 -0.8796  1.4457
 8581TIP3   OH247157   2.492   5.871   4.887 -0.2299 -0.0293  0.0173
 8581TIP3    H147158   2.532   5.831   4.809 -0.6470 -2.3972  0.9295
 8581TIP3    H247159   2.398   5.871   4.869 -0.1566  2.0941 -0.6021
 8582TIP3   OH247160   4.967   1.552  14.284 -0.0478 -0.1926  0.5655
 8582TIP3    H147161   4.905   1.618  14.317  0.3425  0.6373 -0.3037
 8582TIP3    H247162   5.047   1.602  14.268  0.0514 -0.7520 -0.7387
 8583TIP3   OH247163   2.675   1.596  11.405  0.3654 -0.1490  0.2079
 8583TIP3    H147164   2.730   1.524  11.374 -2.0145 -0.6456 -3.4029
 8583TIP3    H247165   2.618   1.557  11.471  0.9163 -0.8698  0.2716
 8584TIP3   OH247166   0.913   5.446   5.137  0.0845  0.0195  0.2128
 8584TIP3    H147167   0.926   5.496   5.218 -1.0697  1.8100 -0.6573
 8584TIP3    H247168   0.893   5.511   5.071  0.2855 -1.4757 -1.4010
 8585TIP3   OH247169   6.549   2.101   3.175 -0.0213  0.1643  0.2016
 8585TIP3    H147170   6.480   2.127   3.236  1.2035  1.4881  1.0935
 8585TIP3    H247171   6.587   2.022   3.215  0.5599  0.8367  1.0113
 8586TIP3   OH247172   2.969   0.578   1.437 -0.8605 -0.4016 -0.4644
 8586TIP3    H147173   2.884   0.546   1.408 -2.4231  2.5671  0.5340
 8586TIP3    H247174   3.016   0.597   1.356 -1.5223 -1.0335 -1.0167
 8587TIP3   OH247175   3.085   5.051  15.418  0.4235  0.4413  0.1937
 8587TIP3    H147176   3.159   5.109  15.401  0.0845  0.8359  0.0614
 8587TIP3    H247177   3.020   5.073  15.351  0.2079  0.0532  0.2676
 8588TIP3   OH247178   2.233   0.408   5.050  0.3536 -0.8835 -0.5481
 8588TIP3    H147179   2.237   0.483   4.991 -2.2604  0.9492  1.3055
 8588TIP3    H247180   2.139   0.395   5.066  0.8527 -2.2357  1.9497
 8589TIP3   OH247181   2.689   0.523   3.664 -0.1443 -0.1968  0.6935
 8589TIP3    H147182   2.771   0.475   3.650  0.1559  0.1722  1.1437
 8589TIP3    H247183   2.669   0.561   3.579  0.4654  0.1852  0.7089
 8590TIP3   OH247184   1.412   4.297  13.254  0.6971  0.1627  0.0633
 8590TIP3    H147185   1.505   4.321  13.249  0.2164  1.8680 -1.6437
 8590TIP3    H247186   1.377   4.318  13.168 -1.7891  1.7449  1.3421
 8591TIP3   OH247187   2.267   0.153   4.304 -0.5774  0.4436  0.1936
 8591TIP3    H147188   2.349   0.180   4.345 -0.2940 -0.6661  0.3760
 8591TIP3    H247189   2.202   0.215   4.337  0.0466  0.8758  0.6233
 8592TIP3   OH247190   2.922   2.220  13.868 -0.3966 -0.5355 -0.1951
 8592TIP3    H147191   2.874   2.195  13.788  0.6556 -0.5051 -0.8495
 8592TIP3    H247192   2.854   2.227  13.935 -1.5096  0.9564 -1.4254
 8593TIP3   OH247193   6.734   2.250  17.347 -0.3221 -0.3856  0.2282
 8593TIP3    H147194   6.653   2.278  17.305 -0.9756 -1.2299  0.8771
 8593TIP3    H247195   6.706   2.186  17.413  0.7479  0.2463  1.3313
 8594TIP3   OH247196   5.513   6.316   5.523 -0.2544 -0.5285 -0.3516
 8594TIP3    H147197   5.531   6.353   5.609  1.1438 -1.5477 -0.1829
 8594TIP3    H247198   5.500   6.393   5.467  3.9741  0.4622 -0.3240
 8595TIP3   OH247199   1.731   0.096   2.826 -0.4231  0.0350  0.0006
 8595TIP3    H147200   1.826   0.085   2.819 -0.1728  1.6179  0.4805
 8595TIP3    H247201   1.695   0.015   2.789  1.0181  0.8559 -3.5446
 8596TIP3   OH247202   3.858   2.711  17.378  0.1045  0.1090 -0.1204
 8596TIP3    H147203   3.811   2.627  17.378 -1.4039  0.8430  2.4854
 8596TIP3    H247204   3.950   2.686  17.378 -0.3019 -1.5983  1.1944
 8597TIP3   OH247205   3.091   1.497   6.498 -0.0601  0.1219  0.0536
 8597TIP3    H147206   3.159   1.541   6.550  0.1193  0.5679 -0.5521
 8597TIP3    H247207   3.062   1.563   6.436 -0.4705 -0.3282 -0.2403
 8598TIP3   OH247208   3.444   6.401  12.593  0.0317 -0.1425  0.3352
 8598TIP3    H147209   3.519   6.353  12.628 -0.2601  0.2588  1.5731
 8598TIP3    H247210   3.370   6.342  12.603  0.0318 -0.2185 -0.0966
 8599TIP3   OH247211   3.017   5.904   0.762  0.1997 -0.1869 -0.1860
 8599TIP3    H147212   3.038   5.881   0.852 -0.2476 -0.5467 -0.1689
 8599TIP3    H247213   3.092   5.875   0.710 -0.2577 -1.5294 -0.1423
 8600TIP3   OH247214   2.612   0.836  12.599  0.3441  0.4274  0.3741
 8600TIP3    H147215   2.652   0.855  12.514  0.8213  1.9298  0.9053
 8600TIP3    H247216   2.681   0.856  12.662 -0.3079  0.1924  1.1693
 8601TIP3   OH247217   5.123   0.091  14.514  1.0470  0.1165 -0.1211
 8601TIP3    H147218   5.196   0.143  14.548  0.4545  0.5189  0.5632
 8601TIP3    H247219   5.162   0.035  14.447  2.0531  0.0207  0.5357
 8602TIP3   OH247220   6.535   5.018   6.553 -0.1545 -0.0652  0.2755
 8602TIP3    H147221   6.631   5.014   6.560 -0.0392  0.1080 -0.9876
 8602TIP3    H247222   6.511   4.941   6.502 -0.7045 -0.1693  0.6823
 8603TIP3   OH247223   6.317   1.808   3.686  0.0654  0.0554  0.1056
 8603TIP3    H147224   6.300   1.825   3.593  0.4116 -2.9474 -0.6360
 8603TIP3    H247225   6.412   1.807   3.694  0.1449  3.5778  1.3379
 8604TIP3   OH247226   0.785   3.355  11.119  0.3459  0.7122 -0.1046
 8604TIP3    H147227   0.847   3.412  11.073  0.3839  1.5099  0.8974
 8604TIP3    H247228   0.700   3.400  11.110  0.0604  0.0613 -0.7430
 8605TIP3   OH247229   4.497   5.000  12.474  0.4817  0.6557 -0.0608
 8605TIP3    H147230   4.560   4.944  12.519  1.0652  0.6991 -0.8139
 8605TIP3    H247231   4.545   5.080  12.455  0.6915  0.1323 -1.9720
 8606TIP3   OH247232   5.355   0.523  14.458 -0.2461 -0.2139  0.0038
 8606TIP3    H147233   5.372   0.517  14.552  2.9798 -0.7139 -0.4815
 8606TIP3    H247234   5.391   0.442  14.422 -2.2992 -0.4827 -1.6264
 8607TIP3   OH247235   3.550   2.999  12.558  0.2051 -0.2136  0.3402
 8607TIP3    H147236   3.539   3.093  12.575 -2.0992 -0.2179 -0.7952
 8607TIP3    H247237   3.548   2.992  12.462 -0.7961 -1.5290  0.4337
 8608TIP3   OH247238   4.713   2.006   3.427 -0.1714  0.3533 -0.1243
 8608TIP3    H147239   4.737   2.085   3.476  0.7268 -0.8421  1.4782
 8608TIP3    H247240   4.644   2.034   3.367 -0.6472  2.1152  1.1745
 8609TIP3   OH247241   1.719   5.762   3.195  0.4055  0.8377 -0.1816
 8609TIP3    H147242   1.671   5.782   3.276  0.0873  0.3625 -0.2513
 8609TIP3    H247243   1.771   5.684   3.217 -0.4621  0.0921 -0.7410
 8610TIP3   OH247244   1.869   1.138   3.703  0.3810 -0.2077 -0.5889
 8610TIP3    H147245   1.894   1.229   3.690 -0.8997  0.4020  0.7947
 8610TIP3    H247246   1.822   1.138   3.787  1.0798 -2.2953 -0.1335
 8611TIP3   OH247247   2.949   5.742   0.360  0.2283 -0.4622  0.1115
 8611TIP3    H147248   3.002   5.664   0.343  1.1369  0.3427 -0.8420
 8611TIP3    H247249   2.914   5.728   0.448  3.2561 -0.3692  1.4796
 8612TIP3   OH247250   2.540   0.442  17.397  0.0839  0.2176 -0.1117
 8612TIP3    H147251   2.600   0.511  17.425  1.7239  0.3092 -3.3733
 8612TIP3    H247252   2.593   0.362  17.399 -0.9416 -0.4705  0.8451
 8613TIP3   OH247253   2.127   2.027  12.190 -0.6678 -0.5458 -0.4931
 8613TIP3    H147254   2.176   2.006  12.110 -1.4694 -0.5520 -0.9938
 8613TIP3    H247255   2.169   2.106  12.223 -0.5705 -0.3198 -1.1342
 8614TIP3   OH247256   4.831   3.624  16.661 -0.2436  0.5063  0.0689
 8614TIP3    H147257   4.767   3.553  16.667 -0.7708  1.0671  1.4632
 8614TIP3    H247258   4.914   3.579  16.644 -0.8001 -0.3167 -0.5903
 8615TIP3   OH247259   5.134   6.414  14.048  0.5107 -0.1703 -0.3494
 8615TIP3    H147260   5.216   6.393  14.094  1.2978  1.6474 -0.8362
 8615TIP3    H247261   5.083   6.465  14.111  0.8651  0.8703 -0.8831
 8616TIP3   OH247262   6.256   3.406  12.823  0.0402 -0.1666 -0.2203
 8616TIP3    H147263   6.207   3.381  12.745  1.5409 -0.3133 -1.1450
 8616TIP3    H247264   6.193   3.398  12.894 -1.5405  0.5353 -1.4739
 8617TIP3   OH247265   1.610   3.777   2.736 -0.1667 -0.2494  0.2732
 8617TIP3    H147266   1.575   3.720   2.667 -1.2075 -0.1692  0.7197
 8617TIP3    H247267   1.697   3.742   2.754  0.1571 -0.2149 -1.1450
 8618TIP3   OH247268   4.420   0.094  13.343 -0.4854 -0.5668 -0.3048
 8618TIP3    H147269   4.402   0.146  13.264 -1.5509 -1.9421 -1.0177
 8618TIP3    H247270   4.452   0.010  13.309  2.0189 -0.1395  0.8404
 8619TIP3   OH247271   2.752   5.753   1.731  0.1403 -0.3616  0.0285
 8619TIP3    H147272   2.675   5.771   1.678 -0.0962  0.8870  0.7418
 8619TIP3    H247273   2.771   5.660   1.717 -1.9123 -0.8853  0.3825
 8620TIP3   OH247274   2.497   6.287  13.940  0.8306  0.8866 -0.1937
 8620TIP3    H147275   2.531   6.253  13.858 -2.5307 -1.3176 -0.9061
 8620TIP3    H247276   2.422   6.341  13.914 -0.6527 -0.3168  1.3548
 8621TIP3   OH247277   3.931   2.506  12.290  0.3157  0.2113  0.1373
 8621TIP3    H147278   3.864   2.557  12.337 -0.8970 -1.2234  0.0518
 8621TIP3    H247279   3.883   2.466  12.217  1.0596 -1.4740  0.5204
 8622TIP3   OH247280   0.955   5.130   0.512 -0.2416 -0.0141  0.4897
 8622TIP3    H147281   0.992   5.140   0.600  1.1918  0.1103 -0.1063
 8622TIP3    H247282   0.951   5.035   0.499  0.3882 -0.0229  0.3478
 8623TIP3   OH247283   4.992   2.531  16.583 -0.3302 -0.4866 -0.1373
 8623TIP3    H147284   5.057   2.462  16.574  1.8945  1.6125 -1.4181
 8623TIP3    H247285   5.031   2.593  16.645 -2.5888 -0.6552  1.5946
 8624TIP3   OH247286   5.779   3.187  16.359  0.1826  0.2354  0.5888
 8624TIP3    H147287   5.811   3.230  16.280 -0.5679  0.7993  0.5766
 8624TIP3    H247288   5.691   3.222  16.371 -0.1533 -0.7308  1.0237
 8625TIP3   OH247289   2.259   3.983   4.089  0.0025  0.1048  0.1869
 8625TIP3    H147290   2.196   3.921   4.129  0.6023 -1.6540 -1.4335
 8625TIP3    H247291   2.339   3.931   4.078  0.1433  0.7426 -2.3873
 8626TIP3   OH247292   0.937   1.832   0.298  0.0213 -0.0554 -0.2979
 8626TIP3    H147293   0.993   1.820   0.376 -0.4587  1.2497  0.2798
 8626TIP3    H247294   0.848   1.818   0.330 -0.0951 -0.6906 -0.8916
 8627TIP3   OH247295   1.321   0.933  14.424  0.2800 -0.4102 -0.1465
 8627TIP3    H147296   1.404   0.887  14.416  0.3296  0.0038 -3.8874
 8627TIP3    H247297   1.259   0.880  14.373 -0.9559  0.8476 -0.0141
 8628TIP3   OH247298   6.336   1.645  12.562  0.1850  0.2958 -0.3600
 8628TIP3    H147299   6.397   1.584  12.519  0.3156  1.0131 -1.2233
 8628TIP3    H247300   6.380   1.669  12.643 -1.2966 -3.2924  1.7432
 8629TIP3   OH247301   1.198   0.754   6.187 -0.0716 -0.1406 -0.4256
 8629TIP3    H147302   1.272   0.694   6.193  1.6395  1.4958 -3.1622
 8629TIP3    H247303   1.224   0.831   6.238  0.3700  0.6092 -1.7318
 8630TIP3   OH247304   0.601   6.399   2.635  0.1415  0.1639  0.3683
 8630TIP3    H147305   0.598   6.495   2.631 -0.5310  0.1471  0.3565
 8630TIP3    H247306   0.518   6.374   2.674  0.0170 -0.4515 -0.2639
 8631TIP3   OH247307   3.425   0.229  13.963 -1.1271  0.0253 -0.5017
 8631TIP3    H147308   3.495   0.294  13.955 -0.9924 -0.1253 -0.5612
 8631TIP3    H247309   3.436   0.174  13.886 -0.9840 -0.3166 -0.2395
 8632TIP3   OH247310   2.441   5.636  16.695  0.5154  0.3408 -0.1332
 8632TIP3    H147311   2.522   5.626  16.645  0.7886  0.9960  0.1703
 8632TIP3    H247312   2.469   5.669  16.780  0.0417 -0.6240  0.4154
 8633TIP3   OH247313   0.407   6.066  16.745 -0.1404  0.6992  0.2471
 8633TIP3    H147314   0.452   6.050  16.828 -1.0717  1.9956  1.0411
 8633TIP3    H247315   0.437   5.996  16.687 -0.0772 -0.7183  1.9248
 8634TIP3   OH247316   3.435   5.335   6.209  0.3559  0.3269 -0.7734
 8634TIP3    H147317   3.436   5.360   6.117 -0.3123 -0.0504 -0.8934
 8634TIP3    H247318   3.415   5.241   6.209  0.6608  0.2531 -0.2552
 8635TIP3   OH247319   2.359   6.387  12.696  0.6470 -0.3329  0.3686
 8635TIP3    H147320   2.267   6.381  12.722 -0.0605  0.8055 -1.5974
 8635TIP3    H247321   2.358   6.368  12.602  2.2459  0.9001  0.0630
 8636TIP3   OH247322   2.310   4.515   0.034  0.1708 -0.0435  0.6339
 8636TIP3    H147323   2.312   4.428  -0.005 -0.9738  0.5446 -0.8576
 8636TIP3    H247324   2.267   4.503   0.119 -0.4849 -0.8598  0.1999
 8637TIP3   OH247325   5.971   1.910  13.333  0.1200  0.1877  0.1476
 8637TIP3    H147326   5.917   1.954  13.267  0.5064  1.4343  0.6201
 8637TIP3    H247327   6.039   1.974  13.353  0.0704 -0.2045  1.6733
 8638TIP3   OH247328   6.557   2.819  12.936 -0.7500  0.5107  0.0037
 8638TIP3    H147329   6.511   2.805  12.853 -0.4630  1.1145 -0.2631
 8638TIP3    H247330   6.650   2.820  12.911 -0.2857 -3.4576  0.8599
 8639TIP3   OH247331   1.929   6.155   6.010  0.1217 -0.5832  0.0741
 8639TIP3    H147332   1.876   6.190   6.082  1.6446 -2.2044  2.1271
 8639TIP3    H247333   1.875   6.086   5.972  0.4475 -1.8489  1.7898
 8640TIP3   OH247334   0.144   6.529  15.585 -0.3458 -0.3040 -0.3264
 8640TIP3    H147335   0.132   6.588  15.510  0.2183 -0.9184 -0.9221
 8640TIP3    H247336   0.239   6.516  15.589 -0.2530  0.7062  1.2905
 8641TIP3   OH247337   3.012   5.369   1.028  0.4028 -0.2652 -0.5569
 8641TIP3    H147338   2.921   5.359   1.058 -0.0689  0.6655 -1.6340
 8641TIP3    H247339   3.019   5.461   1.003  1.5497 -0.4123 -0.8072
 8642TIP3   OH247340   6.350   2.716   0.315 -0.1928  0.2875 -0.0063
 8642TIP3    H147341   6.313   2.643   0.364 -1.3799  1.0894  0.3275
 8642TIP3    H247342   6.291   2.729   0.241  1.1943 -0.4585 -1.3141
 8643TIP3   OH247343   0.841   1.170  13.099 -0.1217 -0.7316 -0.1416
 8643TIP3    H147344   0.780   1.233  13.061  0.8399  0.7371  0.6263
 8643TIP3    H247345   0.836   1.187  13.194 -0.2471 -2.2232  0.1442
 8644TIP3   OH247346   1.436   1.167  12.653  0.2068 -0.1928 -0.2105
 8644TIP3    H147347   1.385   1.225  12.709  1.6213 -0.4602  1.4242
 8644TIP3    H247348   1.394   1.081  12.662 -1.2318  0.2748 -1.7964
 8645TIP3   OH247349   3.753   3.639   0.390  0.3947 -0.2012 -0.1725
 8645TIP3    H147350   3.694   3.563   0.390 -0.2079  0.2577 -0.2065
 8645TIP3    H247351   3.830   3.610   0.340 -0.2485 -0.4731 -1.0368
 8646TIP3   OH247352   0.683   4.945   3.735  0.6029 -0.3747 -0.1142
 8646TIP3    H147353   0.692   5.040   3.739  0.1264 -0.3736  1.7863
 8646TIP3    H247354   0.683   4.925   3.642 -2.0827  1.7723 -0.7136
 8647TIP3   OH247355   6.679   1.624   3.609 -0.1128  0.3652 -0.0133
 8647TIP3    H147356   6.637   1.583   3.685 -0.5462  0.8436  0.0100
 8647TIP3    H247357   6.724   1.552   3.565 -1.1939 -0.2289 -0.2012
 8648TIP3   OH247358   4.588   5.201   1.571  0.2154  0.0782 -0.1630
 8648TIP3    H147359   4.650   5.257   1.618  0.4940  0.1815 -0.6407
 8648TIP3    H247360   4.532   5.262   1.523 -2.0366  0.1389  2.3301
 8649TIP3   OH247361   4.598   6.477   2.288 -0.9327  0.2369  0.0558
 8649TIP3    H147362   4.667   6.418   2.257 -1.7873  0.0875 -1.6331
 8649TIP3    H247363   4.645   6.557   2.311 -0.1693  0.1520 -1.0863
 8650TIP3   OH247364   3.566   2.003  11.947  0.2157 -0.3722  0.0664
 8650TIP3    H147365   3.641   1.983  11.891  0.9203  1.5365  0.2296
 8650TIP3    H247366   3.560   1.929  12.008  0.1581 -1.9166 -1.7310
 8651TIP3   OH247367   5.319   5.464  16.972 -0.2255 -0.1302  0.4027
 8651TIP3    H147368   5.298   5.556  16.960  0.5435  0.3005  2.0159
 8651TIP3    H247369   5.380   5.443  16.901 -1.9530  0.0036 -1.2000
 8652TIP3   OH247370   1.403   4.389  15.687 -0.9202 -0.3798  0.2157
 8652TIP3    H147371   1.346   4.463  15.707 -1.8706 -0.6883 -1.2569
 8652TIP3    H247372   1.347   4.312  15.699 -0.2646 -0.8067  0.6040
 8653TIP3   OH247373   0.277   6.037  12.955  0.2756  0.2679 -0.2925
 8653TIP3    H147374   0.373   6.039  12.944  0.2142  1.2301 -0.8451
 8653TIP3    H247375   0.243   6.065  12.870 -0.4311  1.7441  0.4229
 8654TIP3   OH247376   2.136   2.288  15.745 -0.3309  0.7942 -0.1193
 8654TIP3    H147377   2.213   2.279  15.690  0.5122 -1.9696  1.3237
 8654TIP3    H247378   2.169   2.286  15.834 -2.0337 -1.7324  0.5818
 8655TIP3   OH247379   0.362   0.468  14.595  0.0124 -0.0963  0.8263
 8655TIP3    H147380   0.296   0.399  14.591  0.7167 -0.7878  0.8246
 8655TIP3    H247381   0.371   0.487  14.688  1.1259 -1.3422  1.0192
 8656TIP3   OH247382   5.869   4.411   6.080 -0.1273  0.3093  0.0935
 8656TIP3    H147383   5.861   4.482   6.143 -2.2470  0.4195 -0.2284
 8656TIP3    H247384   5.788   4.361   6.090  1.6765 -2.6749  0.9796
 8657TIP3   OH247385   2.436   2.792   0.554 -0.1009 -0.2758 -0.1966
 8657TIP3    H147386   2.357   2.756   0.595  0.2601  0.2391  1.0322
 8657TIP3    H247387   2.507   2.766   0.613  0.5364 -0.0599 -0.8598
 8658TIP3   OH247388   5.063   0.258  15.415 -0.1890  0.4567 -0.0558
 8658TIP3    H147389   5.056   0.295  15.503 -0.0603 -2.1026  1.1349
 8658TIP3    H247390   4.996   0.190  15.412  0.1473  0.1515 -1.7662
 8659TIP3   OH247391   4.536   4.001  11.426  0.0129  0.1457 -0.0968
 8659TIP3    H147392   4.489   3.985  11.344  0.5392 -0.1401 -0.3471
 8659TIP3    H247393   4.537   4.096  11.436  0.2338  0.1951 -0.5888
 8660TIP3   OH247394   6.604   2.024   0.231 -0.2447 -0.1207  0.1405
 8660TIP3    H147395   6.512   2.039   0.209 -0.6360 -0.4370  1.4307
 8660TIP3    H247396   6.609   2.043   0.325  0.9467 -0.4035  0.1512
 8661TIP3   OH247397   4.706   5.454  12.582 -0.4904  0.2417 -0.6940
 8661TIP3    H147398   4.649   5.486  12.513 -1.7836 -3.0632 -1.3326
 8661TIP3    H247399   4.663   5.480  12.663 -1.3056  0.3505 -1.1571
 8662TIP3   OH247400   0.760   1.279  14.998 -0.5784 -0.6813 -0.5532
 8662TIP3    H147401   0.830   1.215  15.005 -0.4944 -0.5140  0.2557
 8662TIP3    H247402   0.705   1.247  14.927 -0.9992 -2.1058  0.3680
 8663TIP3   OH247403   3.802   2.860   0.458  0.0021  0.2294 -0.1065
 8663TIP3    H147404   3.711   2.873   0.487 -1.2999 -0.5670 -3.3941
 8663TIP3    H247405   3.796   2.796   0.387  3.4323 -1.3422  0.8065
 8664TIP3   OH247406   3.976   5.565   4.161  0.3879  0.8621  0.1571
 8664TIP3    H147407   4.047   5.627   4.174  0.2801  1.2030 -0.7683
 8664TIP3    H247408   3.970   5.517   4.243  1.3216  1.2053  0.4367
 8665TIP3   OH247409   1.579   1.287   2.112 -0.6640 -0.0845  0.3304
 8665TIP3    H147410   1.600   1.253   2.025 -0.3995  1.1759 -0.1233
 8665TIP3    H247411   1.593   1.213   2.171  0.8671 -0.4828 -0.4757
 8666TIP3   OH247412   0.551   5.556   2.413 -0.5214 -0.4076 -0.2847
 8666TIP3    H147413   0.607   5.531   2.339  1.5481  1.3955  0.5709
 8666TIP3    H247414   0.545   5.477   2.467  0.4153 -0.8955 -0.8788
 8667TIP3   OH247415   3.062   4.465  15.213  0.5649  0.1985  0.2454
 8667TIP3    H147416   3.097   4.423  15.135 -2.2639  3.0447 -2.8967
 8667TIP3    H247417   2.998   4.402  15.247 -0.6050  0.1285 -1.8813
 8668TIP3   OH247418   5.109   0.425  11.522 -0.4521  0.6348 -0.5674
 8668TIP3    H147419   5.115   0.351  11.582 -0.4502  0.0983 -1.2123
 8668TIP3    H247420   5.098   0.384  11.435 -0.6766  1.3914 -0.9022
 8669TIP3   OH247421   3.139   1.455   3.156 -0.2231 -0.0354 -0.0237
 8669TIP3    H147422   3.117   1.538   3.113 -1.8607 -1.6832 -2.7063
 8669TIP3    H247423   3.211   1.420   3.104  0.3763 -0.3744  1.0138
 8670TIP3   OH247424   4.072   0.522   2.428  0.5575  0.2257  0.0123
 8670TIP3    H147425   4.060   0.456   2.361 -0.0881  1.2767 -0.9417
 8670TIP3    H247426   4.093   0.473   2.507  0.0773 -1.1060 -0.6643
 8671TIP3   OH247427   0.614   0.329  15.202  0.4450  0.1132 -0.0188
 8671TIP3    H147428   0.628   0.406  15.257 -2.2327  1.8044 -1.4708
 8671TIP3    H247429   0.572   0.265  15.260 -0.0565  0.9194  0.5311
 8672TIP3   OH247430   4.653   3.854   2.045 -1.0335  0.3836  0.3131
 8672TIP3    H147431   4.642   3.948   2.063  1.6308  1.1907 -1.5810
 8672TIP3    H247432   4.734   3.831   2.091 -0.3724 -0.3377 -1.1500
 8673TIP3   OH247433   3.383   1.706   2.984 -0.1770 -0.1199 -0.8799
 8673TIP3    H147434   3.372   1.799   3.003  1.2719  0.1976 -1.4558
 8673TIP3    H247435   3.380   1.663   3.070  0.6020  0.6319 -0.4593
 8674TIP3   OH247436   4.907   3.472   0.592  0.2083 -0.4343  0.3369
 8674TIP3    H147437   4.841   3.410   0.623  0.8688 -1.2670  0.1078
 8674TIP3    H247438   4.962   3.421   0.532  1.9480 -0.1552  1.6150
 8675TIP3   OH247439   2.635   1.717   4.999 -0.0578  0.2786 -0.2056
 8675TIP3    H147440   2.697   1.711   4.926 -0.8464 -0.8107 -0.8159
 8675TIP3    H247441   2.574   1.785   4.973  0.9791  1.5125  0.4972
 8676TIP3   OH247442   2.347   3.359  14.947 -0.6318  0.1205 -0.7675
 8676TIP3    H147443   2.295   3.353  15.027 -0.4771  0.9533 -0.5906
 8676TIP3    H247444   2.428   3.402  14.975 -0.5111  0.2711 -1.3408
 8677TIP3   OH247445   6.730   0.605   5.712 -0.2487 -0.2302  0.7808
 8677TIP3    H147446   6.775   0.592   5.796  2.5747  1.3263 -0.3388
 8677TIP3    H247447   6.698   0.695   5.716  1.0542  0.3066 -0.2483
 8678TIP3   OH247448   4.264   1.959   5.904  0.1705 -0.1168 -0.5543
 8678TIP3    H147449   4.339   1.966   5.846  1.2732  2.7690  0.9984
 8678TIP3    H247450   4.301   1.943   5.991 -0.9663  1.0152  0.1896
 8679TIP3   OH247451   2.624   4.249  15.692  0.2159 -0.1504  0.4007
 8679TIP3    H147452   2.582   4.235  15.777  1.5686  0.7882  1.2654
 8679TIP3    H247453   2.672   4.168  15.674  0.0402 -0.2981  0.6021
 8680TIP3   OH247454   6.140   3.362  12.566  0.4599 -0.0510 -0.0108
 8680TIP3    H147455   6.193   3.294  12.524  1.3735  0.5461  0.1450
 8680TIP3    H247456   6.189   3.443  12.551 -2.0191  1.1327 -2.8179
 8681TIP3   OH247457   6.450   2.544  13.387  0.4310  0.0860 -0.0102
 8681TIP3    H147458   6.495   2.509  13.464  0.5704 -1.3212 -0.7040
 8681TIP3    H247459   6.516   2.542  13.318 -0.6266 -2.0150 -1.0492
 8682TIP3   OH247460   6.286   1.698   0.326  0.0779 -0.0341 -0.1505
 8682TIP3    H147461   6.235   1.694   0.245  0.0556 -0.7332 -0.1060
 8682TIP3    H247462   6.298   1.792   0.341 -0.9005  0.1384 -0.3398
 8683TIP3   OH247463   1.260   1.736  12.949  0.3529  0.0119  0.0711
 8683TIP3    H147464   1.305   1.818  12.969  1.0473 -0.6267  1.2448
 8683TIP3    H247465   1.237   1.743  12.857 -0.3677  1.8796  0.3691
 8684TIP3   OH247466   3.713   4.816   2.054 -0.0909  0.0620 -0.0435
 8684TIP3    H147467   3.730   4.806   2.147  1.6514 -0.4870 -0.3869
 8684TIP3    H247468   3.640   4.756   2.036 -0.0555 -0.2585  0.8530
 8685TIP3   OH247469   3.424   3.539   0.972  0.3177 -0.5821  0.2665
 8685TIP3    H147470   3.401   3.474   0.905  2.0925 -1.6886  0.6559
 8685TIP3    H247471   3.505   3.579   0.940 -0.3315  0.9123  0.4195
 8686TIP3   OH247472   3.894   1.597  12.264 -0.1956  0.1920  0.0054
 8686TIP3    H147473   3.960   1.649  12.219 -1.1274  1.1671 -0.2929
 8686TIP3    H247474   3.885   1.639  12.350  1.1375 -1.2885  0.9141
 8687TIP3   OH247475   0.075   1.386  12.295 -0.1551  0.1862  0.1617
 8687TIP3    H147476   0.067   1.439  12.374  1.7875 -0.1073  0.6100
 8687TIP3    H247477   0.119   1.306  12.323 -0.0147 -0.2048 -1.0941
 8688TIP3   OH247478   3.586   0.614  13.035  0.6637  0.1737 -0.5187
 8688TIP3    H147479   3.513   0.570  12.991  0.8773  1.8677 -2.8149
 8688TIP3    H247480   3.639   0.647  12.963  1.4063  2.6331  1.0426
 8689TIP3   OH247481   1.407   6.153  15.716 -0.1010 -0.1125  0.0774
 8689TIP3    H147482   1.473   6.099  15.760  0.6100 -0.4870 -1.3745
 8689TIP3    H247483   1.434   6.243  15.733 -1.2080 -0.1488  2.3856
 8690TIP3   OH247484   1.222   4.293   0.356 -0.4207  0.1663  0.3620
 8690TIP3    H147485   1.278   4.315   0.282  0.6504 -0.6993  0.8783
 8690TIP3    H247486   1.218   4.197   0.356 -1.1095  0.1813  0.9165
 8691TIP3   OH247487   1.281   0.264   1.493  0.2064  0.5865 -0.5581
 8691TIP3    H147488   1.355   0.232   1.441  0.3519  0.7070 -0.4278
 8691TIP3    H247489   1.204   0.232   1.448  0.3669 -1.5053  0.5233
 8692TIP3   OH247490   4.777   5.289   3.182 -0.4658 -0.3357 -0.0202
 8692TIP3    H147491   4.782   5.232   3.105 -0.1512 -1.5141  0.8371
 8692TIP3    H247492   4.688   5.278   3.214 -0.7847  0.6330 -0.5618
 8693TIP3   OH247493   1.955   4.118  16.270 -0.3818  0.1437  0.3100
 8693TIP3    H147494   2.007   4.038  16.257  0.4343  0.6473  0.3734
 8693TIP3    H247495   1.979   4.148  16.357 -2.6815 -0.9443  1.4087
 8694TIP3   OH247496   5.445   6.067  17.089 -0.3562 -0.0270 -0.0449
 8694TIP3    H147497   5.517   6.043  17.031 -0.7313 -0.9869 -0.1294
 8694TIP3    H247498   5.367   6.029  17.047 -0.7951  0.2865  0.4755
 8695TIP3   OH247499   6.196   2.647  15.585  0.0255 -0.2102 -0.3031
 8695TIP3    H147500   6.188   2.659  15.680  2.2143 -1.4429  0.1218
 8695TIP3    H247501   6.228   2.731  15.553  2.0699 -0.6014  0.5460
 8696TIP3   OH247502   3.254   3.706  13.121 -0.1928 -0.1023  0.1166
 8696TIP3    H147503   3.202   3.787  13.125 -2.0761 -1.2927  0.7916
 8696TIP3    H247504   3.234   3.669  13.036 -2.3634 -1.7122  1.2371
 8697TIP3   OH247505   3.389   4.232   3.272 -0.1476  0.9995 -0.0132
 8697TIP3    H147506   3.328   4.191   3.333  0.0626  0.6131 -0.0623
 8697TIP3    H247507   3.374   4.188   3.188  0.5869  0.4992  0.1029
 8698TIP3   OH247508   0.961   1.459  15.863  0.6131  0.2951  0.4448
 8698TIP3    H147509   1.030   1.406  15.823 -0.6306  0.5324 -2.2703
 8698TIP3    H247510   0.923   1.402  15.930  1.4206 -1.0049 -0.1524
 8699TIP3   OH247511   3.323   3.692  13.627  0.5037  0.0026  0.1210
 8699TIP3    H147512   3.415   3.684  13.650  0.4151 -0.3209  0.3679
 8699TIP3    H247513   3.323   3.715  13.534  0.8045 -3.5433 -0.8975
 8700TIP3   OH247514   1.430   2.500  14.155 -0.3719  0.1967 -0.5473
 8700TIP3    H147515   1.443   2.406  14.172  0.4139  0.5249  0.7818
 8700TIP3    H247516   1.340   2.517  14.179  0.1334  0.2234  1.4900
 8701TIP3   OH247517   4.253   6.316   1.970  0.0474 -0.1601  0.4295
 8701TIP3    H147518   4.234   6.396   1.922  0.0812 -0.1112  0.4977
 8701TIP3    H247519   4.299   6.345   2.049  1.7039 -0.3804 -0.4200
 8702TIP3   OH247520   1.963   3.487   5.433  0.1122  0.0700  0.0381
 8702TIP3    H147521   1.944   3.520   5.520  0.0510  1.8539 -0.6198
 8702TIP3    H247522   2.003   3.401   5.448 -2.3833 -0.9165  1.7131
 8703TIP3   OH247523   2.885   4.744   3.552 -0.0610 -0.1578 -0.4122
 8703TIP3    H147524   2.791   4.748   3.569 -0.2376  1.0246 -1.5134
 8703TIP3    H247525   2.899   4.656   3.516 -0.8359 -0.1777 -0.6916
 8704TIP3   OH247526   4.710   0.544   1.211  0.1689  0.0754 -0.5022
 8704TIP3    H147527   4.644   0.538   1.142 -2.0268 -0.4472  1.4937
 8704TIP3    H247528   4.773   0.475   1.190 -2.1664 -2.2650 -0.3593
 8705TIP3   OH247529   2.939   5.917   5.476 -0.1054  0.1748  0.2505
 8705TIP3    H147530   3.029   5.891   5.454  0.8758  2.9243  0.6318
 8705TIP3    H247531   2.912   5.854   5.543  1.9212 -0.1752  0.8181
 8706TIP3   OH247532   1.989   1.796  12.622 -0.2250 -0.0616 -0.2057
 8706TIP3    H147533   1.931   1.722  12.605  0.2881 -0.4388 -0.3119
 8706TIP3    H247534   2.052   1.764  12.687 -1.9963  1.2777  2.3419
 8707TIP3   OH247535   2.491   5.909   3.602 -0.2855 -0.2364 -0.1927
 8707TIP3    H147536   2.528   5.911   3.690  1.5283 -2.1692 -0.8072
 8707TIP3    H247537   2.561   5.870   3.548 -2.0815 -1.0307 -2.0836
 8708TIP3   OH247538   1.131   3.865  14.428 -0.3023  0.5305  0.3077
 8708TIP3    H147539   1.151   3.919  14.352 -0.9789  0.2326 -0.0992
 8708TIP3    H247540   1.097   3.926  14.494 -0.4736  0.6849  0.0755
 8709TIP3   OH247541   5.655   3.371  14.145  0.6167 -0.5029 -0.2238
 8709TIP3    H147542   5.625   3.303  14.085  0.8841 -0.2947 -0.6018
 8709TIP3    H247543   5.595   3.366  14.220 -0.7724  0.3062 -1.2183
 8710TIP3   OH247544   2.843   5.270   5.181  0.3585  1.0870  0.0144
 8710TIP3    H147545   2.869   5.362   5.182 -0.2492  1.2694 -0.3050
 8710TIP3    H247546   2.770   5.265   5.243 -3.7677  2.1499 -4.1221
 8711TIP3   OH247547   0.280   6.350  16.844  0.3376 -0.0122  0.0435
 8711TIP3    H147548   0.218   6.376  16.913 -0.5775 -1.5228 -0.1601
 8711TIP3    H247549   0.231   6.288  16.790  1.5004  0.0727 -1.1552
 8712TIP3   OH247550   3.961   6.129   3.210  0.3713  0.5079  0.0323
 8712TIP3    H147551   3.913   6.156   3.288  0.7233  1.9095 -0.2245
 8712TIP3    H247552   4.001   6.045   3.235 -1.4580 -0.2653  0.5446
 8713TIP3   OH247553   3.081   3.449   0.651  0.5079 -0.0290 -0.6410
 8713TIP3    H147554   3.005   3.501   0.624  0.5078  0.2881 -0.0454
 8713TIP3    H247555   3.140   3.513   0.692  1.1945 -0.2337 -1.3010
 8714TIP3   OH247556   1.050   5.283  16.536 -0.4687 -0.1922 -0.2901
 8714TIP3    H147557   1.043   5.317  16.447 -1.2796 -1.1451 -0.6046
 8714TIP3    H247558   1.144   5.283  16.554 -0.1972 -0.9619 -1.5524
 8715TIP3   OH247559   0.435   2.935   1.555 -0.6610 -0.1027 -0.4856
 8715TIP3    H147560   0.406   2.859   1.504 -2.2463  0.1312  0.0056
 8715TIP3    H247561   0.413   3.010   1.500  0.0245  0.0566 -0.5538
 8716TIP3   OH247562   1.752   5.856  17.210  0.5164  0.1357 -0.7280
 8716TIP3    H147563   1.757   5.851  17.305  0.6928 -0.1951 -0.7554
 8716TIP3    H247564   1.841   5.839  17.179  0.1502 -1.4338 -1.0113
 8717TIP3   OH247565   4.029   3.437  12.562  0.3530 -0.1498 -0.2548
 8717TIP3    H147566   4.104   3.445  12.622  0.2767 -0.0838 -0.1681
 8717TIP3    H247567   3.959   3.487  12.604 -0.0808 -1.1248  0.2050
 8718TIP3   OH247568   1.493   6.361  11.845 -0.6630 -0.1111  0.3861
 8718TIP3    H147569   1.463   6.324  11.928 -1.3230 -0.4532  0.0053
 8718TIP3    H247570   1.472   6.293  11.780 -1.8616  0.8998 -0.3196
 8719TIP3   OH247571   2.936   1.318  16.221 -0.0296 -0.2153  0.6292
 8719TIP3    H147572   2.862   1.366  16.258 -1.0239 -2.3611  1.6234
 8719TIP3    H247573   2.981   1.382  16.167 -1.6044  1.6432  1.3734
 8720TIP3   OH247574   0.701   6.551  13.951 -0.7388 -0.1255 -0.1703
 8720TIP3    H147575   0.614   6.591  13.946 -0.0567  1.7741  1.6888
 8720TIP3    H247576   0.762   6.624  13.951  0.7684 -1.3231  0.1976
 8721TIP3   OH247577   3.100   6.356  11.772 -0.1291  0.1253 -0.0914
 8721TIP3    H147578   3.170   6.329  11.831  0.3303  0.3341 -0.5299
 8721TIP3    H247579   3.066   6.275  11.735 -0.6868 -0.0364  0.7456
 8722TIP3   OH247580   2.358   4.480  16.684 -0.4443 -0.0652  0.3809
 8722TIP3    H147581   2.426   4.535  16.721 -0.2133  0.4072 -0.7054
 8722TIP3    H247582   2.406   4.407  16.644 -0.5506  0.2881 -0.4191
 8723TIP3   OH247583   2.645   3.586  14.259  0.5172 -0.3478  0.0867
 8723TIP3    H147584   2.564   3.635  14.249  0.8730  0.2885  0.2774
 8723TIP3    H247585   2.711   3.637  14.212  0.9859 -0.4036  0.6650
 8724TIP3   OH247586   5.566   0.865  10.671 -0.7039  0.1167 -0.1971
 8724TIP3    H147587   5.556   0.814  10.590  0.4921  0.3783 -0.5251
 8724TIP3    H247588   5.492   0.926  10.670 -0.1139  0.8688 -1.6764
 8725TIP3   OH247589   4.906   6.063  13.459  0.4438 -0.4304  0.8678
 8725TIP3    H147590   4.970   5.996  13.434 -0.9881 -0.8841 -1.9795
 8725TIP3    H247591   4.940   6.144  13.422 -0.8376 -0.7862 -1.2238
 8726TIP3   OH247592   0.904   4.126   4.663 -0.0534 -0.1908  0.0234
 8726TIP3    H147593   0.824   4.145   4.711  1.0429  0.4611  1.6868
 8726TIP3    H247594   0.932   4.212   4.630  0.7712 -0.1385  0.8215
 8727TIP3   OH247595   2.996   3.442  11.813 -0.1782 -0.3988  0.0174
 8727TIP3    H147596   3.046   3.399  11.744 -1.2288  0.0277 -1.0476
 8727TIP3    H247597   2.905   3.416  11.796 -1.1203  3.3038 -1.6020
 8728TIP3   OH247598   4.029   0.488   1.752  0.2021  0.0908 -0.2946
 8728TIP3    H147599   4.021   0.458   1.842 -0.6546 -0.9239 -0.6936
 8728TIP3    H247600   4.115   0.455   1.724  0.3001  0.0695  0.0244
 8729TIP3   OH247601   1.294   2.083  13.755  0.1231 -0.2276 -0.4369
 8729TIP3    H147602   1.257   2.033  13.828 -0.0634 -0.0637 -0.4219
 8729TIP3    H247603   1.376   2.037  13.735  0.8313  0.4913  0.7234
 8730TIP3   OH247604   1.381   1.506   4.969 -0.1708 -0.1702  0.1904
 8730TIP3    H147605   1.288   1.514   4.948 -0.2499  0.5901  0.7715
 8730TIP3    H247606   1.416   1.595   4.954  0.6618 -0.6515 -0.9248
 8731TIP3   OH247607   1.976   3.986   1.048  0.1404  1.0373 -0.0404
 8731TIP3    H147608   2.066   4.013   1.032  0.1629  1.5283  0.8113
 8731TIP3    H247609   1.970   3.980   1.144 -0.2545 -0.6777 -0.1567
 8732TIP3   OH247610   5.090   6.403  16.324 -0.0751 -0.4571  0.2322
 8732TIP3    H147611   5.162   6.435  16.270 -0.3968  0.5434  0.3840
 8732TIP3    H247612   5.061   6.479  16.374 -1.3852 -0.7883  0.0105
 8733TIP3   OH247613   5.090   2.880  17.336  0.0837  0.4061 -0.0972
 8733TIP3    H147614   5.031   2.892  17.261  1.4002 -0.1400 -1.2781
 8733TIP3    H247615   5.078   2.957  17.390 -0.2120  1.2860 -1.3807
 8734TIP3   OH247616   1.750   3.435   0.454 -0.7432  0.4485 -0.4958
 8734TIP3    H147617   1.765   3.407   0.363  0.7318  0.5240 -0.3031
 8734TIP3    H247618   1.754   3.530   0.451 -0.0237  0.4323 -0.2624
 8735TIP3   OH247619   0.550   6.378  16.713  0.3842  0.1236  0.2607
 8735TIP3    H147620   0.471   6.378  16.767  1.6792  1.9935  2.3285
 8735TIP3    H247621   0.610   6.319  16.758  1.2854  1.2629  0.6074
 8736TIP3   OH247622   4.961   5.143  13.693 -0.1242  0.0480 -0.2193
 8736TIP3    H147623   4.940   5.180  13.608 -0.6627 -0.8841 -0.5093
 8736TIP3    H247624   4.938   5.211  13.756 -1.8732 -0.0734 -0.6780
 8737TIP3   OH247625   1.045   6.580  14.532 -0.3948  0.1747 -0.1906
 8737TIP3    H147626   0.984   6.652  14.543  1.1138  1.1391  2.6145
 8737TIP3    H247627   1.034   6.526  14.610 -0.2912 -1.7333 -1.4283
 8738TIP3   OH247628   5.090   1.740   5.384  0.0893 -0.3505  0.5865
 8738TIP3    H147629   5.053   1.708   5.467 -0.5101 -0.3982  0.3113
 8738TIP3    H247630   5.096   1.834   5.395 -0.2963 -0.3206  0.5732
 8739TIP3   OH247631   2.311   3.698  16.552 -0.1034 -0.0440  0.1451
 8739TIP3    H147632   2.337   3.614  16.589  0.2054  0.6181  1.4854
 8739TIP3    H247633   2.245   3.675  16.486  1.6417 -1.4970 -1.1933
 8740TIP3   OH247634   5.579   2.623  11.810  0.4154 -0.6182  0.1573
 8740TIP3    H147635   5.604   2.707  11.771 -0.3605 -0.1391  0.6635
 8740TIP3    H247636   5.600   2.558  11.743 -0.7956  0.1786 -1.0389
 8741TIP3   OH247637   5.127   4.065   2.055 -0.0264 -0.3341  0.0583
 8741TIP3    H147638   5.162   3.980   2.028 -0.8271 -0.3071 -1.1123
 8741TIP3    H247639   5.154   4.126   1.986 -1.4205 -0.1039 -0.3170
 8742TIP3   OH247640   5.148   0.198  13.871 -0.1816 -0.1441  0.3485
 8742TIP3    H147641   5.187   0.247  13.943  0.8674  0.7201 -0.7535
 8742TIP3    H247642   5.213   0.204  13.801 -0.5279 -2.1642 -0.2154
 8743TIP3   OH247643   3.387   3.827  11.761 -0.7556  0.3313  0.0468
 8743TIP3    H147644   3.314   3.765  11.757  0.3391 -0.9108 -1.9434
 8743TIP3    H247645   3.465   3.773  11.749  0.3626  1.9115 -0.0961
 8744TIP3   OH247646   1.810   3.488  11.879  0.5816 -0.4671  0.2828
 8744TIP3    H147647   1.836   3.451  11.964  0.7288 -2.4968 -0.6109
 8744TIP3    H247648   1.893   3.496  11.831  0.5613  1.1375  0.4650
 8745TIP3   OH247649   0.574   1.763   4.297 -0.4124  0.2522 -0.5930
 8745TIP3    H147650   0.584   1.857   4.312  2.7668 -0.0374 -0.3808
 8745TIP3    H247651   0.644   1.740   4.236  1.3404 -2.5417  2.1549
 8746TIP3   OH247652   4.566   6.239   2.990 -0.5923 -0.2155 -0.3681
 8746TIP3    H147653   4.595   6.201   2.908 -1.5305  1.6273 -1.6369
 8746TIP3    H247654   4.645   6.248   3.042  0.4522  0.7859 -2.0421
 8747TIP3   OH247655   0.749   1.688   4.786  0.4752 -0.1360 -0.1193
 8747TIP3    H147656   0.656   1.674   4.769 -0.3881  3.8913  0.4943
 8747TIP3    H247657   0.788   1.698   4.699 -0.3318  1.4414 -0.3198
 8748TIP3   OH247658   2.184   0.701  16.097  0.0866 -0.3726  0.8125
 8748TIP3    H147659   2.194   0.764  16.025 -1.4912  0.4768  1.2824
 8748TIP3    H247660   2.100   0.723  16.136  0.1392 -1.9121  1.8786
 8749TIP3   OH247661   5.613   5.415  16.365  0.3110 -0.2440 -0.1748
 8749TIP3    H147662   5.571   5.334  16.337  1.0554 -0.3439 -1.0416
 8749TIP3    H247663   5.629   5.403  16.459  1.5071 -1.6174 -0.5211
 8750TIP3   OH247664   0.318   2.707   6.610 -0.0213  0.3668  0.0762
 8750TIP3    H147665   0.256   2.638   6.637  2.1481 -2.0847 -0.7500
 8750TIP3    H247666   0.401   2.661   6.601  1.2442  2.8510 -2.0522
 8751TIP3   OH247667   5.505   5.075   5.998 -0.2331  0.1798 -0.2203
 8751TIP3    H147668   5.548   4.995   5.969  1.5515  1.6140 -1.8278
 8751TIP3    H247669   5.431   5.086   5.938  0.3315  0.4098 -0.8891
 8752TIP3   OH247670   4.839   1.336  11.389 -0.6475  0.3795 -0.4418
 8752TIP3    H147671   4.832   1.330  11.484 -0.7946 -2.7663 -0.5454
 8752TIP3    H247672   4.767   1.394  11.364 -1.1322  0.5957  1.3080
 8753TIP3   OH247673   0.545   1.479   3.561  0.6080  0.2091  0.8919
 8753TIP3    H147674   0.501   1.524   3.633  1.5103  0.9011  1.0420
 8753TIP3    H247675   0.480   1.475   3.491  0.9186  3.1560  0.3088
 8754TIP3   OH247676   1.492   0.382  17.179 -0.6751 -0.7259  0.1379
 8754TIP3    H147677   1.479   0.449  17.112 -0.4637  0.6940  1.4624
 8754TIP3    H247678   1.489   0.300  17.131  0.6176  0.2811 -1.7913
 8755TIP3   OH247679   4.105   6.529   5.274  0.1874 -0.1412  0.6776
 8755TIP3    H147680   4.140   6.443   5.251  0.0943 -0.4155  1.5165
 8755TIP3    H247681   4.048   6.553   5.201  1.1720 -0.2252 -0.1521
 8756TIP3   OH247682   4.267   3.920   6.399  0.1166  0.4235  0.3754
 8756TIP3    H147683   4.263   3.968   6.482  1.0269  0.1984  0.5697
 8756TIP3    H247684   4.193   3.952   6.349 -0.4695  0.5463  1.2853
 8757TIP3   OH247685   3.702   2.601   5.545  0.1936  0.3498  0.2509
 8757TIP3    H147686   3.617   2.588   5.502  0.5394  0.5886 -0.5126
 8757TIP3    H247687   3.679   2.623   5.635 -0.5698  0.5864  0.0123
 8758TIP3   OH247688   1.235   5.829  14.665  0.0329  0.3649  0.4896
 8758TIP3    H147689   1.163   5.875  14.622  2.5279  1.8082 -2.5990
 8758TIP3    H247690   1.230   5.740  14.632  0.8800  1.0342 -1.6621
 8759TIP3   OH247691   4.541   1.648  16.187  0.1555 -0.1711  0.1536
 8759TIP3    H147692   4.598   1.619  16.115  0.5010 -1.6941  0.9951
 8759TIP3    H247693   4.453   1.645  16.150  0.4443  0.4832 -0.6336
 8760TIP3   OH247694   2.873   1.023  15.262  0.2390  0.5245 -0.0964
 8760TIP3    H147695   2.814   1.098  15.262  0.1599  0.4747  0.7899
 8760TIP3    H247696   2.878   0.996  15.354 -0.3923 -1.0852 -0.5020
 8761TIP3   OH247697   1.117   0.194   0.490 -0.2128  0.6975 -0.1087
 8761TIP3    H147698   1.190   0.162   0.436  0.9595  0.9347  1.2595
 8761TIP3    H247699   1.147   0.279   0.522 -1.4526  1.1677 -0.1688
 8762TIP3   OH247700   0.009   4.349   5.675  0.4865  0.0432 -0.2699
 8762TIP3    H147701   0.021   4.444   5.673 -0.1403  0.1509 -3.3210
 8762TIP3    H247702  -0.051   4.330   5.603 -0.2245 -2.6169  0.8674
 8763TIP3   OH247703   0.947   6.409   2.110  0.1951 -0.0386 -0.0005
 8763TIP3    H147704   0.852   6.407   2.122  0.2158 -0.7418  0.0553
 8763TIP3    H247705   0.964   6.494   2.068 -0.2061  1.1759  2.1309
 8764TIP3   OH247706   6.577   6.736  14.896 -0.6145  0.3798 -0.3721
 8764TIP3    H147707   6.564   6.646  14.866 -2.7713  1.2641 -2.3939
 8764TIP3    H247708   6.671   6.751  14.887 -0.4041 -1.2546 -1.2666
 8765TIP3   OH247709   5.033   3.902   4.455 -0.1179 -0.1985  0.0915
 8765TIP3    H147710   4.974   3.839   4.413  1.2799 -1.3321 -0.2320
 8765TIP3    H247711   4.993   3.987   4.437 -0.8346 -0.8230 -1.4590
 8766TIP3   OH247712   2.339   6.123   2.798 -0.3597  0.2027  0.3935
 8766TIP3    H147713   2.300   6.102   2.883 -0.3737 -0.3586  0.2528
 8766TIP3    H247714   2.370   6.039   2.765  0.8504  0.6174  0.4379
 8767TIP3   OH247715   4.114   5.966  14.865 -0.0920  0.8190 -0.0224
 8767TIP3    H147716   4.169   5.889  14.857 -1.3356 -0.1638  0.4542
 8767TIP3    H247717   4.169   6.031  14.910  0.8314  0.0592 -0.0356
 8768TIP3   OH247718   2.585   6.098   0.487  0.3600  0.5137 -0.0103
 8768TIP3    H147719   2.656   6.103   0.423 -0.0859 -0.5403 -0.6157
 8768TIP3    H247720   2.515   6.052   0.441 -0.0585 -0.0695  1.1680
 8769TIP3   OH247721   2.239   1.270   3.538 -0.6333 -0.8531 -0.0366
 8769TIP3    H147722   2.265   1.185   3.574 -2.0447 -0.7787  1.2268
 8769TIP3    H247723   2.148   1.280   3.564 -0.0048  1.8722  1.4268
 8770TIP3   OH247724   3.832   5.175   2.286  0.6077  0.1037  0.3822
 8770TIP3    H147725   3.781   5.094   2.285 -0.3272  0.6909 -0.2977
 8770TIP3    H247726   3.784   5.234   2.344  1.6430 -0.0253  1.4160
 8771TIP3   OH247727   5.525   1.588  15.194  0.3501 -0.1150  0.5628
 8771TIP3    H147728   5.487   1.507  15.162  1.5785 -1.0230  1.3034
 8771TIP3    H247729   5.617   1.583  15.168  0.0565  1.9601 -1.1056
 8772TIP3   OH247730   4.050   4.517   2.902 -0.4648 -0.7224  0.4779
 8772TIP3    H147731   4.088   4.531   2.989 -0.6174 -0.4620  0.5036
 8772TIP3    H247732   4.122   4.481   2.850  0.6722  2.3530 -0.2607
 8773TIP3   OH247733   4.466   1.494  11.980 -0.7908  0.0831  0.1922
 8773TIP3    H147734   4.433   1.414  11.938 -1.5469  1.4245 -1.9648
 8773TIP3    H247735   4.406   1.510  12.053  0.1179 -1.9428  1.4503
 8774TIP3   OH247736   0.588   4.276   2.759 -0.1159  0.4378 -0.2281
 8774TIP3    H147737   0.499   4.279   2.725  0.0569  0.1366 -0.7260
 8774TIP3    H247738   0.596   4.355   2.813 -1.0473 -0.1418  0.7805
 8775TIP3   OH247739   0.371   3.900  15.342 -0.5720 -0.1495 -0.3661
 8775TIP3    H147740   0.381   3.826  15.283 -0.7606  0.2179 -0.8624
 8775TIP3    H247741   0.405   3.869  15.426  0.0970 -0.5297 -0.7744
 8776TIP3   OH247742   3.109   0.092   2.870 -0.5111 -0.1028  0.4439
 8776TIP3    H147743   3.194   0.063   2.839  0.9281  1.6288  2.5223
 8776TIP3    H247744   3.072   0.016   2.916  0.0485 -0.7393 -0.1386
 8777TIP3   OH247745   4.103   3.876   4.865  0.6717  0.1431  0.2571
 8777TIP3    H147746   4.155   3.913   4.794  4.2897 -0.7705  2.1871
 8777TIP3    H247747   4.076   3.790   4.833 -0.5709  1.0244 -1.1458
 8778TIP3   OH247748   6.473   0.873  17.207  0.2109 -0.2351 -0.4074
 8778TIP3    H147749   6.428   0.811  17.264  1.8394 -0.4408  0.7128
 8778TIP3    H247750   6.497   0.945  17.264  1.2236 -0.0912 -0.9972
 8779TIP3   OH247751   5.866   2.083  14.840 -0.3208  1.2631 -0.3855
 8779TIP3    H147752   5.957   2.055  14.827  0.2527  1.2252  2.7781
 8779TIP3    H247753   5.819   2.048  14.765  1.7782 -1.3010 -0.6457
 8780TIP3   OH247754   1.130   5.838   2.590 -0.3823  0.2796 -0.2608
 8780TIP3    H147755   1.120   5.863   2.498  0.9950  0.3287 -0.4256
 8780TIP3    H247756   1.122   5.743   2.590  0.6196  0.1808 -0.6051
 8781TIP3   OH247757   6.396   3.041  13.004  0.3168  0.4052  0.0630
 8781TIP3    H147758   6.484   3.003  12.992  0.5558  0.6861  0.9118
 8781TIP3    H247759   6.348   3.014  12.925  1.1026  0.0792 -0.3162
 8782TIP3   OH247760   1.082   5.402  11.962  0.8503  0.0660 -0.6366
 8782TIP3    H147761   1.055   5.371  11.876  1.0867 -0.2642 -0.5954
 8782TIP3    H247762   1.123   5.326  12.003  0.6112  0.1832 -0.1771
 8783TIP3   OH247763   5.721   2.492  12.142  0.5771 -0.4982  0.0119
 8783TIP3    H147764   5.679   2.559  12.196  0.0601 -2.7216  2.6331
 8783TIP3    H247765   5.788   2.538  12.093  0.3612  1.8980  1.7954
 8784TIP3   OH247766   2.398   0.502   2.597  0.3057  0.2608  0.0607
 8784TIP3    H147767   2.319   0.455   2.621  1.5874 -0.3199  3.7604
 8784TIP3    H247768   2.463   0.433   2.580  0.5361  0.7257 -1.0234
 8785TIP3   OH247769   5.361   1.870   3.010  0.0506 -0.2980 -0.2161
 8785TIP3    H147770   5.337   1.931   2.939  0.3033  0.0490 -0.0055
 8785TIP3    H247771   5.326   1.785   2.981  0.3680 -0.2112 -0.8780
 8786TIP3   OH247772   6.402   1.360  14.305 -0.2669 -0.0284  0.6760
 8786TIP3    H147773   6.331   1.312  14.261  0.8868 -1.0570 -0.1307
 8786TIP3    H247774   6.447   1.293  14.357  0.4220  0.5010  0.7674
 8787TIP3   OH247775   5.669   4.107   4.413  0.4052  0.0765 -0.9392
 8787TIP3    H147776   5.762   4.126   4.406  0.8586 -2.0958 -1.7914
 8787TIP3    H247777   5.625   4.188   4.390  2.0580  1.4603  0.5074
 8788TIP3   OH247778   1.353   4.447   0.147 -0.7233 -0.0086 -0.0532
 8788TIP3    H147779   1.352   4.464   0.053 -1.8739  0.2203 -0.0128
 8788TIP3    H247780   1.367   4.533   0.187 -0.2448 -0.1040 -0.0095
 8789TIP3   OH247781   1.161   0.722   3.878 -0.1646 -0.1233  0.0138
 8789TIP3    H147782   1.161   0.813   3.909  0.7533 -0.0555 -0.1697
 8789TIP3    H247783   1.228   0.720   3.810 -1.3155 -0.5571 -1.1356
 8790TIP3   OH247784   3.659   2.838   4.714  0.0118  0.0537  0.1052
 8790TIP3    H147785   3.620   2.833   4.801  0.3327 -0.1950  0.2413
 8790TIP3    H247786   3.648   2.929   4.687 -3.3292 -0.5923 -1.1296
 8791TIP3   OH247787   5.582   3.635   1.067 -0.3482  0.1221 -0.1835
 8791TIP3    H147788   5.536   3.658   0.987  2.4411  2.3044 -1.3463
 8791TIP3    H247789   5.589   3.717   1.116  0.0241 -0.6806  1.1781
 8792TIP3   OH247790   2.194   6.600   5.044  0.7996 -0.2166  0.1777
 8792TIP3    H147791   2.239   6.518   5.025 -0.7610 -1.0537 -0.0177
 8792TIP3    H247792   2.264   6.665   5.046  2.1267 -1.6006  0.7459
 8793TIP3   OH247793   0.653   3.248  15.499  0.3062 -0.3956  0.2471
 8793TIP3    H147794   0.610   3.163  15.500 -1.0107  0.2585  0.3711
 8793TIP3    H247795   0.596   3.305  15.550  0.0968  1.0647 -1.5128
 8794TIP3   OH247796   4.380   5.361  13.141  0.0637  0.5380  0.1910
 8794TIP3    H147797   4.389   5.453  13.115 -1.7044  0.9483  0.9269
 8794TIP3    H247798   4.294   5.335  13.109  0.1261 -0.5790  0.8707
 8795TIP3   OH247799   2.462   0.829   0.648 -0.1899  0.6554  0.2328
 8795TIP3    H147800   2.458   0.905   0.589  0.4636  0.4099 -0.1360
 8795TIP3    H247801   2.452   0.754   0.589 -1.0404  0.4577  0.6194
 8796TIP3   OH247802   5.706   2.544   4.904 -0.9679 -0.9652  0.9826
 8796TIP3    H147803   5.660   2.531   4.822 -0.6855 -0.8516  0.8033
 8796TIP3    H247804   5.737   2.457   4.929  0.0865 -0.8050  0.2842
 8797TIP3   OH247805   5.242   2.641   0.156 -0.1988 -0.6654  1.0888
 8797TIP3    H147806   5.292   2.560   0.166 -1.6340 -1.5316  1.6621
 8797TIP3    H247807   5.174   2.619   0.092  0.6696  0.7648 -0.3993
 8798TIP3   OH247808   0.042   1.127  12.732 -0.2016 -0.1823  0.3076
 8798TIP3    H147809   0.005   1.042  12.758  1.6297 -0.1219  3.6029
 8798TIP3    H247810  -0.006   1.149  12.653 -1.3229 -3.9024 -0.2839
 8799TIP3   OH247811   2.177   3.000  13.466  0.1449 -0.2487  0.1782
 8799TIP3    H147812   2.125   3.079  13.475 -1.0682 -1.0590  0.5330
 8799TIP3    H247813   2.158   2.949  13.545  1.1840 -0.7424  0.1321
 8800TIP3   OH247814   6.475   0.670  13.835 -0.2210 -0.1027 -0.2432
 8800TIP3    H147815   6.392   0.655  13.880 -0.3738  0.2792 -0.3991
 8800TIP3    H247816   6.466   0.623  13.752 -0.6004  0.6111 -0.6169
 8801TIP3   OH247817   0.337   0.852   4.953 -0.5844  0.0338  0.0020
 8801TIP3    H147818   0.411   0.899   4.991 -1.6986  0.8244  1.2529
 8801TIP3    H247819   0.263   0.871   5.010 -1.9513 -0.1303 -1.6177
 8802TIP3   OH247820   0.337   3.308   4.739  0.3543 -0.6051  0.1918
 8802TIP3    H147821   0.329   3.392   4.783 -0.3566 -0.9003  0.6398
 8802TIP3    H247822   0.296   3.321   4.654 -1.5127 -1.0083  0.9814
 8803TIP3   OH247823   1.652   6.527   5.447  0.3104 -0.3332  0.3871
 8803TIP3    H147824   1.631   6.617   5.474  2.2821  0.4713 -0.5070
 8803TIP3    H247825   1.601   6.513   5.367 -0.0650 -0.0269  0.5709
 8804TIP3   OH247826   1.409   1.797   4.884  0.4138  0.6509 -0.4868
 8804TIP3    H147827   1.347   1.795   4.812 -0.2303  0.0520  0.0786
 8804TIP3    H247828   1.486   1.842   4.848  1.0044 -1.6093 -2.2669
 8805TIP3   OH247829   2.058   1.197  13.692 -0.1497 -0.0007  0.4095
 8805TIP3    H147830   2.077   1.257  13.620  0.8693 -2.2465 -1.3213
 8805TIP3    H247831   1.963   1.201  13.703 -0.1941  1.2106 -0.2868
 8806TIP3   OH247832   3.214   2.342  17.219 -0.3244  0.2577 -0.3885
 8806TIP3    H147833   3.156   2.296  17.279 -1.7344  0.9154 -1.1921
 8806TIP3    H247834   3.156   2.376  17.150  1.2921 -0.9948 -2.4898
 8807TIP3   OH247835   0.516   5.710   3.011  0.6003  0.2218 -0.0559
 8807TIP3    H147836   0.491   5.801   2.994  2.3494  0.5731 -0.9615
 8807TIP3    H247837   0.510   5.700   3.106  1.5775  1.6572  0.1777
 8808TIP3   OH247838   2.609   2.010   5.693 -0.5507  0.1925 -0.3395
 8808TIP3    H147839   2.625   1.992   5.786  0.8588 -0.1916 -0.6336
 8808TIP3    H247840   2.691   1.986   5.650 -0.9749  0.9517 -1.6113
 8809TIP3   OH247841   5.316   2.261   2.979  0.4583 -0.4834  0.1195
 8809TIP3    H147842   5.371   2.195   2.935  1.4059 -0.1715  0.7971
 8809TIP3    H247843   5.332   2.342   2.930  0.0502 -0.5399 -0.1117
 8810TIP3   OH247844   5.282   1.742  11.273  0.0353 -0.4856  1.0123
 8810TIP3    H147845   5.308   1.728  11.364  0.3775 -0.9394  0.8431
 8810TIP3    H247846   5.351   1.701  11.221 -0.1226 -0.1695  0.5428
 8811TIP3   OH247847   0.573   1.075   5.690  0.1250 -0.1004  0.0294
 8811TIP3    H147848   0.502   1.041   5.743 -1.3325 -0.5969 -2.1132
 8811TIP3    H247849   0.592   1.006   5.626  1.2348  0.7626 -0.6324
 8812TIP3   OH247850   4.495   4.138   1.156  0.7200  0.5097 -0.3149
 8812TIP3    H147851   4.420   4.085   1.130  0.4261  0.7139  0.0979
 8812TIP3    H247852   4.571   4.081   1.144  0.3495 -0.2277  0.7288
 8813TIP3   OH247853   0.035   1.627  13.433  0.2180  0.1410 -0.2949
 8813TIP3    H147854   0.129   1.622  13.445  0.2015  0.5691  0.0390
 8813TIP3    H247855   0.001   1.547  13.474  0.3182  0.7205  0.9719
 8814TIP3   OH247856   4.929   0.493  16.636  0.2627 -0.3806 -0.0472
 8814TIP3    H147857   4.920   0.417  16.693  0.6395  0.1632  0.7568
 8814TIP3    H247858   4.844   0.538  16.642 -0.1945 -1.0797 -1.0496
 8815TIP3   OH247859   0.386   5.116   2.855 -0.1573 -0.2405 -0.0247
 8815TIP3    H147860   0.377   5.145   2.946  1.1378  0.4092 -0.0753
 8815TIP3    H247861   0.481   5.108   2.842 -0.3690 -2.0965 -0.7835
 8816TIP3   OH247862   0.780   0.138  12.885 -0.2737  0.6158  0.8095
 8816TIP3    H147863   0.863   0.095  12.907  0.1535  1.2998  0.5583
 8816TIP3    H247864   0.785   0.223  12.928 -1.1114  0.4363  1.2870
 8817TIP3   OH247865   3.419   3.083   3.858 -0.2595  0.0891 -0.5232
 8817TIP3    H147866   3.514   3.091   3.851 -0.2234 -0.2885 -0.5083
 8817TIP3    H247867   3.389   3.168   3.890  0.0955  0.1265 -0.2933
 8818TIP3   OH247868   4.883   1.355  11.699 -0.4924  0.2149 -0.3129
 8818TIP3    H147869   4.806   1.409  11.715  0.0346  1.3360 -1.3900
 8818TIP3    H247870   4.915   1.332  11.786 -2.2279 -0.5778  0.1587
 8819TIP3   OH247871   0.157   0.481   1.970  0.5053  0.9147  0.1860
 8819TIP3    H147872   0.093   0.475   2.041  0.0023  0.8135 -0.2667
 8819TIP3    H247873   0.114   0.533   1.903  0.2705 -0.4624 -0.7746
 8820TIP3   OH247874   1.577   4.923   3.691 -1.0258 -0.4045  0.1814
 8820TIP3    H147875   1.541   4.932   3.603 -1.2157  0.0422  0.3010
 8820TIP3    H247876   1.667   4.893   3.677 -0.9516 -0.0316 -0.1802
 8821TIP3   OH247877   4.109   1.221  14.318 -0.0539 -0.1409 -0.0470
 8821TIP3    H147878   4.066   1.273  14.385  1.2353 -1.3157  1.8073
 8821TIP3    H247879   4.103   1.131  14.349  0.5585 -0.7480 -1.5458
 8822TIP3   OH247880   3.714   3.411   4.579  1.0332 -0.6018  0.0924
 8822TIP3    H147881   3.782   3.381   4.639  2.8536  1.6589 -0.6995
 8822TIP3    H247882   3.746   3.386   4.492  0.8575  0.3872 -0.2771
 8823TIP3   OH247883   1.407   1.642   1.192 -0.3546  0.1863  0.3232
 8823TIP3    H147884   1.491   1.666   1.153  0.5400 -1.4191  1.1409
 8823TIP3    H247885   1.389   1.712   1.255 -1.1074  2.0327 -1.8538
 8824TIP3   OH247886   1.628   4.013   0.131 -0.0066  0.1928  0.3266
 8824TIP3    H147887   1.663   4.069   0.200  0.8888  0.1370 -0.0619
 8824TIP3    H247888   1.568   4.069   0.082  2.0452  1.3341 -1.0242
 8825TIP3   OH247889   6.251   1.545   1.531  0.8007 -0.4940 -0.0518
 8825TIP3    H147890   6.340   1.555   1.565  1.5319 -2.0409 -1.3779
 8825TIP3    H247891   6.250   1.459   1.491 -0.9627 -0.0384 -1.1107
 8826TIP3   OH247892   1.427   5.469   1.824 -0.6002 -0.2588  0.0900
 8826TIP3    H147893   1.449   5.455   1.916 -1.0687 -3.1399 -0.1339
 8826TIP3    H247894   1.482   5.542   1.796  0.6507 -0.3078  2.2409
 8827TIP3   OH247895   3.554   3.053  14.658 -0.4873  0.4046  0.0595
 8827TIP3    H147896   3.641   3.055  14.697  0.4937 -2.5837 -1.6615
 8827TIP3    H247897   3.528   2.961  14.660 -2.3097  0.7665 -2.1096
 8828TIP3   OH247898   0.415   3.178   5.096 -0.1590 -0.7835  0.2113
 8828TIP3    H147899   0.332   3.200   5.053  0.2411  0.7646  0.1992
 8828TIP3    H247900   0.412   3.082   5.106 -2.3594 -0.6899  1.0527
 8829TIP3   OH247901   2.721   4.864   0.890 -0.2898  0.6388 -0.1230
 8829TIP3    H147902   2.656   4.818   0.944 -0.5331  0.7146 -0.3477
 8829TIP3    H247903   2.669   4.915   0.828 -0.0142  0.7515 -0.2644
 8830TIP3   OH247904   5.006   6.304  11.015 -0.3351  0.6393 -0.1049
 8830TIP3    H147905   5.016   6.211  11.034 -0.3166  0.5077 -0.7234
 8830TIP3    H247906   5.091   6.342  11.038 -0.0278  0.3446 -0.7164
 8831TIP3   OH247907   2.737   2.058   0.332 -0.0805 -0.9457  0.1463
 8831TIP3    H147908   2.652   2.093   0.305 -0.0118 -0.7918  0.1232
 8831TIP3    H247909   2.738   2.068   0.427 -0.1976 -1.1992  0.1737
 8832TIP3   OH247910   4.199   5.599   3.577  0.4569  0.9207 -0.0091
 8832TIP3    H147911   4.263   5.653   3.531  1.5861  0.8194  1.3533
 8832TIP3    H247912   4.116   5.644   3.567  0.8832  1.4670 -1.1753
 8833TIP3   OH247913   4.559   1.776  16.687 -0.3595 -0.4420  0.9761
 8833TIP3    H147914   4.500   1.834  16.735  2.0720  1.4600  1.8838
 8833TIP3    H247915   4.503   1.704  16.658 -2.7944  0.4423  3.0516
 8834TIP3   OH247916   1.985   5.444  16.066 -0.0571 -0.2860  0.0713
 8834TIP3    H147917   2.046   5.396  16.012  0.6972  0.4446  0.2591
 8834TIP3    H247918   1.950   5.512  16.009 -0.7104 -0.7041 -0.0377
 8835TIP3   OH247919   0.437   2.037  12.960  0.3418 -0.0450  0.2446
 8835TIP3    H147920   0.404   1.949  12.978  0.0583 -0.1309 -0.6309
 8835TIP3    H247921   0.528   2.035  12.987  0.0029 -0.2124  1.4316
 8836TIP3   OH247922   0.327   4.852  12.792 -0.2564  0.2025 -1.2009
 8836TIP3    H147923   0.298   4.772  12.747  0.8401 -1.3691  0.6821
 8836TIP3    H247924   0.407   4.878  12.746  0.1289 -0.6238 -1.0294
 8837TIP3   OH247925   0.658   1.188   5.420  0.1951  0.4845  0.4784
 8837TIP3    H147926   0.707   1.164   5.499  1.6212 -0.8258 -0.7256
 8837TIP3    H247927   0.624   1.276   5.438  2.9333  1.4501  1.4631
 8838TIP3   OH247928   6.400   1.723   4.237  0.2699  0.0959  0.1757
 8838TIP3    H147929   6.401   1.659   4.167  1.4998 -0.5537  0.7648
 8838TIP3    H247930   6.492   1.733   4.263 -0.0178  1.2803  0.8253
 8839TIP3   OH247931   5.501   6.598  14.186 -0.4051  0.6018 -0.2938
 8839TIP3    H147932   5.554   6.535  14.136 -1.9859  0.6946 -2.2145
 8839TIP3    H247933   5.540   6.683  14.164  0.9095  0.4409  1.2592
 8840TIP3   OH247934   1.829   4.426  11.704  0.3735  0.7662 -0.3614
 8840TIP3    H147935   1.901   4.371  11.673 -0.1425 -0.0318 -0.1854
 8840TIP3    H247936   1.821   4.404  11.797 -0.3690  0.5261 -0.4738
 8841TIP3   OH247937   6.232   1.665  14.886  0.3137  0.1568  0.4759
 8841TIP3    H147938   6.270   1.731  14.945 -1.1508  0.6833  0.8615
 8841TIP3    H247939   6.202   1.595  14.944  2.1036 -1.0347  0.0470
 8842TIP3   OH247940   3.077   3.754   0.104  0.1944 -0.1931 -0.0773
 8842TIP3    H147941   3.105   3.808   0.031  0.2816 -0.0123  0.0893
 8842TIP3    H247942   3.097   3.806   0.182 -0.3703 -0.1676  0.0556
 8843TIP3   OH247943   1.891   5.530   4.434 -0.2862  0.0561  0.4989
 8843TIP3    H147944   1.909   5.440   4.404 -1.1964 -0.0005  0.0855
 8843TIP3    H247945   1.820   5.559   4.378 -0.7430  0.6456  1.3789
 8844TIP3   OH247946   6.236   4.123   4.966  0.3904 -0.3148  0.0706
 8844TIP3    H147947   6.173   4.178   5.013 -1.2678 -0.4421 -1.8602
 8844TIP3    H247948   6.243   4.044   5.020  1.2269  0.9103  1.8232
 8845TIP3   OH247949   1.702   0.403  14.933 -0.0809 -0.3893  0.3346
 8845TIP3    H147950   1.718   0.441  15.019  0.7731 -0.6500  0.2977
 8845TIP3    H247951   1.681   0.311  14.951 -1.3192 -0.1260  0.3596
 8846TIP3   OH247952   0.647   0.338  13.178 -0.2539  0.2867  0.2720
 8846TIP3    H147953   0.657   0.427  13.213 -1.4237 -0.0296  1.4658
 8846TIP3    H247954   0.558   0.313  13.200 -0.1273 -0.9952 -0.5562
 8847TIP3   OH247955   1.674   1.459  15.223  0.3316  0.4737 -0.1208
 8847TIP3    H147956   1.671   1.543  15.178  0.3322  0.4434 -0.1781
 8847TIP3    H247957   1.765   1.452  15.254  0.0837  0.9393  0.7465
 8848TIP3   OH247958   6.447   2.255   5.021  0.9169  0.1136  0.3918
 8848TIP3    H147959   6.465   2.220   4.934 -0.6389  0.3696 -0.0768
 8848TIP3    H247960   6.462   2.349   5.013 -0.5552  0.3415 -0.0275
 8849TIP3   OH247961   6.748   3.377   1.118  0.6144 -0.4570  0.2020
 8849TIP3    H147962   6.837   3.409   1.137  1.5139 -2.3671 -0.5062
 8849TIP3    H247963   6.692   3.427   1.177  2.0472  1.3771  0.1238
 8850TIP3   OH247964   4.458   3.623   0.312  0.0238 -0.8633 -0.5691
 8850TIP3    H147965   4.484   3.610   0.221  0.8110  0.3008 -0.5393
 8850TIP3    H247966   4.468   3.717   0.326  0.9380 -1.1566  1.0192
 8851TIP3   OH247967   5.508   1.611  16.885  0.2072  0.0749 -0.1865
 8851TIP3    H147968   5.450   1.663  16.830 -1.1519 -0.3947  0.7361
 8851TIP3    H247969   5.566   1.567  16.824  0.7237  1.8462 -1.0477
 8852TIP3   OH247970   3.328   0.382  14.706  0.1246 -0.5116  0.0604
 8852TIP3    H147971   3.243   0.425  14.715  0.2466 -0.1505 -0.4870
 8852TIP3    H247972   3.318   0.300  14.755 -0.0055  0.2751  1.4042
 8853TIP3   OH247973   1.200   4.175   5.949  0.0868  0.6974  0.3279
 8853TIP3    H147974   1.160   4.157   6.034 -0.8932  1.0784 -0.0419
 8853TIP3    H247975   1.209   4.089   5.908 -2.1379  0.7403 -0.3560
 8854TIP3   OH247976   6.366   1.547   1.166  0.0731  0.3748  0.6162
 8854TIP3    H147977   6.427   1.594   1.110 -0.2748  0.1721  0.0516
 8854TIP3    H247978   6.364   1.458   1.130  0.2006  0.1089  1.2446
 8855TIP3   OH247979   4.817   5.723   2.422  0.4253  0.1986 -0.7858
 8855TIP3    H147980   4.814   5.801   2.368  1.8531 -0.8637 -2.5049
 8855TIP3    H247981   4.821   5.650   2.360 -1.2868 -1.3152  0.7389
 8856TIP3   OH247982   1.382   5.907   3.024  0.1715  0.0115  0.0215
 8856TIP3    H147983   1.372   5.924   3.118  0.8012 -1.6117  0.4197
 8856TIP3    H247984   1.315   5.961   2.982 -1.9611 -1.2347  1.6076
 8857TIP3   OH247985   3.557   3.483  15.564 -0.2312 -0.4461 -0.2730
 8857TIP3    H147986   3.634   3.532  15.535 -0.9722  0.4219 -0.7925
 8857TIP3    H247987   3.509   3.463  15.484  0.1930 -2.3164 -0.1201
 8858TIP3   OH247988   1.830   0.581  13.741  0.7370 -0.4749 -0.8744
 8858TIP3    H147989   1.753   0.525  13.745  2.0394 -2.3099  0.1958
 8858TIP3    H247990   1.846   0.594  13.648  0.2146 -1.6384 -1.1414
 8859TIP3   OH247991   5.526   1.622   2.504 -0.2265  0.5148 -0.5153
 8859TIP3    H147992   5.577   1.634   2.423 -1.6279  1.5365 -1.2996
 8859TIP3    H247993   5.561   1.542   2.543  0.7952  0.2434 -1.9103
 8860TIP3   OH247994   2.407   6.359  16.139 -0.2946  0.2053  0.3961
 8860TIP3    H147995   2.449   6.372  16.053 -1.2091  4.4997  0.3453
 8860TIP3    H247996   2.480   6.358  16.201  0.2609 -0.3114 -0.2550
 8861TIP3   OH247997   0.471   3.669   0.560 -0.0109  0.9331 -0.1129
 8861TIP3    H147998   0.433   3.641   0.643 -1.7250  0.9310 -0.8445
 8861TIP3    H247999   0.465   3.592   0.503 -2.5948  1.9391 -1.4114
 8862TIP3   OH248000   3.879   2.525   2.194 -0.0090  0.1805 -0.1047
 8862TIP3    H148001   3.917   2.502   2.279 -0.1977 -0.0497 -0.0809
 8862TIP3    H248002   3.948   2.572   2.148  0.4404 -0.5850 -0.2188
 8863TIP3   OH248003   0.659   1.079   3.509 -0.1743  0.7552  0.2876
 8863TIP3    H148004   0.678   1.170   3.529 -2.7347  1.4586 -0.1703
 8863TIP3    H248005   0.567   1.068   3.531  0.0454 -1.7141  0.2492
 8864TIP3   OH248006   2.703   0.589  14.857  0.1383  0.7435 -0.0806
 8864TIP3    H148007   2.619   0.594  14.902  0.0885 -1.4031  0.1930
 8864TIP3    H248008   2.689   0.525  14.788  1.7710 -0.4065  0.5848
 8865TIP3   OH248009   1.512   3.408   4.141  0.0187  0.0081 -0.3376
 8865TIP3    H148010   1.551   3.358   4.070  0.8621  1.1677 -0.7281
 8865TIP3    H248011   1.576   3.478   4.159 -0.3499 -0.0215  1.2907
 8866TIP3   OH248012   5.009   4.766   1.729  0.6597 -0.1621 -0.0141
 8866TIP3    H148013   4.997   4.780   1.635  0.4240 -0.8070 -0.0865
 8866TIP3    H248014   5.102   4.749   1.740  0.5670 -0.8876 -0.2531
 8867TIP3   OH248015   0.748   5.696   5.138 -0.5939  0.2108  0.1474
 8867TIP3    H148016   0.723   5.734   5.054  0.5110  0.1964 -0.1969
 8867TIP3    H248017   0.832   5.737   5.160 -1.2702  0.8745  1.6812
 8868TIP3   OH248018   1.075   5.225   5.302  0.9122  0.1550  0.0945
 8868TIP3    H148019   1.136   5.296   5.287 -0.1939  0.9838 -0.6332
 8868TIP3    H248020   1.042   5.203   5.215  0.4578 -0.5325  0.4316
 8869TIP3   OH248021   1.549   0.438   2.525  0.3256  0.3114  0.3372
 8869TIP3    H148022   1.569   0.345   2.516 -1.7729 -0.2747  1.1010
 8869TIP3    H248023   1.589   0.463   2.608  0.3350 -0.0909  0.4547
 8870TIP3   OH248024   0.700   2.981   1.018 -0.4047 -0.2636 -0.2733
 8870TIP3    H148025   0.758   2.911   1.050  2.1685  1.0555 -1.7346
 8870TIP3    H248026   0.722   2.990   0.926 -2.4621  0.8562 -0.7075
 8871TIP3   OH248027   0.061   2.672   4.696  0.0593  0.1470 -0.3865
 8871TIP3    H148028   0.091   2.662   4.787 -0.1020 -4.1313 -0.6011
 8871TIP3    H248029   0.141   2.689   4.647  0.5640 -0.1969  0.2916
 8872TIP3   OH248030   2.737   0.752  10.758  0.4731  0.2212 -0.1046
 8872TIP3    H148031   2.644   0.744  10.738 -0.0489  0.0877  2.1116
 8872TIP3    H248032   2.774   0.667  10.734 -1.1284 -1.9512  4.0834
 8873TIP3   OH248033   2.468   1.293  14.763  0.2735 -0.3309 -0.5317
 8873TIP3    H148034   2.388   1.344  14.772  0.9634  0.8191 -0.7105
 8873TIP3    H248035   2.538   1.357  14.772  1.1709 -1.2820 -0.6138
 8874TIP3   OH248036   0.174   2.878   1.702 -0.2760  0.5240  0.0929
 8874TIP3    H148037   0.110   2.893   1.632  0.0285  2.2180  0.1426
 8874TIP3    H248038   0.248   2.934   1.679  0.9433 -0.9217  0.3892
 8875TIP3   OH248039   0.557   2.590  14.549  0.2018  0.4070 -0.3583
 8875TIP3    H148040   0.550   2.506  14.594  3.8499 -1.0890 -2.1245
 8875TIP3    H248041   0.592   2.650  14.615 -0.7451  0.0835  0.4577
 8876TIP3   OH248042   0.587   0.561   4.902 -0.1404 -0.1539 -0.1434
 8876TIP3    H148043   0.595   0.604   4.987  1.1177  0.6578 -0.6461
 8876TIP3    H248044   0.596   0.632   4.838  2.6868 -1.1519 -1.0170
 8877TIP3   OH248045   4.437   3.837  12.741 -0.3408  0.3656 -0.3202
 8877TIP3    H148046   4.525   3.871  12.723 -0.5560  0.3993 -1.3400
 8877TIP3    H248047   4.416   3.783  12.665 -1.2234  0.3979 -0.1095
 8878TIP3   OH248048   1.618   5.574  11.543  0.1874  0.3086 -0.1618
 8878TIP3    H148049   1.584   5.625  11.470  1.0654  0.7243 -0.2997
 8878TIP3    H248050   1.544   5.521  11.572 -0.4189  0.7992 -0.7723
 8879TIP3   OH248051   5.558   0.873   4.316  0.0557 -0.2634 -0.3576
 8879TIP3    H148052   5.499   0.947   4.304 -0.8732 -1.1123 -1.2434
 8879TIP3    H248053   5.558   0.857   4.411  1.2570  1.6143  0.0043
 8880TIP3   OH248054   0.206   2.941   3.939  0.9747  0.6168 -0.6869
 8880TIP3    H148055   0.191   2.853   3.905 -0.9651  0.9612 -0.7931
 8880TIP3    H248056   0.203   2.998   3.862  2.8772  0.7613 -0.7126
 8881TIP3   OH248057   5.721   3.819  16.700  0.1337 -0.2044 -0.1599
 8881TIP3    H148058   5.661   3.774  16.760 -2.2219  1.3948 -1.1614
 8881TIP3    H248059   5.747   3.751  16.638 -0.2892 -1.0399  0.5525
 8882TIP3   OH248060   2.150   4.895   1.639  0.0542 -0.0926  0.0022
 8882TIP3    H148061   2.125   4.987   1.634  0.5839  0.1099  0.8548
 8882TIP3    H248062   2.067   4.848   1.648 -0.2938  0.2031 -1.4847
 8883TIP3   OH248063   5.784   3.749   6.154  0.3410  0.1447 -0.2910
 8883TIP3    H148064   5.753   3.662   6.128 -2.4626 -0.2298  3.5330
 8883TIP3    H248065   5.704   3.800   6.170  1.8479  2.2026  1.2516
 8884TIP3   OH248066   4.141   0.568  14.721  0.9602  0.2360 -0.6341
 8884TIP3    H148067   4.101   0.481  14.715  0.4182  0.4333  0.0054
 8884TIP3    H248068   4.152   0.583  14.815  0.7924  0.9740 -0.7276
 8885TIP3   OH248069   6.665   2.852   4.883  0.0862  0.1027 -0.1931
 8885TIP3    H148070   6.712   2.834   4.964  0.8141  0.7403 -0.4674
 8885TIP3    H248071   6.671   2.770   4.833 -0.5380 -0.3604  0.4643
 8886TIP3   OH248072   0.437   3.298  15.091  0.1577  0.1516 -1.2071
 8886TIP3    H148073   0.439   3.390  15.063  1.1529  0.3300 -0.6124
 8886TIP3    H248074   0.519   3.261  15.058  1.0579  0.1954  0.8001
 8887TIP3   OH248075   3.405   1.596   6.444  0.2181 -0.5068 -0.4427
 8887TIP3    H148076   3.431   1.642   6.524  0.8755 -1.7675  0.1006
 8887TIP3    H248077   3.416   1.661   6.375  2.2364 -0.1499  0.1349
 8888TIP3   OH248078   5.984   2.381   1.941  0.1765 -0.2868 -0.4229
 8888TIP3    H148079   5.949   2.315   1.880 -0.0394 -1.0498  0.4970
 8888TIP3    H248080   5.927   2.374   2.018  1.3095 -0.3495  0.4301
 8889TIP3   OH248081   0.791   2.891  13.043  0.3093  0.3623  0.4261
 8889TIP3    H148082   0.886   2.885  13.032  0.5001  2.6486  0.2223
 8889TIP3    H248083   0.770   2.826  13.111  2.3030  1.0431  1.7950
 8890TIP3   OH248084   4.275   3.425   6.319  0.0194  0.3264 -0.7311
 8890TIP3    H148085   4.347   3.399   6.377 -0.7514 -0.2991 -0.0337
 8890TIP3    H248086   4.277   3.521   6.320  0.5114  0.3190 -0.3179
 8891TIP3   OH248087   3.351   0.941   5.283 -0.2880 -0.8791 -0.5350
 8891TIP3    H148088   3.286   0.932   5.352  0.0237  1.5819  0.1774
 8891TIP3    H248089   3.346   1.033   5.257  0.7164 -1.3632 -2.6990
 8892TIP3   OH248090   2.857   4.966   3.884  0.3850 -0.3796  0.2301
 8892TIP3    H148091   2.794   4.933   3.819  0.7204  0.1358 -0.3765
 8892TIP3    H248092   2.941   4.930   3.855  0.5846  0.1144  0.1911
 8893TIP3   OH248093   2.254   5.018  12.799  0.2335 -0.4980 -0.4534
 8893TIP3    H148094   2.234   4.925  12.798  1.9826 -0.9456  1.1153
 8893TIP3    H248095   2.259   5.043  12.706 -1.6015 -1.5974 -0.9000
 8894TIP3   OH248096   1.722   5.640  11.770 -0.1060  0.7516  0.2028
 8894TIP3    H148097   1.703   5.557  11.813  0.7463 -0.5807 -1.7851
 8894TIP3    H248098   1.692   5.627  11.680  1.2183  2.1224 -0.4797
 8895TIP3   OH248099   3.568   5.986  12.678  0.0599  0.0215  0.3770
 8895TIP3    H148100   3.566   5.937  12.595  5.6616 -0.4470  0.1165
 8895TIP3    H248101   3.577   5.919  12.745  0.9893  0.4666  0.7166
 8896TIP3   OH248102   5.995   1.869  12.915 -0.7549 -0.3697 -0.4180
 8896TIP3    H148103   5.924   1.809  12.940 -2.3192  0.2328 -3.0267
 8896TIP3    H248104   5.968   1.954  12.950 -1.1054 -0.2258 -1.0333
 8897TIP3   OH248105   5.315   0.665   1.167  0.5118 -0.5760 -0.1511
 8897TIP3    H148106   5.378   0.609   1.212 -0.8843 -1.8556  0.3016
 8897TIP3    H248107   5.368   0.723   1.113  2.1913  0.0727  2.0708
 8898TIP3   OH248108   0.675   2.668  12.901 -0.1982  0.1340 -0.0972
 8898TIP3    H148109   0.656   2.762  12.907 -0.2589  0.2057 -1.2069
 8898TIP3    H248110   0.614   2.627  12.963 -0.6557  0.7717 -0.1134
 8899TIP3   OH248111   2.018   5.160   5.610 -0.2714  0.2768  0.5600
 8899TIP3    H148112   2.070   5.198   5.539 -0.2356  1.4194  1.1834
 8899TIP3    H248113   1.981   5.235   5.656 -1.3826 -0.4868  0.9570
 8900TIP3   OH248114   6.596   3.204  14.269 -0.4355  0.1261  0.2132
 8900TIP3    H148115   6.584   3.282  14.214 -0.5470  0.5791  0.8762
 8900TIP3    H248116   6.647   3.234  14.343  0.8818 -0.7812 -0.2856
 8901TIP3   OH248117   5.598   0.596   5.966  0.2320 -0.7716  0.7531
 8901TIP3    H148118   5.683   0.640   5.970 -0.0659 -0.1303  0.3131
 8901TIP3    H248119   5.588   0.573   5.873  0.7230 -2.4852  1.0941
 8902TIP3   OH248120   0.398   3.086   1.781 -0.2298 -0.0354 -0.2148
 8902TIP3    H148121   0.438   3.056   1.699  0.7714 -0.8011  0.5306
 8902TIP3    H248122   0.471   3.092   1.842 -1.0311  0.1378  0.7446
 8903TIP3   OH248123   0.628   1.044  16.707 -0.0296  0.2496  0.1678
 8903TIP3    H148124   0.661   0.968  16.659 -2.1368 -0.2815 -0.5484
 8903TIP3    H248125   0.670   1.037  16.793 -0.3326 -1.8823  0.2101
 8904TIP3   OH248126   4.223   5.481  15.291 -0.1043 -0.2580 -0.4684
 8904TIP3    H148127   4.257   5.400  15.253  1.5348  0.2053 -0.0305
 8904TIP3    H248128   4.251   5.549  15.230 -0.1548  0.1565 -0.0278
 8905TIP3   OH248129   3.911   3.014  14.651 -0.4209  0.6362  0.2475
 8905TIP3    H148130   3.885   2.939  14.598  1.4974  0.9474 -1.2139
 8905TIP3    H248131   3.984   3.054  14.604 -0.0397  2.2195  2.0323
 8906TIP3   OH248132   4.364   0.895   5.733 -0.0972 -0.0859  0.0751
 8906TIP3    H148133   4.356   0.926   5.823  0.3708 -1.6487  0.7001
 8906TIP3    H248134   4.454   0.861   5.728  0.3317  1.1989 -1.4028
 8907TIP3   OH248135   0.734   5.571   6.705 -0.1238  0.7908 -0.0913
 8907TIP3    H148136   0.668   5.639   6.695 -0.4076  1.3004  3.7787
 8907TIP3    H248137   0.690   5.500   6.752  1.1411 -0.5042 -0.7553
 8908TIP3   OH248138   6.749   3.313   0.423 -0.0040 -0.2286 -0.5453
 8908TIP3    H148139   6.820   3.323   0.360  0.0167 -0.7302 -0.6014
 8908TIP3    H248140   6.791   3.322   0.508 -0.0109  0.3130 -0.5921
 8909TIP3   OH248141   2.723   0.307   1.855  0.4503  0.2155 -0.2661
 8909TIP3    H148142   2.796   0.277   1.910  1.2468  0.9116 -0.9227
 8909TIP3    H248143   2.733   0.257   1.774  1.7130  2.0485 -1.3264
 8910TIP3   OH248144   4.986   3.642   4.038 -0.3043  0.0506  0.0466
 8910TIP3    H148145   4.982   3.610   4.128  1.9776 -0.2631  0.0933
 8910TIP3    H248146   5.002   3.736   4.046  1.0133 -0.1564  0.0076
 8911TIP3   OH248147   6.534   5.276  12.142  0.4116  0.7006 -0.0678
 8911TIP3    H148148   6.546   5.345  12.206 -1.7889  1.9824 -0.9503
 8911TIP3    H248149   6.523   5.196  12.195  1.6065  1.1942  0.9932
 8912TIP3   OH248150   2.927   0.223  12.916 -0.0989 -0.2137 -0.0408
 8912TIP3    H148151   2.949   0.152  12.977  0.8722 -1.8224 -2.1052
 8912TIP3    H248152   2.930   0.181  12.829  0.3547  2.3506 -1.3559
 8913TIP3   OH248153   0.671   0.695  13.604 -0.0728  0.0926 -0.4459
 8913TIP3    H148154   0.584   0.694  13.642  0.4785  0.2669  0.8684
 8913TIP3    H248155   0.660   0.738  13.519 -1.3515 -0.4056 -0.5384
 8914TIP3   OH248156   0.905   1.537   6.427  0.3958  0.0884 -0.5031
 8914TIP3    H148157   0.826   1.570   6.384  0.2245 -1.2552 -1.2643
 8914TIP3    H248158   0.977   1.574   6.376  0.2054 -0.7707 -1.4222
 8915TIP3   OH248159   1.181   1.037  12.079  0.2474  0.0762 -0.1035
 8915TIP3    H148160   1.104   1.020  12.133  0.4142 -0.7309 -0.1078
 8915TIP3    H248161   1.149   1.094  12.009 -0.3962 -0.4066 -0.2099
 8916TIP3   OH248162   0.171   3.708  11.955 -0.1895 -0.3095  0.1946
 8916TIP3    H148163   0.237   3.761  12.000 -0.8954  0.4705  0.3265
 8916TIP3    H248164   0.153   3.756  11.874  0.8937 -1.5745 -0.8580
 8917TIP3   OH248165   0.759   4.553   1.905 -0.2809 -0.4803 -0.0698
 8917TIP3    H148166   0.697   4.624   1.889 -1.3499 -1.1561  0.8724
 8917TIP3    H248167   0.788   4.526   1.818 -2.9467 -1.5269 -0.7281
 8918TIP3   OH248168   4.227   6.174   0.383  0.3174 -0.3176  0.0599
 8918TIP3    H148169   4.173   6.114   0.433 -1.7960  1.1121 -0.3709
 8918TIP3    H248170   4.198   6.261   0.410  1.0183  0.4984 -1.6302
 8919TIP3   OH248171   2.573   6.586   4.386  0.2188 -0.3005 -0.2892
 8919TIP3    H148172   2.545   6.520   4.324  1.0149 -1.5023  0.5814
 8919TIP3    H248173   2.644   6.545   4.436 -1.6245 -0.1493  2.7347
 8920TIP3   OH248174   3.010   0.662  16.069 -0.2340 -0.0902  0.0467
 8920TIP3    H148175   2.991   0.592  16.132 -1.0418  0.6286  0.6312
 8920TIP3    H248176   3.104   0.655  16.052 -0.1107 -0.6492  0.9098
 8921TIP3   OH248177   2.404   1.798   5.769  0.4748  0.0822  0.2004
 8921TIP3    H148178   2.377   1.883   5.735 -0.4414 -0.1216  0.4069
 8921TIP3    H248179   2.377   1.799   5.860  0.9542 -0.2261  0.3510
 8922TIP3   OH248180   6.164   4.740  15.756 -0.6133 -0.3923  0.3067
 8922TIP3    H148181   6.157   4.831  15.784  0.0622 -0.0786 -0.5155
 8922TIP3    H248182   6.251   4.712  15.786  0.0133 -0.1310 -1.1793
 8923TIP3   OH248183   2.141   0.558   1.605 -0.2073  0.2474 -0.3785
 8923TIP3    H148184   2.234   0.535   1.593 -0.7451 -1.9583 -0.7641
 8923TIP3    H248185   2.095   0.500   1.545 -1.9214  0.5979  0.5505
 8924TIP3   OH248186   4.939   1.046  17.279 -0.1857 -0.1193 -0.5792
 8924TIP3    H148187   4.928   1.118  17.341  0.3968 -1.1576  0.7813
 8924TIP3    H248188   4.852   1.034  17.241 -0.2683  1.3301 -0.8922
 8925TIP3   OH248189   3.844   0.040  10.738 -0.3931 -0.5780 -0.2381
 8925TIP3    H148190   3.785  -0.013  10.791 -1.2161  0.2746 -0.2788
 8925TIP3    H248191   3.925  -0.011  10.734 -0.1650 -0.4813  2.1398
 8926TIP3   OH248192   0.111   3.894  16.990  0.3342 -0.2726  0.1935
 8926TIP3    H148193   0.173   3.830  16.955  1.1672  0.0914  0.9461
 8926TIP3    H248194   0.119   3.885  17.085  0.2940  0.7760  0.3068
 8927TIP3   OH248195   5.626   5.852   2.860 -0.0371  0.6529  0.5397
 8927TIP3    H148196   5.591   5.772   2.899  0.2000  0.7218  0.9007
 8927TIP3    H248197   5.590   5.853   2.772 -0.5880  0.4961  0.7557
 8928TIP3   OH248198   4.055   4.075   0.170 -0.1302  0.1206  0.8305
 8928TIP3    H148199   3.992   4.117   0.111  1.5704  0.4338 -0.8707
 8928TIP3    H248200   4.117   4.144   0.191 -0.0405 -0.3162  2.0678
 8929TIP3   OH248201   0.990   5.994   2.327  0.7265  0.3508 -0.3795
 8929TIP3    H148202   0.962   5.904   2.346 -0.1052  0.7895  0.6522
 8929TIP3    H248203   0.949   6.015   2.243  0.0537  0.1013 -0.1253
 8930TIP3   OH248204   1.379   1.577   3.859 -0.2627  0.4485 -0.1059
 8930TIP3    H148205   1.405   1.591   3.768  0.3885  1.9754  0.2926
 8930TIP3    H248206   1.300   1.630   3.870 -0.9551 -0.5672 -0.0502
 8931TIP3   OH248207   4.096   3.278   2.799  0.2927 -0.6014 -0.1811
 8931TIP3    H148208   4.166   3.217   2.775  1.1250  0.6217 -0.9834
 8931TIP3    H248209   4.102   3.348   2.734  0.7651  1.4135  1.9019
 8932TIP3   OH248210   0.320   3.441   2.777 -0.5481  0.5912 -0.3120
 8932TIP3    H148211   0.292   3.365   2.726  0.2548  0.3181 -0.3570
 8932TIP3    H248212   0.373   3.493   2.716 -0.1674  0.6162  0.0365
 8933TIP3   OH248213   3.333   4.223  14.217 -0.2028  0.4127 -0.2095
 8933TIP3    H148214   3.311   4.143  14.168  1.1587 -0.1776  0.1065
 8933TIP3    H248215   3.409   4.258  14.171  0.0243  0.8048  0.4648
 8934TIP3   OH248216   4.058   6.373   0.668 -0.4466 -0.0776  0.1474
 8934TIP3    H148217   4.044   6.370   0.574 -0.7824  1.0036  0.1573
 8934TIP3    H248218   3.979   6.332   0.705 -0.2991 -0.5312 -0.0273
 8935TIP3   OH248219   4.866   4.430  13.226 -0.1395 -0.7357 -0.1099
 8935TIP3    H148220   4.931   4.368  13.195  0.5281 -0.4386  0.6646
 8935TIP3    H248221   4.802   4.377  13.273  0.2284 -0.8795  0.2306
 8936TIP3   OH248222   2.592   4.385  17.085 -0.2305 -0.1346 -0.3338
 8936TIP3    H148223   2.665   4.441  17.112  0.0001 -1.2723  1.5860
 8936TIP3    H248224   2.522   4.446  17.061  1.1827  0.9697 -1.8633
 8937TIP3   OH248225   3.858   4.841  11.748  0.3517  0.2316 -0.1021
 8937TIP3    H148226   3.801   4.841  11.825 -0.1496 -1.8804 -0.4072
 8937TIP3    H248227   3.882   4.749  11.736 -0.4988  0.2760 -3.1059
 8938TIP3   OH248228   3.214   4.587  16.096 -0.7403 -0.0531 -0.3084
 8938TIP3    H148229   3.226   4.681  16.078  0.8752 -0.2823 -0.5866
 8938TIP3    H248230   3.125   4.581  16.132 -0.3749  1.7914  1.0571
 8939TIP3   OH248231   0.817   6.230   1.096  0.4137  0.3158 -0.0322
 8939TIP3    H148232   0.802   6.153   1.150  3.4388 -1.4539 -1.4074
 8939TIP3    H248233   0.783   6.206   1.009 -0.8196  1.5558  0.0699
 8940TIP3   OH248234   6.355   6.104  12.969  0.4973 -0.2564  0.0891
 8940TIP3    H148235   6.266   6.130  12.994 -0.4810 -3.2653  0.1307
 8940TIP3    H248236   6.412   6.160  13.021 -1.3761  1.0357  0.8618
 8941TIP3   OH248237   5.181   1.262   0.726  0.4492  0.0632 -0.4148
 8941TIP3    H148238   5.227   1.243   0.807 -0.6995 -0.1864  0.1912
 8941TIP3    H248239   5.091   1.234   0.741  0.4805 -1.2037 -2.2312
 8942TIP3   OH248240   3.642   1.816  15.026  0.0160 -0.7727 -0.9759
 8942TIP3    H148241   3.684   1.831  14.942  0.0374 -3.0038 -1.4173
 8942TIP3    H248242   3.562   1.768  15.005 -0.6959 -0.1429  0.1804
 8943TIP3   OH248243   1.413   2.921   6.553 -0.3608 -0.0734  0.1590
 8943TIP3    H148244   1.404   2.950   6.462  1.7079 -1.5969 -0.5933
 8943TIP3    H248245   1.490   2.967   6.586  0.5641 -1.6116  0.2236
 8944TIP3   OH248246   4.692   1.610  17.001 -0.2251  0.9119  0.4172
 8944TIP3    H148247   4.710   1.519  17.026 -3.4280 -0.1828 -0.6972
 8944TIP3    H248248   4.775   1.642  16.966  0.8198 -1.9055 -0.0145
 8945TIP3   OH248249   5.798   0.004  16.107  0.5918  0.0655  0.1269
 8945TIP3    H148250   5.784  -0.054  16.181 -1.2688 -0.6944 -0.7688
 8945TIP3    H248251   5.843   0.080  16.144  1.3040 -1.0615  1.6796
 8946TIP3   OH248252   2.068   5.006  11.931  0.5634 -0.2323 -0.1382
 8946TIP3    H148253   2.102   5.006  11.842  0.4871  1.8905 -0.2047
 8946TIP3    H248254   2.096   5.089  11.968  0.2191 -0.8809  1.6939
 8947TIP3   OH248255   4.821   1.127   0.228 -0.0289 -0.6438 -0.4942
 8947TIP3    H148256   4.834   1.198   0.291 -1.0596 -2.9941  2.5921
 8947TIP3    H248257   4.748   1.156   0.174  0.1486  0.9790  0.0677
 8948TIP3   OH248258   1.539   2.961  10.617  0.4328 -0.0421  0.2638
 8948TIP3    H148259   1.457   2.971  10.665  1.1038  0.4879  1.3465
 8948TIP3    H248260   1.589   2.899  10.669  1.1492  0.4887  0.2236
 8949TIP3   OH248261   6.445   2.279   3.384 -0.0603 -0.6423 -0.2093
 8949TIP3    H148262   6.522   2.319   3.424  0.0978  1.1152 -2.0629
 8949TIP3    H248263   6.383   2.352   3.375 -1.2944 -1.6660 -0.2566
 8950TIP3   OH248264   1.675   3.917   1.500  0.0708 -0.0776 -0.1167
 8950TIP3    H148265   1.750   3.972   1.521 -1.4436  2.2148 -0.3533
 8950TIP3    H248266   1.646   3.884   1.585  0.6634 -0.0650  0.0954
 8951TIP3   OH248267   4.977   5.833  12.216  0.8957  0.3115  0.4045
 8951TIP3    H148268   4.910   5.798  12.273  0.3667 -1.5922 -1.2937
 8951TIP3    H248269   4.945   5.920  12.191 -0.1494  0.0716  0.8842
 8952TIP3   OH248270   6.062   0.872  12.367  0.5867  0.0447 -0.1421
 8952TIP3    H148271   6.044   0.824  12.448  0.9147 -1.7393 -1.0726
 8952TIP3    H248272   5.977   0.880  12.325  0.6346 -0.3939 -0.3285
 8953TIP3   OH248273   5.608   1.301   4.398 -0.7202 -0.3296 -0.4606
 8953TIP3    H148274   5.598   1.383   4.447  1.1301  1.4547 -2.8166
 8953TIP3    H248275   5.665   1.247   4.453 -0.4551  0.7086  0.3182
 8954TIP3   OH248276   2.898   2.159   6.074  0.3622  0.3087 -0.6308
 8954TIP3    H148277   2.853   2.244   6.079 -1.0907 -0.4573  0.1102
 8954TIP3    H248278   2.973   2.175   6.017  0.1525  2.0990 -0.4781
 8955TIP3   OH248279   5.986   1.907  15.140 -0.7966 -0.2327 -0.3701
 8955TIP3    H148280   5.959   1.999  15.132 -1.3702 -0.0877  2.4293
 8955TIP3    H248281   6.078   1.908  15.112 -0.4302  1.4435  0.7194
 8956TIP3   OH248282   1.494   6.007   0.600  0.2975 -0.3843  0.2655
 8956TIP3    H148283   1.563   6.063   0.635 -0.0521 -0.9043  1.9188
 8956TIP3    H248284   1.526   5.978   0.515  0.9564  1.4276 -0.1382
 8957TIP3   OH248285   1.667   0.549  11.922  0.2657  0.5034 -0.0145
 8957TIP3    H148286   1.605   0.540  11.994 -0.2234 -1.3161 -0.6141
 8957TIP3    H248287   1.626   0.504  11.848  1.9373 -0.0473 -0.6537
 8958TIP3   OH248288   4.919   1.697  10.933  0.7500 -0.0276  0.2323
 8958TIP3    H148289   4.952   1.654  11.012 -0.2998 -1.5926 -0.1181
 8958TIP3    H248290   4.837   1.738  10.961  0.8059  0.1514  0.1365
 8959TIP3   OH248291   1.644   3.005  16.079 -0.1903 -0.3959 -0.2999
 8959TIP3    H148292   1.568   2.956  16.047  0.9805 -1.6836 -1.1988
 8959TIP3    H248293   1.715   2.941  16.083  1.0910  0.9560 -0.3257
 8960TIP3   OH248294   1.569   5.193   0.966 -0.3093  0.2827  0.1784
 8960TIP3    H148295   1.481   5.198   1.002 -0.1709 -1.4494  0.8439
 8960TIP3    H248296   1.563   5.235   0.880 -1.6417  0.6435  0.4365
 8961TIP3   OH248297   2.455   0.092   0.081  0.0728 -0.0393 -0.0618
 8961TIP3    H148298   2.372   0.055   0.113  0.5941 -2.9488 -1.6994
 8961TIP3    H248299   2.515   0.018   0.080  1.9834  1.4294 -1.3381
 8962TIP3   OH248300   3.873   3.883   5.056 -0.2864  0.0018  0.1870
 8962TIP3    H148301   3.966   3.869   5.039 -0.4458 -2.0201  0.7037
 8962TIP3    H248302   3.834   3.894   4.969  0.2229 -0.8542 -0.1680
 8963TIP3   OH248303   5.998   4.153  10.601  0.3966 -1.1659  0.3924
 8963TIP3    H148304   6.083   4.198  10.590  1.0173 -2.0601  1.3352
 8963TIP3    H248305   5.943   4.190  10.532  1.8678 -1.3179 -0.9224
 8964TIP3   OH248306   4.871   2.480  13.840 -0.0278 -0.5030  0.6838
 8964TIP3    H148307   4.820   2.447  13.914 -0.2490 -0.0160  0.7501
 8964TIP3    H248308   4.955   2.504  13.878 -0.0879 -0.3954  0.7468
 8965TIP3   OH248309   3.789   5.548  13.744  0.0187  0.0802 -0.2032
 8965TIP3    H148310   3.802   5.641  13.723 -1.0071 -0.0256 -1.4507
 8965TIP3    H248311   3.873   5.507  13.724 -0.1749  0.4050 -1.8342
 8966TIP3   OH248312   0.217   4.019   2.846 -0.4806 -0.2685  0.6391
 8966TIP3    H148313   0.247   3.934   2.814  0.0476 -0.4763  1.6373
 8966TIP3    H248314   0.129   4.029   2.810  0.4233 -0.0198 -1.6788
 8967TIP3   OH248315   2.636   1.088   0.583  0.2618  0.0413  0.1073
 8967TIP3    H148316   2.578   1.094   0.507  0.6630  2.5830 -0.0972
 8967TIP3    H248317   2.723   1.102   0.547  0.7081 -1.0051  0.7603
 8968TIP3   OH248318   1.193   5.730   2.092 -0.1569  0.1330 -0.2359
 8968TIP3    H148319   1.238   5.735   2.007 -2.1618  1.4606 -1.2926
 8968TIP3    H248320   1.183   5.636   2.107  3.5644 -0.3131  0.4923
 8969TIP3   OH248321   6.318   4.188  17.269 -0.3650 -0.1577 -0.1953
 8969TIP3    H148322   6.312   4.265  17.324  0.6185  0.6817 -1.2112
 8969TIP3    H248323   6.396   4.142  17.301 -0.7565 -0.5661  0.1878
 8970TIP3   OH248324   2.841   2.882  14.554  0.5623  0.6244 -0.0799
 8970TIP3    H148325   2.911   2.870  14.489  0.7213  0.5495  0.1031
 8970TIP3    H248326   2.773   2.931  14.507  1.5532  2.4581  0.3078
 8971TIP3   OH248327   2.982   6.231   1.587 -0.2680 -0.2210 -0.0771
 8971TIP3    H148328   2.962   6.138   1.599  0.3741 -0.0856  2.3751
 8971TIP3    H248329   3.057   6.248   1.643 -0.4576  1.8372 -0.3652
 8972TIP3   OH248330   2.819   1.357  14.754 -0.1401 -0.0934 -0.6643
 8972TIP3    H148331   2.755   1.397  14.695 -0.1335 -0.0992 -0.6749
 8972TIP3    H248332   2.860   1.288  14.703  1.6385  1.4841 -1.5086
 8973TIP3   OH248333   3.663   1.657  13.496  0.1088  0.0895  0.2571
 8973TIP3    H148334   3.586   1.687  13.544 -0.0573 -1.5085  1.0561
 8973TIP3    H248335   3.633   1.580  13.448  1.0614 -0.2186  0.1291
 8974TIP3   OH248336   0.312   3.783  16.848 -0.2312  0.1921 -0.3725
 8974TIP3    H148337   0.292   3.732  16.926 -1.0359 -2.9431 -2.4484
 8974TIP3    H248338   0.408   3.791  16.849 -0.0350 -1.7112 -0.0934
 8975TIP3   OH248339   1.041   0.426   4.768 -0.2020  0.4514 -0.6811
 8975TIP3    H148340   1.056   0.378   4.687 -1.3761 -0.5462 -0.3308
 8975TIP3    H248341   1.127   0.428   4.811 -0.1446 -1.4117 -0.6674
 8976TIP3   OH248342   4.938   0.520   1.444 -0.0641 -0.2775  0.5160
 8976TIP3    H148343   4.931   0.476   1.529  0.1388 -0.4807  0.4281
 8976TIP3    H248344   4.889   0.602   1.455 -1.6105 -1.1445  0.2470
 8977TIP3   OH248345   1.265   3.272   3.260 -0.2644 -0.0500  0.5302
 8977TIP3    H148346   1.206   3.316   3.322 -0.5107  2.2021 -1.1728
 8977TIP3    H248347   1.258   3.324   3.180 -0.6409 -3.3146 -1.7464
 8978TIP3   OH248348   6.432   3.334  14.762  0.1087 -0.2358 -0.7251
 8978TIP3    H148349   6.515   3.286  14.757  0.0777 -0.2817 -0.7889
 8978TIP3    H248350   6.369   3.279  14.716 -0.2617 -0.8474  0.4753
 8979TIP3   OH248351   0.779   5.823   5.777  0.0153  0.0003 -0.0471
 8979TIP3    H148352   0.832   5.888   5.730 -0.4633  0.4083 -0.0279
 8979TIP3    H248353   0.693   5.827   5.735 -0.8203  1.2669  1.6296
 8980TIP3   OH248354   4.610   6.541  15.592 -0.2486 -0.4927 -1.0014
 8980TIP3    H148355   4.649   6.587  15.518 -0.3455 -1.7779 -1.8944
 8980TIP3    H248356   4.589   6.454  15.558 -3.1773 -0.1442 -0.3775
 8981TIP3   OH248357   1.509   6.422   4.603  0.4412 -0.6935 -0.4054
 8981TIP3    H148358   1.565   6.481   4.551  0.1000  0.2940  0.3228
 8981TIP3    H248359   1.539   6.334   4.579  1.5235 -0.2154 -0.8965
 8982TIP3   OH248360   6.049   0.678   0.792 -0.4191  0.5243 -0.4567
 8982TIP3    H148361   6.108   0.603   0.792  0.0555  0.8802 -1.2241
 8982TIP3    H248362   6.002   0.672   0.875 -0.9701 -1.0523 -0.8466
 8983TIP3   OH248363   4.030   0.517  12.540  0.0543  0.0577 -0.1922
 8983TIP3    H148364   3.966   0.449  12.561 -1.6488  0.6630 -2.8648
 8983TIP3    H248365   4.104   0.470  12.501  0.4982 -0.5152  1.3042
 8984TIP3   OH248366   3.762   3.796  17.355 -0.4531 -0.4061  0.6610
 8984TIP3    H148367   3.679   3.783  17.402 -0.6356 -1.2038  0.1597
 8984TIP3    H248368   3.742   3.862  17.289 -0.0146  1.2222  2.0915
 8985TIP3   OH248369   2.247   4.879   4.470 -0.0698 -0.5655 -0.3674
 8985TIP3    H148370   2.310   4.817   4.508  0.7336 -0.4523 -1.4461
 8985TIP3    H248371   2.257   4.867   4.375 -1.2191 -0.0698 -0.5596
 8986TIP3   OH248372   0.817   5.799  16.157 -0.8611 -0.8750  0.4156
 8986TIP3    H148373   0.821   5.852  16.077 -0.7886 -0.2574  0.8205
 8986TIP3    H248374   0.760   5.849  16.216  1.3188  0.1169  1.7836
 8987TIP3   OH248375   5.345   3.849  15.816 -0.0036  0.5867 -0.8775
 8987TIP3    H148376   5.430   3.807  15.804 -0.2140 -0.1137 -0.0515
 8987TIP3    H248377   5.293   3.784  15.863 -0.0717  2.0607  1.2370
 8988TIP3   OH248378   3.519   1.433   1.729  0.4587 -0.6506 -0.3351
 8988TIP3    H148379   3.551   1.355   1.683  2.3335  0.7026 -1.4796
 8988TIP3    H248380   3.577   1.503   1.700 -0.3214  0.9328  1.6972
 8989TIP3   OH248381   4.695   2.411  14.037 -0.3887 -0.2173 -0.3117
 8989TIP3    H148382   4.669   2.438  14.125 -0.1814  0.4571 -0.4462
 8989TIP3    H248383   4.670   2.319  14.031  1.3799 -0.8418  1.1392
 8990TIP3   OH248384   0.633   1.751   3.234 -0.1907  0.0979 -0.5046
 8990TIP3    H148385   0.621   1.807   3.311 -0.2414 -0.6240  0.0213
 8990TIP3    H248386   0.726   1.729   3.234 -0.4538 -1.1526  0.2584
 8991TIP3   OH248387   2.246   5.103  17.176  0.4290  0.4448  0.0175
 8991TIP3    H148388   2.331   5.086  17.216 -0.3401 -0.9495  1.1733
 8991TIP3    H248389   2.183   5.081  17.244 -0.8824  0.6216 -1.0990
 8992TIP3   OH248390   5.283   2.172  13.917 -0.0133 -0.2067  0.2831
 8992TIP3    H148391   5.291   2.212  13.830  1.6508 -0.9435  0.0501
 8992TIP3    H248392   5.305   2.080  13.903 -1.4586 -0.7246  1.2159
 8993TIP3   OH248393   6.197   2.943  14.335  0.0285  0.0735  0.0056
 8993TIP3    H148394   6.221   2.866  14.284 -1.2066  0.3795 -1.0790
 8993TIP3    H248395   6.102   2.937  14.346  0.2804 -0.1502  2.5922
 8994TIP3   OH248396   2.087   6.735  12.608  0.2101  0.2041 -0.6244
 8994TIP3    H148397   2.182   6.719  12.605 -0.0510 -1.9430  0.5366
 8994TIP3    H248398   2.066   6.733  12.701 -1.2995 -1.7798 -0.9540
 8995TIP3   OH248399   4.782   4.901  15.666  0.2595  0.0106  0.3743
 8995TIP3    H148400   4.734   4.899  15.748 -2.2289 -1.3890 -0.9851
 8995TIP3    H248401   4.728   4.955  15.608  1.3375  0.0111 -0.6786
 8996TIP3   OH248402   3.231   0.894  11.242 -0.6572  0.0748  0.1527
 8996TIP3    H148403   3.311   0.929  11.204  0.0417 -2.2157 -0.6697
 8996TIP3    H248404   3.161   0.949  11.207  0.2361 -0.2301 -2.2866
 8997TIP3   OH248405   6.671   5.399  16.318 -0.3506  0.2587  0.4223
 8997TIP3    H148406   6.664   5.322  16.375  0.2297  1.1872  1.7787
 8997TIP3    H248407   6.755   5.389  16.274  1.1421  1.5372  2.8168
 8998TIP3   OH248408   2.869   1.383   1.669  0.4243 -0.3785 -0.0810
 8998TIP3    H148409   2.962   1.405   1.671  0.4348 -0.2414 -1.4837
 8998TIP3    H248410   2.866   1.288   1.683  0.7227 -0.3107  0.4837
 8999TIP3   OH248411   5.574   1.905  11.327  0.0671  0.3833  0.1526
 8999TIP3    H148412   5.667   1.925  11.317  0.8535 -1.1982  3.1371
 8999TIP3    H248413   5.558   1.833  11.266  0.4807  1.3915 -1.1732
 9000TIP3   OH248414   5.693   1.283  16.449  0.0505 -0.4674  0.1950
 9000TIP3    H148415   5.627   1.302  16.383 -1.2902 -1.2686  1.2559
 9000TIP3    H248416   5.703   1.188  16.446  0.9344 -0.3861  0.2653
 9001TIP3   OH248417   6.549   4.754   3.171 -0.3204 -0.5724 -0.5277
 9001TIP3    H148418   6.509   4.752   3.258  0.1226 -3.1771 -0.3237
 9001TIP3    H248419   6.583   4.843   3.164 -2.3845  0.4418  0.9929
 9002TIP3   OH248420   2.978   2.436  16.321 -0.2150 -0.2859  0.3660
 9002TIP3    H148421   2.897   2.396  16.353 -0.4357 -0.3292 -0.2464
 9002TIP3    H248422   2.957   2.529  16.312 -0.2551 -0.3289  0.0169
 9003TIP3   OH248423   0.861   2.567  11.604  0.7700 -0.4128 -0.2242
 9003TIP3    H148424   0.919   2.542  11.532 -0.4078 -1.8391 -0.7505
 9003TIP3    H248425   0.784   2.510  11.593  0.3653 -0.3601  1.9118
 9004TIP3   OH248426   6.472   2.083   1.905  0.0589  0.2334 -0.3694
 9004TIP3    H148427   6.438   2.065   1.992  2.0854  1.7314  0.8231
 9004TIP3    H248428   6.540   2.148   1.919  2.5257 -1.6273 -2.6972
 9005TIP3   OH248429   0.957   3.193  12.348 -0.2256  0.2732 -0.2422
 9005TIP3    H148430   0.997   3.278  12.369  0.9829 -0.0624 -1.0630
 9005TIP3    H248431   0.971   3.183  12.254  0.6846 -1.3513  0.0349
 9006TIP3   OH248432   5.219   5.634  12.016  0.7521  0.0066 -0.2576
 9006TIP3    H148433   5.161   5.658  11.943 -0.6619 -2.2035  0.0734
 9006TIP3    H248434   5.183   5.553  12.050  2.9273 -0.4007  1.2634
 9007TIP3   OH248435   4.529   6.553  14.639 -0.0553  0.2446 -0.4909
 9007TIP3    H148436   4.574   6.563  14.555  1.0932  2.6055  0.3214
 9007TIP3    H248437   4.560   6.626  14.692 -0.1116 -1.5887  2.3184
 9008TIP3   OH248438   1.315   2.191  16.439  0.2003  0.0600  0.5573
 9008TIP3    H148439   1.397   2.235  16.460 -0.0838 -0.1624  2.2760
 9008TIP3    H248440   1.251   2.228  16.501 -0.6093 -0.9489  0.3500
 9009TIP3   OH248441   4.817   3.761  15.619 -0.3913  0.3256 -0.3611
 9009TIP3    H148442   4.850   3.796  15.702  0.8873 -0.4481 -0.5187
 9009TIP3    H248443   4.772   3.680  15.644 -0.9139  0.6184 -0.3231
 9010TIP3   OH248444   3.324   6.724  16.455  0.0501  0.2669  0.1984
 9010TIP3    H148445   3.303   6.724  16.362  0.1843 -0.3477  0.1698
 9010TIP3    H248446   3.245   6.760  16.497  0.2612  1.2436 -0.2012
 9011TIP3   OH248447   0.810   1.166  17.170 -1.1121 -0.5569 -0.0627
 9011TIP3    H148448   0.894   1.212  17.172 -1.1079 -0.5886  0.9121
 9011TIP3    H248449   0.789   1.151  17.262 -2.3297 -0.2921 -0.2878
 9012TIP3   OH248450   3.149   5.198  10.870 -0.0505 -0.2378  0.0202
 9012TIP3    H148451   3.091   5.262  10.912 -0.6591  0.3763 -1.6594
 9012TIP3    H248452   3.212   5.251  10.821 -1.1100 -0.8423 -2.1378
 9013TIP3   OH248453   0.731   1.765  11.482  0.7207 -0.1674  0.7258
 9013TIP3    H148454   0.698   1.808  11.403 -0.3009 -1.0227  0.6561
 9013TIP3    H248455   0.736   1.834  11.547  0.6009  0.3553  0.1884
 9014TIP3   OH248456   5.633   1.352  13.916 -0.9438 -0.5084  0.3492
 9014TIP3    H148457   5.653   1.263  13.944 -0.1258 -0.1764  0.8457
 9014TIP3    H248458   5.670   1.408  13.984 -1.4378  0.2176  0.0367
 9015TIP3   OH248459   4.910   3.739   2.612 -0.4863  0.0870 -0.4818
 9015TIP3    H148460   4.840   3.729   2.548 -1.0631 -0.1098  0.1577
 9015TIP3    H248461   4.990   3.713   2.566 -0.9028 -0.1479 -1.0807
 9016TIP3   OH248462   5.850   6.236  14.438  0.1839 -0.0567 -0.2534
 9016TIP3    H148463   5.865   6.189  14.520 -1.5992 -0.4379 -0.1029
 9016TIP3    H248464   5.767   6.201  14.406  0.8649  0.0645 -2.2518
 9017TIP3   OH248465   4.117   0.531  11.082  0.0243  0.0059 -0.3276
 9017TIP3    H148466   4.072   0.594  11.026  0.1034 -1.2170 -1.8362
 9017TIP3    H248467   4.198   0.576  11.108 -1.8151  2.1668  2.2802
 9018TIP3   OH248468   0.569   4.887  14.165  0.3535  0.0455 -0.2418
 9018TIP3    H148469   0.534   4.802  14.138 -1.3371  0.8895 -0.8666
 9018TIP3    H248470   0.602   4.926  14.084  0.6150  0.2322 -0.0492
 9019TIP3   OH248471   5.460   2.012   1.629 -0.0890 -0.3986  0.0758
 9019TIP3    H148472   5.434   2.083   1.687  0.0727 -0.9208  0.8000
 9019TIP3    H248473   5.394   1.944   1.643 -2.4353  0.9061 -3.2890
 9020TIP3   OH248474   0.942   4.558  11.207 -0.0479  0.4945  0.4248
 9020TIP3    H148475   0.937   4.616  11.131  2.0770 -0.2928 -0.3914
 9020TIP3    H248476   0.914   4.473  11.175  2.2705 -0.1885  0.0606
 9021TIP3   OH248477   5.370   6.465   3.150  0.1682  0.1242  0.6993
 9021TIP3    H148478   5.450   6.412   3.160 -0.3864 -1.1209 -0.8687
 9021TIP3    H248479   5.332   6.468   3.237  0.2852 -2.0326  0.8890
 9022TIP3   OH248480   5.263   2.017  16.565 -0.5982  0.1372  0.5412
 9022TIP3    H148481   5.283   2.018  16.658 -1.3202 -0.5447  0.7256
 9022TIP3    H248482   5.167   2.017  16.561 -0.5759  0.4361 -0.2050
 9023TIP3   OH248483   5.277   1.140   0.488 -0.3491  0.0326  0.4963
 9023TIP3    H148484   5.262   1.194   0.565 -1.7885  1.1328 -0.5132
 9023TIP3    H248485   5.197   1.088   0.479 -0.2211 -0.0432 -0.2794
 9024TIP3   OH248486   4.720   3.770  11.398 -0.2254 -0.6582 -0.0466
 9024TIP3    H148487   4.686   3.737  11.481  0.0270 -0.0929  0.2824
 9024TIP3    H248488   4.649   3.823  11.362  0.7618  1.7508  1.3397
 9025TIP3   OH248489   5.515   4.356  16.305  0.6690  0.1499  0.0222
 9025TIP3    H148490   5.598   4.323  16.269 -0.6550 -1.4894 -1.7151
 9025TIP3    H248491   5.464   4.382  16.228 -0.6985  0.4945  1.0129
 9026TIP3   OH248492   1.553   5.622   2.284 -0.3582  0.6851 -0.2370
 9026TIP3    H148493   1.517   5.611   2.372 -0.0024  2.1233  0.1195
 9026TIP3    H248494   1.518   5.707   2.255 -0.1975  0.3806 -1.3511
 9027TIP3   OH248495   1.609   5.845   4.483 -0.1845  0.0879  0.3459
 9027TIP3    H148496   1.556   5.777   4.441  2.0380 -1.6230  0.1032
 9027TIP3    H248497   1.690   5.847   4.432  0.8053  1.1484  1.8645
 9028TIP3   OH248498   2.647   2.112  13.065  0.1226  0.3835 -0.2673
 9028TIP3    H148499   2.709   2.039  13.062 -0.9482 -0.5519 -0.3082
 9028TIP3    H248500   2.658   2.149  13.153  1.5388  0.9761 -0.6633
 9029TIP3   OH248501   6.198   2.491   5.086 -0.1053 -0.0020  0.1307
 9029TIP3    H148502   6.173   2.436   5.012 -0.0765  0.0115  0.1110
 9029TIP3    H248503   6.131   2.560   5.088 -0.5222 -0.4133  0.5654
 9030TIP3   OH248504   5.030   3.277   1.035 -0.2059 -0.0426  0.0578
 9030TIP3    H148505   5.053   3.340   1.103 -0.1178 -1.3507  1.2798
 9030TIP3    H248506   4.979   3.210   1.080 -1.9716  0.0972 -1.5829
 9031TIP3   OH248507   2.752   5.650   2.687 -0.0369  0.3864  0.2825
 9031TIP3    H148508   2.792   5.732   2.717 -1.8618  1.4721 -0.0666
 9031TIP3    H248509   2.710   5.673   2.604  0.6777 -1.3112 -0.6030
 9032TIP3   OH248510   0.389   4.359  13.356  0.2176 -0.7489 -0.1659
 9032TIP3    H148511   0.426   4.446  13.343 -0.0512 -0.5263  0.5256
 9032TIP3    H248512   0.363   4.331  13.268 -0.0557  0.0287 -0.3441
 9033TIP3   OH248513   4.998   6.430  14.407 -0.1664 -0.4168 -0.4569
 9033TIP3    H148514   4.970   6.488  14.478  1.1655  0.3371 -0.5088
 9033TIP3    H248515   5.084   6.398  14.435 -0.0374 -0.8402 -1.3190
 9034TIP3   OH248516   6.585   4.492   1.682  0.0101 -0.4095  0.4155
 9034TIP3    H148517   6.595   4.459   1.593 -1.5926 -0.5543  0.2562
 9034TIP3    H248518   6.659   4.551   1.694  0.2399 -0.3709 -1.0255
 9035TIP3   OH248519   0.974   5.873   4.018 -0.1476 -1.0931  0.6438
 9035TIP3    H148520   0.921   5.926   3.958 -2.2372 -1.3039  2.1750
 9035TIP3    H248521   1.058   5.918   4.021 -0.8557  0.3965 -0.4347
 9036TIP3   OH248522   4.092   2.805   3.549 -0.1312 -0.0791  0.2552
 9036TIP3    H148523   4.084   2.862   3.472  1.2917 -0.7936 -0.4484
 9036TIP3    H248524   4.002   2.797   3.581 -0.7781  0.2164 -1.3460
 9037TIP3   OH248525   0.408   4.023   3.808 -0.2618  0.7633  0.1871
 9037TIP3    H148526   0.500   4.045   3.824 -0.4423  3.3970 -1.5832
 9037TIP3    H248527   0.406   3.993   3.717 -1.0539 -0.1131  0.4757
 9038TIP3   OH248528   1.907   1.043  13.125  0.0320  0.1718  0.5839
 9038TIP3    H148529   1.990   1.084  13.100 -0.5464  1.1783  0.2813
 9038TIP3    H248530   1.931   0.952  13.144  0.7487 -0.3580 -2.3352
 9039TIP3   OH248531   0.824   6.289  14.340  0.1809 -0.0240 -0.2595
 9039TIP3    H148532   0.800   6.382  14.339  2.6009  0.6891  0.1659
 9039TIP3    H248533   0.857   6.271  14.252  0.2708 -0.3251 -0.1666
 9040TIP3   OH248534   3.513   1.345  15.152 -0.2499  0.2953  0.0286
 9040TIP3    H148535   3.517   1.282  15.225 -0.1465  0.5669  0.2604
 9040TIP3    H248536   3.447   1.309  15.093  0.3933 -0.4684 -0.2526
 9041TIP3   OH248537   6.388   5.711  14.006 -0.4625  0.2754 -0.1490
 9041TIP3    H148538   6.476   5.728  13.973 -0.0064 -2.2650 -0.4634
 9041TIP3    H248539   6.343   5.666  13.934 -1.8787  1.1287  0.1670
 9042TIP3   OH248540   1.450   3.302  11.997  0.0183  0.8642  0.4916
 9042TIP3    H148541   1.534   3.346  11.988 -0.3108  2.0680  2.5842
 9042TIP3    H248542   1.443   3.281  12.090 -1.5784 -0.0571  0.2105
 9043TIP3   OH248543   4.540   1.367   4.721 -0.3841  0.7406 -0.3281
 9043TIP3    H148544   4.523   1.281   4.759  1.1017 -0.2534 -1.7471
 9043TIP3    H248545   4.455   1.411   4.723 -0.6341  0.3531  2.9476
 9044TIP3   OH248546   1.097   4.343   2.465  0.2305  0.1728  0.0898
 9044TIP3    H148547   1.006   4.320   2.484 -0.4635  1.9906 -0.8490
 9044TIP3    H248548   1.114   4.305   2.379  0.4061 -0.2410  0.3026
 9045TIP3   OH248549   0.588   4.863  13.267 -0.3164 -0.6441 -0.1166
 9045TIP3    H148550   0.536   4.847  13.189 -2.6786 -0.9017  1.4192
 9045TIP3    H248551   0.575   4.956  13.286  1.9812 -0.0487 -1.1545
 9046TIP3   OH248552   0.509   3.850  13.518 -0.0176 -0.0802 -0.2293
 9046TIP3    H148553   0.423   3.838  13.558 -0.9197 -0.0477 -2.0294
 9046TIP3    H248554   0.502   3.932  13.469  1.1293  0.0608 -0.1969
 9047TIP3   OH248555   0.034   6.024  13.250 -0.8144  0.0968  0.1413
 9047TIP3    H148556  -0.012   5.961  13.196 -1.2230 -0.1013  0.7042
 9047TIP3    H248557  -0.032   6.090  13.271 -0.3997  0.7050 -0.4203
 9048TIP3   OH248558   1.978   4.568  15.453 -0.4014 -0.2637 -0.0599
 9048TIP3    H148559   2.069   4.544  15.469 -1.1142 -2.8373  0.6279
 9048TIP3    H248560   1.951   4.510  15.382 -1.1639  1.4438 -1.2256
 9049TIP3   OH248561   4.927   6.150  12.910  0.4108 -0.0848 -0.4626
 9049TIP3    H148562   4.914   6.171  12.817  0.8823 -1.2067 -0.8035
 9049TIP3    H248563   5.019   6.122  12.915 -0.5192 -3.6570 -0.4267
 9050TIP3   OH248564   0.024   2.514  16.417  0.3452 -0.8207 -0.0067
 9050TIP3    H148565   0.107   2.481  16.383  1.0914  1.5844 -0.7781
 9050TIP3    H248566  -0.043   2.479  16.359  1.3958  1.4038 -2.7724
 9051TIP3   OH248567   0.319   0.158  17.389  0.1964  0.1559  0.9329
 9051TIP3    H148568   0.411   0.185  17.391  0.1158  0.9862 -1.9071
 9051TIP3    H248569   0.280   0.213  17.321 -1.9145 -1.5763  0.6482
 9052TIP3   OH248570   3.838   3.259  13.018  0.2542  0.0108 -0.4079
 9052TIP3    H148571   3.844   3.343  13.065 -0.5279  1.1317 -2.2186
 9052TIP3    H248572   3.919   3.213  13.042  1.3921  1.8797 -0.4360
 9053TIP3   OH248573   5.748   1.822   1.649 -0.1118  0.5787  0.0041
 9053TIP3    H148574   5.668   1.830   1.598  0.1924 -2.0543 -1.0281
 9053TIP3    H248575   5.818   1.848   1.590 -0.1071  2.3640  0.7384
 9054TIP3   OH248576   0.060   4.646  12.112  0.1687  0.1751 -0.4719
 9054TIP3    H148577  -0.016   4.697  12.140  1.2078  0.3954  2.2302
 9054TIP3    H248578   0.042   4.558  12.145  0.4607 -0.1230 -1.0917
 9055TIP3   OH248579   6.349   5.838  14.644  0.2162  0.5929 -0.2080
 9055TIP3    H148580   6.265   5.868  14.679 -0.0001 -0.2914  0.0557
 9055TIP3    H248581   6.325   5.785  14.568  0.6354  1.7644 -1.2021
 9056TIP3   OH248582   5.276   2.171  12.113  0.7082  0.0587 -0.2853
 9056TIP3    H148583   5.313   2.102  12.168 -0.0434  0.0776  0.2593
 9056TIP3    H248584   5.351   2.225  12.089  1.2467 -0.7171 -0.3944
 9057TIP3   OH248585   4.539   0.931  12.705 -0.7664  0.9680  0.1564
 9057TIP3    H148586   4.534   0.891  12.792 -0.3074  1.2771  0.3323
 9057TIP3    H248587   4.460   0.901  12.660 -0.3195 -0.3426  0.1887
 9058TIP3   OH248588   5.649   4.477   3.200 -0.1709  0.0730 -0.9064
 9058TIP3    H148589   5.585   4.443   3.138 -0.7187 -0.3612 -0.1250
 9058TIP3    H248590   5.601   4.485   3.282  0.7351 -0.0961 -0.3444
 9059TIP3   OH248591   0.182   2.591  13.367  0.4023 -0.0637 -0.1350
 9059TIP3    H148592   0.152   2.681  13.370  3.2009  0.9450  0.0557
 9059TIP3    H248593   0.220   2.575  13.454 -0.8335 -1.7646  0.1470
 9060TIP3   OH248594   1.062   6.351   5.635 -0.0445  0.5648  0.8342
 9060TIP3    H148595   1.138   6.409   5.625 -0.2298  0.4983 -1.5232
 9060TIP3    H248596   1.047   6.347   5.730  2.1226  1.5545  1.2856
 9061TIP3   OH248597   4.000   4.173   4.744  0.1708 -0.2148 -0.1048
 9061TIP3    H148598   3.935   4.217   4.800 -0.2576  0.1711 -0.8936
 9061TIP3    H248599   3.948   4.114   4.689  0.3629  0.7452 -1.3651
 9062TIP3   OH248600   1.628   4.630  15.649  0.2390  0.2193 -0.1198
 9062TIP3    H148601   1.657   4.548  15.608 -0.6320 -0.8410  1.2910
 9062TIP3    H248602   1.588   4.680  15.577  2.4628  0.2676 -1.3925
 9063TIP3   OH248603   1.554   6.744  15.488 -0.3159  0.2891 -0.0041
 9063TIP3    H148604   1.547   6.689  15.566  2.4694 -0.3343 -0.0693
 9063TIP3    H248605   1.648   6.758  15.478 -0.7745  2.7055 -1.6751
 9064TIP3   OH248606   0.464   1.426  14.362  0.2961 -0.5327 -0.8445
 9064TIP3    H148607   0.395   1.448  14.425 -0.1911 -0.9864 -1.2128
 9064TIP3    H248608   0.426   1.356  14.308  0.7270 -0.1837 -1.6110
 9065TIP3   OH248609   6.366   1.621  12.259 -0.2719  0.5215  0.3902
 9065TIP3    H148610   6.391   1.529  12.249  2.6940  1.2628 -0.2225
 9065TIP3    H248611   6.274   1.619  12.286 -0.3276 -2.5879  0.3133
 9066TIP3   OH248612   0.396   0.706  16.502  0.2065  0.0913  0.6125
 9066TIP3    H148613   0.363   0.765  16.570 -2.9708 -1.2833  0.4306
 9066TIP3    H248614   0.460   0.651  16.547 -0.1890  0.6758  1.9437
 9067TIP3   OH248615   4.313   3.378  11.195 -0.3214  0.4048 -0.0230
 9067TIP3    H148616   4.374   3.305  11.181  0.1790  0.7842  0.1267
 9067TIP3    H248617   4.320   3.397  11.289  0.6757  1.5978 -0.3071
 9068TIP3   OH248618   0.114   3.880  14.608  0.0213 -0.1198  0.3444
 9068TIP3    H148619   0.085   3.968  14.631 -0.1209  0.0090 -0.3088
 9068TIP3    H248620   0.182   3.894  14.542 -0.7596 -0.5358 -0.5570
 9069TIP3   OH248621   5.455   0.183  12.555  0.1059  0.0189 -0.5812
 9069TIP3    H148622   5.380   0.154  12.503 -1.3443 -0.2206  1.4965
 9069TIP3    H248623   5.436   0.152  12.644  2.5742  0.1596  0.0862
 9070TIP3   OH248624   1.033   6.506   3.616  0.1134 -0.0783 -0.1570
 9070TIP3    H148625   1.088   6.548   3.550  0.1540 -1.8003 -1.2719
 9070TIP3    H248626   1.050   6.413   3.606  0.3184 -0.4164  2.4911
 9071TIP3   OH248627   3.527   4.745  15.613  0.3506  0.7455 -0.6677
 9071TIP3    H148628   3.455   4.695  15.653  0.9718 -0.2229 -0.7218
 9071TIP3    H248629   3.580   4.774  15.686  1.5815 -1.1710 -0.7122
 9072TIP3   OH248630   3.150   0.873   4.908  0.1087  0.4210  0.0226
 9072TIP3    H148631   3.228   0.911   4.867  0.3628 -2.3529 -2.3399
 9072TIP3    H248632   3.184   0.813   4.974  0.0238 -0.5528 -0.7921
 9073TIP3   OH248633   3.086   6.397   6.246  0.5466 -0.0293  0.2231
 9073TIP3    H148634   3.032   6.395   6.167  2.4281 -0.1415 -1.1129
 9073TIP3    H248635   3.122   6.309   6.252  1.0498  0.2103  0.7443
 9074TIP3   OH248636   6.392   3.698  11.053 -0.4178 -0.6938  0.4188
 9074TIP3    H148637   6.367   3.606  11.042 -1.3461 -0.3795 -0.2834
 9074TIP3    H248638   6.420   3.725  10.966  0.1453 -0.3946  0.6946
 9075TIP3   OH248639   6.658   6.248  12.780  0.0375  0.1178 -0.2801
 9075TIP3    H148640   6.595   6.178  12.766 -0.7604  0.3996  1.6282
 9075TIP3    H248641   6.744   6.205  12.775 -0.3841 -0.7240 -0.4773
 9076TIP3   OH248642   3.409   6.444   6.332 -0.5900  0.2843  0.4382
 9076TIP3    H148643   3.495   6.470   6.363 -0.5187  0.3852  0.1565
 9076TIP3    H248644   3.385   6.369   6.388  1.2852 -2.2126 -1.8296
 9077TIP3   OH248645   2.789   4.826   1.346 -0.0408 -0.1351  0.5313
 9077TIP3    H148646   2.718   4.763   1.354 -0.5616 -0.0507 -2.2563
 9077TIP3    H248647   2.869   4.776   1.363 -0.3663 -1.9252 -2.4730
 9078TIP3   OH248648   3.477   6.745  11.766  0.0487  0.3496 -0.4732
 9078TIP3    H148649   3.462   6.688  11.690  0.3921 -1.2935  0.6421
 9078TIP3    H248650   3.476   6.686  11.841 -0.1586  1.9164  0.8155
 9079TIP3   OH248651   0.299   4.092  11.652 -0.0194  0.3456 -0.5424
 9079TIP3    H148652   0.267   4.084  11.562 -1.4499  0.8890 -0.1149
 9079TIP3    H248653   0.331   4.004  11.674  3.4824  0.9289 -2.6329
 9080TIP3   OH248654   5.716   2.928   2.512 -0.1123 -0.3274 -0.3417
 9080TIP3    H148655   5.638   2.980   2.493 -0.2724 -0.6139 -0.4741
 9080TIP3    H248656   5.789   2.983   2.483 -0.3471 -0.8008 -1.9357
 9081TIP3   OH248657   2.428   2.698  15.970  0.2876 -0.1507  0.2467
 9081TIP3    H148658   2.445   2.645  15.892 -0.3549  0.4574 -0.3219
 9081TIP3    H248659   2.476   2.780  15.955 -0.5262  0.3050  0.0948
 9082TIP3   OH248660   4.643   0.182   5.266 -0.2809 -0.1578  0.1514
 9082TIP3    H148661   4.722   0.177   5.320  0.1524  0.0546 -0.4519
 9082TIP3    H248662   4.573   0.205   5.327 -0.3943 -2.8978  1.1760
 9083TIP3   OH248663   2.715   1.646   1.650  0.2065 -0.1750 -0.5691
 9083TIP3    H148664   2.776   1.579   1.618  1.6188  0.6873  0.2224
 9083TIP3    H248665   2.763   1.692   1.718 -1.6465  0.0203  0.6853
 9084TIP3   OH248666   0.751   2.834  16.644  0.0927 -0.6019  0.3251
 9084TIP3    H148667   0.772   2.757  16.696  1.3366  0.0315  0.8036
 9084TIP3    H248668   0.832   2.886  16.644 -0.8311  0.8990  0.3607
 9085TIP3   OH248669   2.327   2.157   6.061  0.2172  0.5753  0.3879
 9085TIP3    H148670   2.368   2.071   6.068 -2.8664 -1.2191 -1.4036
 9085TIP3    H248671   2.292   2.174   6.149  1.6457  0.4915  0.9928
 9086TIP3   OH248672   3.137   2.341   1.245  0.0251 -0.1637  0.5584
 9086TIP3    H148673   3.155   2.419   1.192  2.1585 -0.6269  0.5002
 9086TIP3    H248674   3.191   2.352   1.323 -1.3780 -0.5598  1.6251
 9087TIP3   OH248675   2.154   0.912  12.495 -0.4573 -0.3304  0.3864
 9087TIP3    H148676   2.072   0.943  12.533  0.0178 -0.8932  1.9713
 9087TIP3    H248677   2.218   0.980  12.518 -0.3016 -0.3223 -0.0602
 9088TIP3   OH248678   6.021   3.134  15.134  0.1295  0.1041 -0.0940
 9088TIP3    H148679   6.002   3.217  15.090  1.7753 -0.9560 -3.0160
 9088TIP3    H248680   6.116   3.125  15.130 -0.0633 -2.3756 -0.8269
 9089TIP3   OH248681   2.091   4.448   5.341  0.5842  0.1767  0.6857
 9089TIP3    H148682   2.078   4.465   5.434  0.4961 -2.5833  1.2530
 9089TIP3    H248683   2.019   4.496   5.298  0.5450  1.3818  1.9939
 9090TIP3   OH248684   4.799   1.094   4.454  0.3631 -0.2988  0.1871
 9090TIP3    H148685   4.766   1.181   4.476 -1.7446 -1.4483  1.9909
 9090TIP3    H248686   4.864   1.075   4.522  0.5520 -0.2945  0.0093
 9091TIP3   OH248687   5.539   1.324  12.865  0.3078 -0.0502  0.0931
 9091TIP3    H148688   5.461   1.378  12.877 -0.6656 -1.3252 -0.3166
 9091TIP3    H248689   5.592   1.372  12.802 -0.8272  0.1277 -0.7416
 9092TIP3   OH248690   4.668   6.714  12.507  0.6900  0.9885 -0.7251
 9092TIP3    H148691   4.607   6.777  12.466  0.6172  2.1713  1.0955
 9092TIP3    H248692   4.627   6.629  12.492  0.4086  1.3963 -2.6112
 9093TIP3   OH248693   0.402   1.574  11.956  0.0842 -0.4306  0.2859
 9093TIP3    H148694   0.307   1.577  11.949  0.1344 -1.0058 -0.9660
 9093TIP3    H248695   0.433   1.593  11.867  1.1034 -1.2117  0.4539
 9094TIP3   OH248696   4.728   4.517   4.535  0.1720  0.5228 -0.4385
 9094TIP3    H148697   4.814   4.533   4.497 -0.3550  0.1004 -1.8948
 9094TIP3    H248698   4.673   4.586   4.499 -0.0838  0.8625  0.5782
 9095TIP3   OH248699   5.029   3.638   2.828  0.0449  0.7316 -0.5775
 9095TIP3    H148700   5.093   3.688   2.879 -0.3214  3.0208 -2.2127
 9095TIP3    H248701   4.974   3.704   2.786 -1.1978 -1.0847 -1.9944
 9096TIP3   OH248702   4.149   4.953  16.908 -0.5722  0.1569 -0.5708
 9096TIP3    H148703   4.171   4.998  16.827  1.4316  1.6023  0.6689
 9096TIP3    H248704   4.178   4.863  16.895  1.6824  0.8486 -0.8138
 9097TIP3   OH248705   6.291   2.772  13.315 -0.1461 -0.1315 -0.3988
 9097TIP3    H148706   6.262   2.761  13.224 -0.3199  0.2910 -0.3950
 9097TIP3    H248707   6.298   2.683  13.349  1.1936 -0.3623 -1.2174
 9098TIP3   OH248708   3.787   4.178  14.155  0.6565  0.6454 -0.0811
 9098TIP3    H148709   3.877   4.151  14.176  1.2293  0.5642 -2.3260
 9098TIP3    H248710   3.737   4.097  14.158  0.5568  0.7401  1.5085
 9099TIP3   OH248711   4.645   3.641  15.330 -0.1926  0.4516 -0.0148
 9099TIP3    H148712   4.588   3.707  15.370 -1.0439  0.7010 -1.5746
 9099TIP3    H248713   4.585   3.579  15.289  0.6425  0.0527 -0.6559
 9100TIP3   OH248714   1.856   4.400  11.963 -0.0847  0.3722 -0.7890
 9100TIP3    H148715   1.878   4.317  12.006 -0.0016  0.8085  0.0225
 9100TIP3    H248716   1.938   4.449  11.963  0.0668  0.1489 -1.9970
 9101TIP3   OH248717   6.246   5.320  12.645 -0.1683  0.0114  0.1990
 9101TIP3    H148718   6.282   5.407  12.628  0.3206 -0.1282  0.4955
 9101TIP3    H248719   6.319   5.272  12.685 -0.0839 -0.8741 -0.9543
 9102TIP3   OH248720   4.402   0.617  15.598 -0.2334  0.1344  0.2306
 9102TIP3    H148721   4.433   0.659  15.678 -0.8094 -1.3266  1.2601
 9102TIP3    H248722   4.311   0.594  15.617  0.0128 -1.4241 -0.3254
 9103TIP3   OH248723   5.291   5.753   6.028  0.0934  0.1558  0.3373
 9103TIP3    H148724   5.301   5.711   6.114 -1.1556 -2.0663 -0.5194
 9103TIP3    H248725   5.351   5.706   5.971 -1.1265 -0.3212 -0.5927
 9104TIP3   OH248726   5.497   2.929   5.384  0.2222  0.0411  0.5396
 9104TIP3    H148727   5.552   3.007   5.374  0.5937 -0.5340 -3.3085
 9104TIP3    H248728   5.559   2.856   5.391 -0.1136 -0.2076  1.0096
 9105TIP3   OH248729   6.537   0.243   0.135  0.6729  0.3895 -0.5787
 9105TIP3    H148730   6.626   0.259   0.104  1.3791 -0.1929  1.0303
 9105TIP3    H248731   6.511   0.162   0.092  0.8034  0.6998 -1.2591
 9106TIP3   OH248732   0.164   4.556  16.828 -0.5366 -0.6020 -0.0176
 9106TIP3    H148733   0.125   4.643  16.823 -0.7216 -0.4227  2.9310
 9106TIP3    H248734   0.117   4.505  16.762 -1.9204  0.9933 -0.3187
 9107TIP3   OH248735   1.337   4.304   2.607 -0.1016 -0.5200 -0.2388
 9107TIP3    H148736   1.261   4.306   2.548 -1.0841 -1.2187  0.9557
 9107TIP3    H248737   1.326   4.223   2.657 -0.4766  1.0692  2.4102
 9108TIP3   OH248738   2.661   4.911   3.694 -0.6883  0.1517  0.1491
 9108TIP3    H148739   2.640   4.991   3.647  0.5552  0.9126  0.8383
 9108TIP3    H248740   2.590   4.851   3.672 -1.8234  1.5392 -0.1281
 9109TIP3   OH248741   5.770   3.525  16.211 -0.2790 -0.3663 -0.2156
 9109TIP3    H148742   5.829   3.450  16.215  1.7495  1.1486 -0.0688
 9109TIP3    H248743   5.683   3.487  16.203  0.5453 -2.7436  1.1630
 9110TIP3   OH248744   0.332   1.281   2.232 -0.4811  0.1065  0.4913
 9110TIP3    H148745   0.349   1.279   2.326 -1.1882 -1.7040  0.6335
 9110TIP3    H248746   0.236   1.288   2.225 -0.3795  1.0731 -0.1151
 9111TIP3   OH248747   6.394   0.244   1.076 -0.5767 -0.2264  0.5871
 9111TIP3    H148748   6.453   0.173   1.051 -0.1671 -0.4511  2.0782
 9111TIP3    H248749   6.314   0.227   1.027  0.1550 -0.6518 -0.4868
 9112TIP3   OH248750   2.527   6.158  13.659 -0.7370  0.2262  0.2692
 9112TIP3    H148751   2.506   6.227  13.596  0.4855 -0.5212 -1.0291
 9112TIP3    H248752   2.588   6.100  13.612 -0.6178 -0.9603  1.7888
 9113TIP3   OH248753   4.954   2.944  13.933 -0.1780 -0.1880  0.1132
 9113TIP3    H148754   4.871   2.915  13.971  0.4298  0.5857  2.1699
 9113TIP3    H248755   4.932   2.970  13.843 -2.1093 -0.2491  0.5329
 9114TIP3   OH248756   1.948   2.570  11.691 -0.6446  0.2701  0.1675
 9114TIP3    H148757   2.038   2.584  11.720 -0.2336 -0.4893 -0.6828
 9114TIP3    H248758   1.905   2.525  11.764  0.6947 -2.7295 -0.7301
 9115TIP3   OH248759   3.270   1.036  13.769  0.3959 -0.0343  0.1220
 9115TIP3    H148760   3.195   1.084  13.735  0.5547  1.2958  1.5343
 9115TIP3    H248761   3.314   1.000  13.692  0.6914  2.7212 -1.0845
 9116TIP3   OH248762   4.220   4.088   1.056  0.1271 -0.3103 -0.3327
 9116TIP3    H148763   4.134   4.057   1.085  0.1996  0.3989  0.6944
 9116TIP3    H248764   4.259   4.012   1.012 -1.1964 -0.5035 -1.2366
 9117TIP3   OH248765   1.034   2.146   4.038  0.0406  0.0057  0.1366
 9117TIP3    H148766   1.069   2.234   4.048  0.2542 -0.1149  0.4705
 9117TIP3    H248767   1.017   2.138   3.944 -2.4244  1.3097  0.4008
 9118TIP3   OH248768   5.719   4.076  16.568  0.3094  0.2732  0.1089
 9118TIP3    H148769   5.710   3.994  16.617 -0.3843  0.3711  0.1417
 9118TIP3    H248770   5.744   4.048  16.480 -0.0192  0.0242  0.0938
 9119TIP3   OH248771   1.881   6.396   4.014 -0.3974  0.2873  0.0856
 9119TIP3    H148772   1.936   6.321   3.992 -0.2843  0.8846 -1.8529
 9119TIP3    H248773   1.904   6.418   4.104 -0.5465 -2.0723  0.7501
 9120TIP3   OH248774   1.821   6.458   0.477  0.5688 -0.0913  0.7349
 9120TIP3    H148775   1.849   6.406   0.553 -1.0725  0.7029  1.9529
 9120TIP3    H248776   1.901   6.472   0.427  1.3318 -2.5069  1.1320
 9121TIP3   OH248777   0.605   4.221   4.323  0.0663 -0.6446  0.3203
 9121TIP3    H148778   0.559   4.148   4.366 -0.7243 -1.7875 -2.2707
 9121TIP3    H248779   0.535   4.282   4.300  0.0532 -1.3416 -1.6618
 9122TIP3   OH248780   1.709   0.625  13.993  0.5186 -0.2755 -0.3134
 9122TIP3    H148781   1.771   0.613  13.921  1.7514 -0.1389  0.6934
 9122TIP3    H248782   1.761   0.660  14.064 -0.7215 -0.2028  0.5910
 9123TIP3   OH248783   2.269   5.591  12.605 -0.3826  0.4619  0.2162
 9123TIP3    H148784   2.237   5.658  12.666  1.7735  1.8794 -0.0883
 9123TIP3    H248785   2.210   5.596  12.531 -0.5822  1.6991  0.4350
 9124TIP3   OH248786   3.960   3.238  13.301 -0.2764 -0.3752  0.2856
 9124TIP3    H148787   3.926   3.245  13.390 -2.4582  0.7844 -0.5629
 9124TIP3    H248788   3.930   3.153  13.270  3.3595 -2.3946  1.6441
 9125TIP3   OH248789   2.510   5.282   1.526 -0.1286  0.0483  0.6027
 9125TIP3    H148790   2.484   5.198   1.488 -0.1113 -0.7687  2.2959
 9125TIP3    H248791   2.477   5.278   1.616  0.2457  1.6922  0.8372
 9126TIP3   OH248792   1.120   3.028   2.154  0.5972 -0.2444  0.4675
 9126TIP3    H148793   1.152   3.016   2.243  0.3927  0.8016  0.6946
 9126TIP3    H248794   1.043   2.972   2.148 -0.5331  1.1229  1.5911
 9127TIP3   OH248795   1.099   6.684   4.349  0.0753  0.2806  0.2831
 9127TIP3    H148796   1.124   6.631   4.274 -0.3809  0.1282  0.2346
 9127TIP3    H248797   1.125   6.633   4.425 -1.2291 -0.4683  0.2549
 9128TIP3   OH248798   2.522   2.091  12.292 -0.9731 -0.0278 -0.7570
 9128TIP3    H148799   2.524   2.036  12.214 -1.0200 -0.7024 -0.2967
 9128TIP3    H248800   2.548   2.032  12.363 -0.7543  0.6191 -0.2918
 9129TIP3   OH248801   3.950   5.505   0.387  0.3761  0.0285 -0.1319
 9129TIP3    H148802   4.018   5.486   0.323 -0.4182  3.0081 -2.0360
 9129TIP3    H248803   3.873   5.527   0.335 -1.8737 -2.2650  1.9416
 9130TIP3   OH248804   5.434   4.366  14.314 -0.1652  0.6181 -0.4627
 9130TIP3    H148805   5.347   4.365  14.353 -0.2253  0.3175 -0.5960
 9130TIP3    H248806   5.479   4.292  14.355  0.2808  1.2398  0.1682
 9131TIP3   OH248807   4.643   4.837   0.462 -0.1392  0.3658  0.6105
 9131TIP3    H148808   4.664   4.837   0.556  0.2034 -0.8908  0.5552
 9131TIP3    H248809   4.617   4.927   0.443  0.8893  0.9055  1.6674
 9132TIP3   OH248810   6.216   1.813   3.077  0.7017 -0.5978  0.6945
 9132TIP3    H148811   6.247   1.865   3.004  0.3514  0.4742  1.2837
 9132TIP3    H248812   6.153   1.752   3.039 -2.6234  2.5961  0.5389
 9133TIP3   OH248813   4.056   0.236   3.878  0.1140  0.8246  0.0856
 9133TIP3    H148814   4.133   0.214   3.826 -1.1370 -1.8807 -0.7789
 9133TIP3    H248815   4.020   0.314   3.836  0.5323  0.1552 -1.5694
 9134TIP3   OH248816   4.962   0.240   6.377  0.7394  0.0534 -0.0032
 9134TIP3    H148817   4.983   0.201   6.461 -0.8224 -0.6915  0.0875
 9134TIP3    H248818   5.020   0.196   6.315  0.3967 -1.0009  0.3926
 9135TIP3   OH248819   1.465   1.231  16.309 -0.2509 -0.7764  0.2368
 9135TIP3    H148820   1.560   1.239  16.320 -0.2272  1.2353 -0.9267
 9135TIP3    H248821   1.430   1.306  16.357 -1.1099 -0.4203 -0.9188
 9136TIP3   OH248822   4.801   6.258   3.119  0.2005  0.3120  0.1782
 9136TIP3    H148823   4.862   6.185   3.118 -0.7518 -0.5134  0.2004
 9136TIP3    H248824   4.851   6.331   3.156  0.4147 -1.0435  2.7607
 9137TIP3   OH248825   6.459   1.205   1.800  0.0155  0.0216  0.3287
 9137TIP3    H148826   6.407   1.145   1.854 -1.7621  1.8138  0.7017
 9137TIP3    H248827   6.451   1.171   1.711 -0.4470 -0.6403  0.6170
 9138TIP3   OH248828   0.284   6.375  11.713 -0.6965 -0.2583  0.3555
 9138TIP3    H148829   0.295   6.465  11.682 -2.0192 -0.5382 -1.0832
 9138TIP3    H248830   0.330   6.372  11.797  4.0196  0.3535 -1.8868
 9139TIP3   OH248831   3.824   2.420   2.516  0.3725  0.1453 -0.2125
 9139TIP3    H148832   3.894   2.371   2.474  2.3523  0.8831  2.0248
 9139TIP3    H248833   3.852   2.430   2.607 -1.7096  2.1781  0.3130
 9140TIP3   OH248834   1.042   1.801  16.855  0.0325  0.1538 -0.3567
 9140TIP3    H148835   1.032   1.852  16.936 -0.4623  1.4670 -1.1921
 9140TIP3    H248836   0.958   1.756  16.845 -0.5688  1.3332 -0.9638
 9141TIP3   OH248837   3.857   2.686  11.242 -0.1770 -0.0788  0.0160
 9141TIP3    H148838   3.822   2.749  11.305 -0.8186 -1.2120  0.8315
 9141TIP3    H248839   3.781   2.660  11.189 -0.0489 -0.5870  0.0714
 9142TIP3   OH248840   2.204   1.671  14.974 -0.1686  0.0066  0.4506
 9142TIP3    H148841   2.252   1.747  15.006 -0.2948  1.1147 -1.7546
 9142TIP3    H248842   2.124   1.668  15.028  0.1020  1.1068  0.9342
 9143TIP3   OH248843   6.004   6.357   0.033  0.5691 -0.7046  0.3125
 9143TIP3    H148844   5.980   6.264   0.037 -0.5392 -0.4375  0.1686
 9143TIP3    H248845   6.079   6.359  -0.026  2.4034 -1.8379  2.4509
 9144TIP3   OH248846   4.706   5.889   1.552  0.4060 -0.2178  0.3758
 9144TIP3    H148847   4.678   5.815   1.499 -1.3704  0.5273  0.2057
 9144TIP3    H248848   4.635   5.903   1.614  1.3823  0.4208  1.3957
 9145TIP3   OH248849   3.489   5.334   5.942  0.3588  0.7792  0.6703
 9145TIP3    H148850   3.412   5.346   5.887 -0.0953  1.4120  1.4276
 9145TIP3    H248851   3.519   5.245   5.922  0.2455  1.0157 -0.6294
 9146TIP3   OH248852   2.272   5.755  11.276  0.5597  0.2666  0.5463
 9146TIP3    H148853   2.230   5.809  11.210 -0.2990  0.1576  0.9863
 9146TIP3    H248854   2.217   5.764  11.353  1.1745 -0.1396  1.0445
 9147TIP3   OH248855   0.027   6.376   1.958  0.2434  0.1859  0.0939
 9147TIP3    H148856   0.059   6.317   2.027  0.3116 -0.9664 -0.8819
 9147TIP3    H248857   0.067   6.461   1.979  3.6593 -1.0240 -0.7409
 9148TIP3   OH248858   2.704   0.124   5.992  0.2580 -0.3225  0.6531
 9148TIP3    H148859   2.612   0.103   5.980 -0.0865  1.2147  0.4554
 9148TIP3    H248860   2.712   0.146   6.085  0.2255  0.4535  0.4758
 9149TIP3   OH248861   5.063   5.685   5.877 -0.7140 -0.1041 -0.3076
 9149TIP3    H148862   5.137   5.727   5.922 -0.5341 -0.0479 -0.6446
 9149TIP3    H248863   5.058   5.598   5.915  0.8527 -0.8671 -1.6873
 9150TIP3   OH248864   0.591   4.113  13.188  0.3008  0.7203 -0.0329
 9150TIP3    H148865   0.685   4.094  13.188 -0.1293 -1.9448 -1.5780
 9150TIP3    H248866   0.558   4.072  13.268  0.3242  1.0811  0.1673
 9151TIP3   OH248867   1.083   6.263   3.517  0.4754 -0.0686 -0.0450
 9151TIP3    H148868   1.055   6.259   3.425 -2.0886  1.5996  0.5389
 9151TIP3    H248869   1.056   6.179   3.553 -0.4851  0.0712 -0.3855
 9152TIP3   OH248870   5.976   0.237   4.361  0.4048 -0.7863 -0.2063
 9152TIP3    H148871   5.915   0.303   4.393 -1.2488 -1.1535 -2.3645
 9152TIP3    H248872   5.982   0.253   4.267  2.7818 -1.5272 -0.2601
 9153TIP3   OH248873   4.538   5.456   0.637  0.2432  0.0089 -0.2398
 9153TIP3    H148874   4.633   5.444   0.634  0.2247 -0.3086  0.2139
 9153TIP3    H248875   4.524   5.510   0.715  0.0956  0.5574 -0.6431
 9154TIP3   OH248876   0.458   0.253  13.956 -0.0469  0.1262  0.2949
 9154TIP3    H148877   0.430   0.308  13.883 -0.1595 -0.3970 -0.0612
 9154TIP3    H248878   0.477   0.315  14.027 -2.0133  0.5154  0.5396
 9155TIP3   OH248879   0.436   4.350   3.674 -0.6864  0.2975  0.2295
 9155TIP3    H148880   0.383   4.361   3.595 -0.0723  0.2042 -0.2049
 9155TIP3    H248881   0.399   4.412   3.736  1.2250  3.2721 -1.3711
 9156TIP3   OH248882   0.160   3.188   4.976 -0.6887 -0.0071 -0.4699
 9156TIP3    H148883   0.186   3.184   4.884  1.2913  2.2442 -0.1054
 9156TIP3    H248884   0.131   3.099   4.997  1.5907 -1.3342 -2.4742
 9157TIP3   OH248885   6.606   6.169  14.181 -0.1102  0.3956  0.0002
 9157TIP3    H148886   6.516   6.180  14.150  0.7193  1.4173 -2.2390
 9157TIP3    H248887   6.649   6.116  14.113  1.5468  1.8704 -0.1729
 9158TIP3   OH248888   4.856   5.412  11.111  0.1870  0.3922 -0.3489
 9158TIP3    H148889   4.937   5.374  11.147 -0.2999 -0.1411  0.2106
 9158TIP3    H248890   4.862   5.396  11.017  0.6242  0.1368 -0.2815
 9159TIP3   OH248891   2.007   1.261   1.812  0.0888  0.0458 -0.4484
 9159TIP3    H148892   1.981   1.337   1.760  0.7986 -1.0391 -2.4623
 9159TIP3    H248893   2.090   1.233   1.775 -0.4807 -2.1270 -0.2341
 9160TIP3   OH248894   6.313   2.141  14.542 -0.7794 -0.6449 -0.1656
 9160TIP3    H148895   6.287   2.073  14.479 -3.5068 -2.1782  2.3608
 9160TIP3    H248896   6.237   2.200  14.545 -1.0114 -0.9952  2.0923
 9161TIP3   OH248897   4.769   4.334  12.549  0.7265  0.1348  0.0173
 9161TIP3    H148898   4.811   4.389  12.483 -1.6272  1.0334 -0.8156
 9161TIP3    H248899   4.801   4.368  12.633  1.4324  0.9510 -0.5677
 9162TIP3   OH248900   2.441   5.454   4.757  0.6504 -0.0490 -0.1997
 9162TIP3    H148901   2.424   5.462   4.851  0.9992  0.4342 -0.1810
 9162TIP3    H248902   2.427   5.541   4.722  0.5579 -0.2204 -0.5965
 9163TIP3   OH248903   3.693   2.652  14.714 -0.2435 -0.3868 -0.3515
 9163TIP3    H148904   3.672   2.598  14.790 -1.7005 -0.7050 -0.9385
 9163TIP3    H248905   3.643   2.613  14.642 -0.3072  0.9723 -1.0814
 9164TIP3   OH248906   6.553   1.535   5.727 -0.3256  0.1248 -0.0576
 9164TIP3    H148907   6.563   1.605   5.792  0.5361  0.4239 -0.4994
 9164TIP3    H248908   6.484   1.480   5.762 -0.4753  0.7656  0.6882
 9165TIP3   OH248909   4.023   3.868   3.747  0.0534  0.1993  0.4162
 9165TIP3    H148910   4.031   3.838   3.838  1.8653 -2.0259 -0.3797
 9165TIP3    H248911   4.074   3.949   3.743  1.0789 -0.3978  1.1020
 9166TIP3   OH248912   5.114   3.760   3.248 -0.2597 -0.3623 -0.4329
 9166TIP3    H148913   5.032   3.810   3.242 -0.2668  0.0911  2.1773
 9166TIP3    H248914   5.086   3.670   3.265 -0.2060 -0.8111 -2.5111
 9167TIP3   OH248915   3.053   0.034  10.901 -0.1954 -0.5803 -0.1391
 9167TIP3    H148916   3.127  -0.017  10.869  1.7362  1.7085  0.4281
 9167TIP3    H248917   3.003   0.057  10.823  1.7130  0.8040 -1.0219
 9168TIP3   OH248918   2.450   1.177  16.372  0.4995  0.0172  0.3022
 9168TIP3    H148919   2.410   1.264  16.378 -0.7094 -0.4204 -0.8401
 9168TIP3    H248920   2.379   1.116  16.393  1.0921 -0.7262  0.1921
 9169TIP3   OH248921   0.501   1.078   1.897 -0.3174 -0.0102 -0.3027
 9169TIP3    H148922   0.572   1.035   1.945 -0.6292 -0.8159 -0.5387
 9169TIP3    H248923   0.490   1.162   1.940 -0.6713 -0.7572  1.1384
 9170TIP3   OH248924   4.742   4.520   5.585  0.1000 -0.3610 -1.1595
 9170TIP3    H148925   4.696   4.496   5.504 -0.5819  0.4860 -1.0454
 9170TIP3    H248926   4.774   4.609   5.569 -0.0723 -0.1732 -0.4923
 9171TIP3   OH248927   3.601   0.453   2.739 -0.0399 -0.0241 -0.2006
 9171TIP3    H148928   3.578   0.386   2.803 -2.3242  0.6503 -0.2465
 9171TIP3    H248929   3.562   0.533   2.772  1.9091  1.1537 -0.5996
 9172TIP3   OH248930   4.256   6.654  12.165 -0.6637 -0.2883 -0.3187
 9172TIP3    H148931   4.261   6.559  12.173 -0.2537 -0.3073 -0.7664
 9172TIP3    H248932   4.201   6.669  12.088 -0.2617 -0.1716 -0.5850
 9173TIP3   OH248933   2.338   5.857  15.513  0.0479 -0.1109  0.2022
 9173TIP3    H148934   2.352   5.951  15.509 -2.0887  0.2407 -0.1289
 9173TIP3    H248935   2.337   5.837  15.607 -2.5043  0.7624  0.4194
 9174TIP3   OH248936   1.311   2.072   5.032  0.8206 -0.3105  0.1319
 9174TIP3    H148937   1.350   2.098   5.115  1.5935 -1.9960  0.3294
 9174TIP3    H248938   1.351   1.988   5.011 -2.0538 -1.7434 -0.1063
 9175TIP3   OH248939   6.719   4.315   2.725  0.4445 -0.1569  0.6899
 9175TIP3    H148940   6.699   4.311   2.632  1.0033 -2.0489  0.5930
 9175TIP3    H248941   6.718   4.223   2.753  0.7385  0.3372  2.4548
 9176TIP3   OH248942   4.514   2.834  17.110 -0.1159 -0.9217 -0.1266
 9176TIP3    H148943   4.517   2.738  17.101 -2.1045 -1.0372 -0.0189
 9176TIP3    H248944   4.485   2.865  17.024  1.4656 -0.3102 -0.4653
 9177TIP3   OH248945   2.266   4.246   4.144 -0.2911 -0.0064  0.2423
 9177TIP3    H148946   2.279   4.155   4.119 -2.4732 -1.1564  2.8073
 9177TIP3    H248947   2.177   4.266   4.115  0.3385  1.5153 -0.7330
 9178TIP3   OH248948   2.376   4.629   2.974 -0.5820 -0.2681 -0.7976
 9178TIP3    H148949   2.282   4.633   2.993 -0.8199 -1.0679 -1.6600
 9178TIP3    H248950   2.416   4.599   3.055 -1.1319 -0.3271 -0.5442
 9179TIP3   OH248951   0.370   0.272   4.704  0.1292 -0.0641  0.4998
 9179TIP3    H148952   0.446   0.215   4.719 -1.0265 -1.8360 -0.0702
 9179TIP3    H248953   0.374   0.336   4.774  3.1699  1.0773 -0.5378
 9180TIP3   OH248954   3.966   3.260  13.824 -0.3256  0.0692 -0.0081
 9180TIP3    H148955   3.990   3.257  13.916 -1.3500 -2.1186  0.2587
 9180TIP3    H248956   4.009   3.184  13.785 -0.8097  0.3346 -1.1166
 9181TIP3   OH248957   3.559   6.315  11.259  0.1195 -0.3608  0.3455
 9181TIP3    H148958   3.617   6.249  11.295  0.1406 -0.5410 -0.0224
 9181TIP3    H248959   3.602   6.398  11.278  0.6039 -0.5040 -0.1160
 9182TIP3   OH248960   2.761   0.250   1.348 -0.5603  0.5561  0.5811
 9182TIP3    H148961   2.766   0.243   1.253 -0.1924  1.0026  0.5598
 9182TIP3    H248962   2.838   0.202   1.379 -0.6977  0.3835  0.6540
 9183TIP3   OH248963   0.691   2.251  12.964  0.2193 -0.2985 -0.2104
 9183TIP3    H148964   0.776   2.246  13.007  0.3095  0.4333 -0.2853
 9183TIP3    H248965   0.705   2.211  12.878  1.6152  3.2910 -1.8676
 9184TIP3   OH248966   5.109   2.324   0.798  0.2589  0.1583  0.0975
 9184TIP3    H148967   5.191   2.311   0.846  1.5393 -0.4720 -2.0937
 9184TIP3    H248968   5.136   2.327   0.706 -2.2517 -0.4465 -0.7300
 9185TIP3   OH248969   1.926   5.607  14.489  0.3209 -0.4531  0.1185
 9185TIP3    H148970   2.000   5.664  14.512 -0.3570  0.3205  0.4278
 9185TIP3    H248971   1.940   5.528  14.542 -0.3350  0.6469  2.0559
 9186TIP3   OH248972   5.536   0.883  12.708  0.0255 -0.6033  0.2491
 9186TIP3    H148973   5.567   0.847  12.791  2.1822  1.4413  0.4447
 9186TIP3    H248974   5.562   0.819  12.642 -0.9528 -1.8409  1.0402
 9187TIP3   OH248975   0.780   4.331   0.150  0.2560 -0.3348  0.0127
 9187TIP3    H148976   0.701   4.363   0.106  1.9132 -0.5005 -3.4243
 9187TIP3    H248977   0.774   4.236   0.145  0.0911 -0.3841  0.9601
 9188TIP3   OH248978   1.611   2.840   3.209 -0.0575 -0.0301  0.8097
 9188TIP3    H148979   1.549   2.913   3.214 -1.3453 -0.8763 -1.5745
 9188TIP3    H248980   1.666   2.860   3.133 -0.1000 -1.2814  0.4245
 9189TIP3   OH248981   5.754   5.206   2.555  0.2131 -0.2029 -0.0601
 9189TIP3    H148982   5.727   5.289   2.515 -0.1548 -0.6194 -0.6855
 9189TIP3    H248983   5.688   5.143   2.528  2.3451 -1.5297 -2.6169
 9190TIP3   OH248984   2.545   5.609   2.115 -0.5263  0.2855  0.3342
 9190TIP3    H148985   2.514   5.698   2.130 -2.7148 -0.4829  0.8498
 9190TIP3    H248986   2.554   5.571   2.202 -0.4655 -0.2514  0.1024
 9191TIP3   OH248987   0.929   3.296   3.068  0.2907 -0.1878 -0.6573
 9191TIP3    H148988   0.947   3.318   3.159  1.1447  0.5359 -0.9851
 9191TIP3    H248989   0.908   3.203   3.070  1.3142 -0.4269  0.1625
 9192TIP3   OH248990   5.837   2.473  14.017  0.3485  0.4328  0.1054
 9192TIP3    H148991   5.864   2.416  13.944  2.2177  0.8688  0.3849
 9192TIP3    H248992   5.868   2.427  14.095 -1.7903 -0.1092  0.6762
 9193TIP3   OH248993   3.315   5.290   3.003  0.3581  0.1418  0.0432
 9193TIP3    H148994   3.343   5.239   2.927  0.3678 -0.9638  0.7750
 9193TIP3    H248995   3.241   5.241   3.039  0.8504  0.2277  1.2050
 9194TIP3   OH248996   2.342   2.284   5.663  0.1198  0.1227  0.5228
 9194TIP3    H148997   2.387   2.266   5.580 -0.6512 -0.3049  0.1840
 9194TIP3    H248998   2.360   2.376   5.681 -0.1288  0.3649 -0.3937
 9195TIP3   OH248999   2.103   0.756  16.572 -0.2426 -0.5192  0.1054
 9195TIP3    H149000   2.036   0.704  16.529 -0.3190 -1.0780  0.8798
 9195TIP3    H249001   2.056   0.832  16.607 -0.5172 -1.0218  0.8384
 9196TIP3   OH249002   6.601   6.398   2.695  0.0568 -0.1918 -0.6721
 9196TIP3    H149003   6.532   6.336   2.720 -0.3350  0.0948 -1.0462
 9196TIP3    H249004   6.647   6.355   2.623  0.4252 -0.4855 -0.2714
 9197TIP3   OH249005   4.761   0.675   1.618 -0.3550 -0.2816 -0.1205
 9197TIP3    H149006   4.753   0.612   1.689 -0.6969  1.5196  1.5466
 9197TIP3    H249007   4.804   0.751   1.658 -1.4435  1.1832 -1.5519
 9198TIP3   OH249008   2.590   4.495   4.790  0.1538  0.9115  0.1814
 9198TIP3    H149009   2.516   4.435   4.795 -1.2880  2.6597  0.8984
 9198TIP3    H249010   2.655   4.458   4.849 -0.3661 -0.3417  0.0064
 9199TIP3   OH249011   4.569   5.190  17.108  0.0378  0.1633 -0.0340
 9199TIP3    H149012   4.548   5.208  17.200 -1.6528 -0.2811 -0.2907
 9199TIP3    H249013   4.484   5.170  17.068  0.8095 -0.1577 -1.5828
 9200TIP3   OH249014   1.695   5.720   3.786  0.2161  0.0910 -0.1054
 9200TIP3    H149015   1.622   5.688   3.733  1.2214  2.4632 -3.2518
 9200TIP3    H249016   1.655   5.785   3.844 -0.4408  0.0191 -0.4614
 9201TIP3   OH249017   5.847   6.041  16.566  0.0174 -0.0453 -0.3536
 9201TIP3    H149018   5.836   6.136  16.570  0.0435 -0.0706  0.6686
 9201TIP3    H249019   5.856   6.014  16.657 -1.7763 -1.2516 -0.4742
 9202TIP3   OH249020   0.054   6.181  15.583 -0.5528  0.2702 -0.4928
 9202TIP3    H149021   0.026   6.194  15.673 -0.2746  2.3618 -0.6565
 9202TIP3    H249022   0.127   6.120  15.588 -0.0092  1.0043  0.7908
 9203TIP3   OH249023   5.464   6.707  11.590 -0.8741 -0.1537  0.0409
 9203TIP3    H149024   5.466   6.707  11.685 -0.1314 -0.8927  0.0439
 9203TIP3    H249025   5.396   6.643  11.567 -0.4636 -0.6142  0.0870
 9204TIP3   OH249026   6.308   1.337  15.582 -0.4402 -0.6389  0.2469
 9204TIP3    H149027   6.217   1.363  15.593 -0.1246 -0.0682  1.7130
 9204TIP3    H249028   6.333   1.299  15.666 -0.0400 -3.1626 -0.8912
 9205TIP3   OH249029   2.465   0.725  16.917  0.2232  0.9496  0.1834
 9205TIP3    H149030   2.428   0.685  16.839  0.9361 -1.3090  0.9203
 9205TIP3    H249031   2.421   0.682  16.990  0.5842  1.9805  1.0449
 9206TIP3   OH249032   4.983   4.958   2.617  0.1548  0.2257  0.2296
 9206TIP3    H149033   4.988   4.924   2.707  2.4943  0.7020  0.3345
 9206TIP3    H249034   5.051   4.912   2.570 -1.6796 -0.7281 -1.6262
 9207TIP3   OH249035   5.115   5.727  14.494  0.2074  0.0470 -0.4391
 9207TIP3    H149036   5.180   5.793  14.517 -0.1320  0.0268  0.6712
 9207TIP3    H249037   5.037   5.778  14.472  0.1446  0.0352 -0.2454
 9208TIP3   OH249038   0.960   1.097  15.066 -0.3851  0.4769 -0.6042
 9208TIP3    H149039   1.037   1.108  15.010 -0.4488  2.7434 -0.3383
 9208TIP3    H249040   0.994   1.060  15.147  0.3194  0.8357 -0.7253
 9209TIP3   OH249041   5.685   4.799  15.219 -0.5817 -0.0550  0.5281
 9209TIP3    H149042   5.743   4.874  15.211 -0.0057 -0.5916 -0.4785
 9209TIP3    H249043   5.735   4.734  15.269 -0.1143 -0.6927 -0.7366
 9210TIP3   OH249044   4.242   6.567   0.574  0.0756 -0.1018  0.0721
 9210TIP3    H149045   4.176   6.601   0.514 -0.9371  0.6621  1.5524
 9210TIP3    H249046   4.214   6.477   0.592 -0.6458  0.2514  0.7718
 9211TIP3   OH249047   6.214   2.807   3.443  0.0599 -0.0642  0.0092
 9211TIP3    H149048   6.240   2.851   3.524  0.6996 -0.0791 -0.1831
 9211TIP3    H249049   6.121   2.788   3.455  0.2662 -0.5133  0.9392
 9212TIP3   OH249050   3.627   3.080   2.439 -0.1879 -0.5514 -0.2421
 9212TIP3    H149051   3.640   3.122   2.524 -1.0880 -1.9442  0.6125
 9212TIP3    H249052   3.540   3.108   2.411  0.5307  0.7950 -1.2725
 9213TIP3   OH249053   6.597   2.810   5.826 -0.0635 -0.1915 -0.0637
 9213TIP3    H149054   6.515   2.795   5.874  1.0159 -0.9684  1.6338
 9213TIP3    H249055   6.591   2.901   5.796 -1.5611 -0.2519 -0.0185
 9214TIP3   OH249056   6.113   3.322   3.461 -0.1727  0.1060 -0.3935
 9214TIP3    H149057   6.138   3.257   3.395 -0.4185 -0.5221  0.1162
 9214TIP3    H249058   6.196   3.360   3.490 -0.1327  1.3108 -1.9491
 9215TIP3   OH249059   1.882   1.022   5.327 -0.2454  0.6841  0.4549
 9215TIP3    H149060   1.862   0.941   5.375  0.0029  0.8259  0.8021
 9215TIP3    H249061   1.904   0.992   5.239  1.1042  0.2438  0.9104
 9216TIP3   OH249062   5.156   0.192  12.538  0.0192 -0.0772 -0.0212
 9216TIP3    H149063   5.071   0.150  12.549  1.3362 -3.1425 -0.4207
 9216TIP3    H249064   5.190   0.156  12.455  1.4961  1.4583 -0.1391
 9217TIP3   OH249065   2.266   1.937  12.960 -0.5363 -0.1884 -0.7696
 9217TIP3    H149066   2.217   2.018  12.974 -0.3751 -0.3256  0.7839
 9217TIP3    H249067   2.344   1.965  12.913 -1.0615  0.3678 -1.3247
 9218TIP3   OH249068   1.567   4.728   2.119 -0.1672  0.4113 -0.0037
 9218TIP3    H149069   1.643   4.749   2.066  0.5071 -1.2832  0.2503
 9218TIP3    H249070   1.508   4.680   2.060  0.2673 -0.8402  0.5465
 9219TIP3   OH249071   6.746   2.416   5.147 -0.3875  0.2302  0.4637
 9219TIP3    H149072   6.678   2.458   5.096 -0.9161 -0.7924  0.2904
 9219TIP3    H249073   6.775   2.343   5.092  1.2667  0.9735  0.2818
 9220TIP3   OH249074   3.251   0.952   2.797  0.0456 -0.3296 -0.3878
 9220TIP3    H149075   3.326   0.894   2.801  0.5621  0.3733  0.6493
 9220TIP3    H249076   3.185   0.903   2.749  0.9582 -1.1933 -0.7853
 9221TIP3   OH249077   5.538   2.241   3.941  0.1144 -0.6214 -0.7638
 9221TIP3    H149078   5.604   2.230   4.009 -0.0587  2.0952 -0.0323
 9221TIP3    H249079   5.471   2.297   3.981 -1.0590 -0.7061 -2.4998
 9222TIP3   OH249080   4.149   6.248   5.219 -0.2909 -0.1705  0.4963
 9222TIP3    H149081   4.232   6.201   5.219  0.7137  1.5216  0.4174
 9222TIP3    H249082   4.123   6.250   5.311  0.3990  0.3210  0.6944
 9223TIP3   OH249083   0.478   1.263  16.692  0.1318  0.1015 -0.5242
 9223TIP3    H149084   0.531   1.183  16.702 -0.7551 -0.3668  0.6620
 9223TIP3    H249085   0.401   1.235  16.643  0.1617  0.3882 -0.7349
 9224TIP3   OH249086   6.069   1.147  14.790  0.9598  0.2807  0.3149
 9224TIP3    H149087   6.063   1.203  14.712 -1.8787 -0.5365 -0.1573
 9224TIP3    H249088   6.050   1.059  14.758 -0.5406 -0.0398  1.9300
 9225TIP3   OH249089   5.385   3.074   3.674 -0.2786  0.3857 -0.0620
 9225TIP3    H149090   5.452   3.139   3.693 -2.4607  3.0837 -0.8654
 9225TIP3    H249091   5.307   3.106   3.718 -0.7846 -3.6241  2.4719
 9226TIP3   OH249092   1.678   1.868   0.246  0.3765  0.4061  0.3806
 9226TIP3    H149093   1.608   1.803   0.241  0.6075  0.2660 -1.8497
 9226TIP3    H249094   1.656   1.921   0.323 -2.1817  0.3750 -0.2520
 9227TIP3   OH249095   1.301   1.700   6.001 -0.5090  0.0506 -0.4370
 9227TIP3    H149096   1.307   1.673   6.092 -2.7072 -1.2621 -0.6256
 9227TIP3    H249097   1.331   1.791   6.001  3.8395 -1.1485  0.7990
 9228TIP3   OH249098   1.737   1.635   2.033 -0.2761  0.0639 -0.2253
 9228TIP3    H149099   1.754   1.548   2.071  0.7694  0.2388 -0.2534
 9228TIP3    H249100   1.777   1.630   1.946  0.5832  0.8577  0.1118
 9229TIP3   OH249101   6.017   2.176  15.626 -0.1383 -0.3698 -0.1047
 9229TIP3    H149102   6.003   2.198  15.718 -1.0643  0.9743 -0.5277
 9229TIP3    H249103   6.082   2.239  15.595 -1.6999  0.9060 -0.9617
 9230TIP3   OH249104   5.317   3.381  11.317 -0.3053 -0.2667 -0.4944
 9230TIP3    H149105   5.331   3.354  11.226  0.0332 -0.4690 -0.3859
 9230TIP3    H249106   5.392   3.439  11.336 -0.6918  0.2502 -0.5297
 9231TIP3   OH249107   1.259   0.702   5.607 -0.2191  0.0615 -0.0819
 9231TIP3    H149108   1.287   0.663   5.525 -0.4734 -0.0463 -0.1161
 9231TIP3    H249109   1.175   0.743   5.587  0.1400  0.7998 -0.0974
 9232TIP3   OH249110   2.760   2.300  11.958 -0.5343  0.5908  0.0892
 9232TIP3    H149111   2.765   2.253  12.041  0.6425 -0.4612 -0.5394
 9232TIP3    H249112   2.790   2.389  11.979 -0.9585  0.5507  0.9166
 9233TIP3   OH249113   6.353   0.728   0.351 -0.5769 -0.4870 -0.2275
 9233TIP3    H149114   6.387   0.647   0.312  0.2503 -0.3951  0.2660
 9233TIP3    H249115   6.258   0.717   0.349 -0.4757 -2.0132  0.9186
 9234TIP3   OH249116   0.040   0.868  14.362  0.2200 -0.5396 -0.5567
 9234TIP3    H149117  -0.031   0.807  14.381  0.5188 -0.6580  0.2241
 9234TIP3    H249118   0.097   0.863  14.438  1.4367 -0.9597 -1.4556
 9235TIP3   OH249119   5.026   6.644   2.124  0.4341 -0.3041 -0.0183
 9235TIP3    H149120   5.062   6.669   2.039  0.1316  0.5416  0.0939
 9235TIP3    H249121   4.979   6.562   2.107  1.5770 -0.9110 -0.3588
 9236TIP3   OH249122   1.544   3.938   2.083 -0.1057  0.8601  0.7942
 9236TIP3    H149123   1.550   3.864   2.144  1.5935  0.9230  0.7712
 9236TIP3    H249124   1.635   3.967   2.072 -0.3862  1.0553 -1.5356
 9237TIP3   OH249125   1.257   4.150  15.706  0.3412  0.2663  0.4422
 9237TIP3    H149126   1.307   4.113  15.634 -0.1764  0.0036  0.2084
 9237TIP3    H249127   1.174   4.102  15.705 -0.0841  0.9705  0.5492
 9238TIP3   OH249128   3.437   5.737  17.006  0.7293  0.0004 -0.3369
 9238TIP3    H149129   3.367   5.683  16.967 -0.5244  1.7655 -0.6375
 9238TIP3    H249130   3.400   5.767  17.089  0.2134  2.6751 -1.4508
 9239TIP3   OH249131   6.660   3.104   1.088 -0.8098  0.3209 -0.1867
 9239TIP3    H149132   6.719   3.050   1.035 -1.4649 -1.3717  0.7415
 9239TIP3    H249133   6.710   3.184   1.104  0.5426 -0.3417 -0.8800
 9240TIP3   OH249134   0.953   5.053   6.997 -0.3210  0.2147 -0.1156
 9240TIP3    H149135   1.004   5.001   6.935 -0.6580 -0.6346  0.3072
 9240TIP3    H249136   0.929   5.131   6.948 -0.7303 -0.5241 -1.1260
 9241TIP3   OH249137   3.897   6.042  16.307 -0.0320 -0.1649  0.2855
 9241TIP3    H149138   3.882   6.089  16.226 -1.3452 -0.0560  0.5756
 9241TIP3    H249139   3.843   6.087  16.372  0.2580 -0.8284  1.0127
 9242TIP3   OH249140   4.598   2.058  11.084  0.3596  0.2302  0.1693
 9242TIP3    H149141   4.516   2.044  11.132 -0.3493 -0.2350 -1.1412
 9242TIP3    H249142   4.620   1.972  11.048  1.8604  0.1727  1.1236
 9243TIP3   OH249143   1.889   3.386  14.123 -0.0483 -0.2507  0.0963
 9243TIP3    H149144   1.846   3.467  14.150  1.1831  0.0897  1.1281
 9243TIP3    H249145   1.840   3.357  14.046 -0.4487  1.5297 -0.3549
 9244TIP3   OH249146   3.576   5.798  11.872  0.2022  0.2469  0.2481
 9244TIP3    H149147   3.511   5.782  11.803  2.7437  1.5159 -2.6790
 9244TIP3    H249148   3.622   5.715  11.882 -1.0493 -0.3478  1.5755
 9245TIP3   OH249149   3.816   0.431  14.617  0.0612 -0.0201 -0.6958
 9245TIP3    H149150   3.728   0.431  14.578 -0.7258 -1.0396  0.9771
 9245TIP3    H249151   3.811   0.499  14.685 -0.3319 -1.8368  1.1894
 9246TIP3   OH249152   3.287   2.654  11.763 -0.2390  0.8326  0.1870
 9246TIP3    H149153   3.285   2.565  11.796  0.3286  0.8881  0.3737
 9246TIP3    H249154   3.354   2.698  11.815  0.1953  1.0986 -0.5724
 9247TIP3   OH249155   0.866   6.062   2.055 -0.4658 -0.2460  0.4181
 9247TIP3    H149156   0.801   6.121   2.094 -0.9837 -1.4420  1.4369
 9247TIP3    H249157   0.910   6.115   1.989 -1.4230  1.0529  0.7830
 9248TIP3   OH249158   5.699   1.925   6.168 -0.2299 -0.2398  0.0695
 9248TIP3    H149159   5.628   1.863   6.154 -1.0608  0.5875  0.5023
 9248TIP3    H249160   5.710   1.928   6.263 -0.5923  0.6805  0.0965
 9249TIP3   OH249161   3.027   0.791  12.793  0.4894 -0.3249 -0.2726
 9249TIP3    H149162   3.108   0.824  12.830  0.0298  1.2603 -0.5832
 9249TIP3    H249163   3.020   0.701  12.824  0.1351  0.8317  3.5026
 9250TIP3   OH249164   4.050   5.097  11.104  0.4153  0.1574 -0.2250
 9250TIP3    H149165   4.003   5.018  11.079 -0.6834  0.9949 -0.9062
 9250TIP3    H249166   4.091   5.075  11.188 -2.3964 -0.2118  1.1893
 9251TIP3   OH249167   4.699   5.481   0.396 -0.0661  0.2015  0.0496
 9251TIP3    H149168   4.783   5.451   0.432  0.0578 -0.0308 -0.4324
 9251TIP3    H249169   4.699   5.450   0.306 -0.1158  1.3065 -0.3359
 9252TIP3   OH249170   4.962   0.760   3.218  0.2938 -0.2316 -0.0514
 9252TIP3    H149171   4.874   0.790   3.243 -0.0170 -1.9674  1.0944
 9252TIP3    H249172   4.953   0.666   3.208  1.3358 -0.1204 -3.1181
 9253TIP3   OH249173   3.846   2.249   3.048  0.2437 -0.0397  0.1578
 9253TIP3    H149174   3.807   2.311   3.109  0.1350  1.4293 -1.3503
 9253TIP3    H249175   3.889   2.184   3.104 -0.9968  0.4931  1.7888
 9254TIP3   OH249176   4.332   3.995   1.450  0.0003 -0.0163  0.3591
 9254TIP3    H149177   4.280   3.951   1.517 -1.7246  0.7765 -0.4045
 9254TIP3    H249178   4.407   3.937   1.436 -1.0388 -1.5715  0.9807
 9255TIP3   OH249179   1.213   5.386   0.124  0.1512  0.4775  0.4081
 9255TIP3    H149180   1.199   5.425   0.038  1.8497  0.4004  0.0553
 9255TIP3    H249181   1.224   5.460   0.183  0.4230  0.5372  0.2837
 9256TIP3   OH249182   3.530   4.832   1.743 -0.4944  0.1728  0.4434
 9256TIP3    H149183   3.571   4.759   1.789  1.0537  1.1453  0.6930
 9256TIP3    H249184   3.533   4.807   1.650  2.2075  0.8534  0.2655
 9257TIP3   OH249185   3.943   5.668  14.867 -0.1224  0.5345  0.1363
 9257TIP3    H149186   3.990   5.596  14.825 -0.3811  0.1858  0.4469
 9257TIP3    H249187   4.012   5.731  14.889  0.2084  0.0094  0.6188
 9258TIP3   OH249188   4.554   0.435  16.641  0.1804  0.1471 -0.5939
 9258TIP3    H149189   4.506   0.517  16.648  1.5957  0.9328  0.2627
 9258TIP3    H249190   4.645   0.461  16.627  0.9214 -1.2053  1.2785
 9259TIP3   OH249191   5.524   4.396   0.960 -0.4146  0.0987 -0.6222
 9259TIP3    H149192   5.576   4.412   1.039  0.7789  1.1625 -1.5599
 9259TIP3    H249193   5.499   4.304   0.965  1.5898 -0.4629 -0.1014
 9260TIP3   OH249194   5.743   5.816  11.694  0.5536 -0.0018 -0.2481
 9260TIP3    H149195   5.743   5.720  11.695  2.2315 -0.0420  1.2137
 9260TIP3    H249196   5.686   5.840  11.768  1.0201  0.0890  0.0881
 9261TIP3   OH249197   3.939   1.681   1.528 -0.0195  0.1771  0.0917
 9261TIP3    H149198   3.919   1.768   1.563  0.4720  0.0737  0.6452
 9261TIP3    H249199   4.027   1.662   1.559 -0.0346 -0.4256 -0.2161
 9262TIP3   OH249200   4.289   4.235  11.942  0.0834  0.2582  0.7393
 9262TIP3    H149201   4.349   4.304  11.915 -0.7955  0.7238 -0.1046
 9262TIP3    H249202   4.219   4.280  11.989 -1.2222  0.1598 -1.0268
 9263TIP3   OH249203   5.240   0.186  11.375 -0.2698 -0.1599 -0.1919
 9263TIP3    H149204   5.193   0.208  11.295  1.9010 -0.4845 -1.6488
 9263TIP3    H249205   5.229   0.092  11.385  2.2537 -0.7836 -2.1689
 9264TIP3   OH249206   4.573   2.681   1.909  0.7194  0.1934 -0.9636
 9264TIP3    H149207   4.573   2.615   1.979 -0.7322  1.6688  0.5168
 9264TIP3    H249208   4.490   2.726   1.919  1.5790  2.1240 -2.0510
 9265TIP3   OH249209   0.994   1.812  14.088 -0.5918  0.2610  0.1713
 9265TIP3    H149210   1.045   1.803  14.008  0.5951  0.6700  0.8674
 9265TIP3    H249211   1.015   1.734  14.140 -0.7745  0.3617  0.4012
 9266TIP3   OH249212   2.628   0.362   4.106  0.3252  1.0192 -0.0894
 9266TIP3    H149213   2.592   0.412   4.178 -3.5522 -0.2285 -0.9503
 9266TIP3    H249214   2.659   0.428   4.044 -0.0826  2.1893  0.9097
 9267TIP3   OH249215   1.821   2.988   2.618  0.2647  0.1659 -0.0120
 9267TIP3    H149216   1.784   2.913   2.665  1.1910  0.4359  1.2063
 9267TIP3    H249217   1.783   2.983   2.530 -1.4153 -0.4454  0.7111
 9268TIP3   OH249218   4.268   0.855   6.731 -0.3919 -0.2004  0.5239
 9268TIP3    H149219   4.259   0.771   6.775 -0.1886 -0.6215 -0.2378
 9268TIP3    H249220   4.292   0.916   6.801  1.9426 -1.2443  0.7103
 9269TIP3   OH249221   5.527   3.751  16.904  0.4516 -0.6004  0.2549
 9269TIP3    H149222   5.450   3.713  16.944 -0.5394 -1.0877 -1.9512
 9269TIP3    H249223   5.517   3.845  16.916  0.2766 -0.7439  1.2642
 9270TIP3   OH249224   5.447   3.529   5.044  0.1740 -0.4184 -0.2871
 9270TIP3    H149225   5.379   3.488   5.097 -2.1916  0.7428 -2.2430
 9270TIP3    H249226   5.436   3.623   5.060 -1.0219  0.0186 -3.1633
 9271TIP3   OH249227   1.465   4.676   2.525  0.2931 -0.7727 -0.4181
 9271TIP3    H149228   1.471   4.706   2.616 -1.1877 -0.6466 -0.3467
 9271TIP3    H249229   1.538   4.720   2.481 -0.6490  1.4256  0.0950
 9272TIP3   OH249230   1.362   4.869  16.425 -0.1349  0.4302 -0.2714
 9272TIP3    H149231   1.310   4.792  16.401  1.2872 -0.5830 -0.2308
 9272TIP3    H249232   1.331   4.891  16.513 -0.7587  0.0987 -0.3943
 9273TIP3   OH249233   0.075   5.978  15.002  0.5632  0.7773 -0.6232
 9273TIP3    H149234   0.126   5.913  15.050 -0.0957 -0.8813 -2.0681
 9273TIP3    H249235   0.084   5.954  14.910 -0.9957  1.7695 -1.0903
 9274TIP3   OH249236   4.493   0.315   6.480  0.1157  0.4627  0.4703
 9274TIP3    H149237   4.481   0.404   6.513 -0.0454  0.7270 -0.2889
 9274TIP3    H249238   4.491   0.260   6.559  0.2229  1.1275  0.9433
 9275TIP3   OH249239   2.351   3.081  17.016  0.0254  0.2955  0.7955
 9275TIP3    H149240   2.303   3.156  16.981 -0.5603 -0.4143  0.0474
 9275TIP3    H249241   2.389   3.038  16.939 -1.2143 -1.2401  0.9758
 9276TIP3   OH249242   0.562   4.177   0.338  0.3074 -0.8368 -0.2064
 9276TIP3    H149243   0.656   4.162   0.339  0.4877  0.0457 -1.2340
 9276TIP3    H249244   0.523   4.093   0.362  1.3685 -0.6446  2.4478
 9277TIP3   OH249245   0.534   2.277  14.574  0.5182  0.3550  0.1896
 9277TIP3    H149246   0.449   2.274  14.620  0.6614 -0.9055  0.3836
 9277TIP3    H249247   0.547   2.189  14.541  1.4157  0.7315 -0.5017
 9278TIP3   OH249248   1.208   4.535   3.053  0.6074  0.1386 -0.2500
 9278TIP3    H149249   1.296   4.503   3.070  0.3856 -0.7078 -0.6292
 9278TIP3    H249250   1.218   4.630   3.043  1.2999  0.1838  0.7851
 9279TIP3   OH249251   0.139   1.794   5.601 -0.7512 -0.4842 -0.7740
 9279TIP3    H149252   0.067   1.832   5.651 -1.2439 -1.0269 -1.0755
 9279TIP3    H249253   0.196   1.754   5.667 -0.9749 -0.4823 -0.5804
 9280TIP3   OH249254   3.117   1.198  15.638 -0.2585 -0.4487  0.0507
 9280TIP3    H149255   3.049   1.252  15.598  0.4595  1.0527  0.7939
 9280TIP3    H249256   3.188   1.197  15.573  0.5301  1.2190  0.8131
 9281TIP3   OH249257   2.182   2.326  17.282  0.2736  0.1905  0.3440
 9281TIP3    H149258   2.089   2.307  17.293  0.0495  1.9370  1.9005
 9281TIP3    H249259   2.210   2.267  17.212 -1.8757 -0.7163  0.1662
 9282TIP3   OH249260   0.652   2.166  12.698 -0.1209 -0.1560 -0.0760
 9282TIP3    H149261   0.669   2.124  12.614 -0.0661  0.0395 -0.1630
 9282TIP3    H249262   0.600   2.244  12.676  0.6521  0.3866 -0.0241
 9283TIP3   OH249263   2.420   2.577  12.320  0.2725  0.2820  0.0999
 9283TIP3    H149264   2.355   2.517  12.282 -2.2453  2.6894  0.2568
 9283TIP3    H249265   2.453   2.626  12.245  1.3350 -0.3684  0.1290
 9284TIP3   OH249266   0.717   5.460  17.388 -0.3284  0.6239  0.0026
 9284TIP3    H149267   0.769   5.440  17.466 -0.5889  0.3016  0.0968
 9284TIP3    H249268   0.780   5.457  17.316 -0.1846  0.3982  0.1378
 9285TIP3   OH249269   6.501   0.926  11.484 -0.3043 -0.2116  0.6393
 9285TIP3    H149270   6.424   0.912  11.429 -0.1157  2.4898 -0.5318
 9285TIP3    H249271   6.574   0.893  11.431 -0.4142 -0.4289  0.6224
 9286TIP3   OH249272   5.847   5.193   3.977  0.1254  0.0771  0.2193
 9286TIP3    H149273   5.890   5.196   4.063 -0.0560 -0.5425  0.3347
 9286TIP3    H249274   5.903   5.136   3.925 -0.1824 -0.1704  0.1587
 9287TIP3   OH249275   4.855   2.000   2.164 -0.3246  0.0482 -0.2765
 9287TIP3    H149276   4.796   2.038   2.229 -0.4895  3.5297 -2.2083
 9287TIP3    H249277   4.797   1.951   2.105 -0.7460  0.3401 -0.1114
 9288TIP3   OH249278   4.103   6.324  12.879  0.5394 -0.4568 -0.1111
 9288TIP3    H149279   4.085   6.292  12.967  2.6542  0.1266  0.5852
 9288TIP3    H249280   4.175   6.386  12.890  1.4781 -1.0487 -2.3663
 9289TIP3   OH249281   3.348   0.921  10.505 -0.3793  0.3681  0.2334
 9289TIP3    H149282   3.367   0.913  10.598 -0.9406 -0.4333  0.2886
 9289TIP3    H249283   3.295   1.000  10.498 -0.2938  0.4585  0.5841
 9290TIP3   OH249284   3.399   2.026   4.386  0.2318 -0.0073 -0.6246
 9290TIP3    H149285   3.487   2.037   4.420 -0.6350  0.5034  1.6165
 9290TIP3    H249286   3.379   1.933   4.401  0.6265 -0.3165 -1.8581
 9291TIP3   OH249287   1.100   5.810  12.681 -0.0937 -0.4546 -0.2097
 9291TIP3    H149288   1.063   5.789  12.767  0.7188 -0.0707  0.2438
 9291TIP3    H249289   1.100   5.726  12.634  0.4837 -0.8944  0.5611
 9292TIP3   OH249290   5.467   0.303  11.480 -0.5318  0.1631  0.4143
 9292TIP3    H149291   5.459   0.389  11.437 -0.5197  0.6073  1.2695
 9292TIP3    H249292   5.396   0.251  11.443 -1.5757  1.0778  1.0813
 9293TIP3   OH249293   0.520   0.478   4.557 -0.2023 -0.0070 -0.0180
 9293TIP3    H149294   0.475   0.396   4.578  2.3063 -1.7246 -0.8638
 9293TIP3    H249295   0.597   0.478   4.615  0.5997  1.0271 -1.0394
 9294TIP3   OH249296   1.589   3.090   6.321 -0.2704 -0.2409 -0.0687
 9294TIP3    H149297   1.617   3.173   6.283 -1.2410  0.2337  0.2274
 9294TIP3    H249298   1.671   3.047   6.347  0.3250  0.0024 -1.4724
 9295TIP3   OH249299   4.883   1.513   2.846  0.2711 -0.2457  0.0072
 9295TIP3    H149300   4.914   1.433   2.804 -0.0166 -0.5246  0.3145
 9295TIP3    H249301   4.868   1.574   2.774 -0.0401 -0.6554 -0.2780
 9296TIP3   OH249302   5.231   2.715  16.688 -0.5385 -0.2977  0.0018
 9296TIP3    H149303   5.245   2.720  16.782  1.0362  0.5087 -0.2440
 9296TIP3    H249304   5.281   2.638  16.660 -2.3475 -1.5422  0.0065
 9297TIP3   OH249305   3.979   1.776   5.006  0.1673  0.2713  0.1494
 9297TIP3    H149306   4.035   1.847   5.038 -0.9018  1.1555  0.1220
 9297TIP3    H249307   3.892   1.814   5.002 -0.4405 -1.0598  0.1345
 9298TIP3   OH249308   2.023   1.839  13.092 -0.3882 -0.8328 -0.2197
 9298TIP3    H149309   2.114   1.867  13.079 -0.3657 -0.7089  0.1826
 9298TIP3    H249310   2.004   1.862  13.183 -0.9794 -0.4040 -0.4404
 9299TIP3   OH249311   1.237   1.103  16.410 -0.0259  0.2493 -0.2279
 9299TIP3    H149312   1.315   1.144  16.373 -0.1551  0.9818  0.2751
 9299TIP3    H249313   1.188   1.176  16.448 -1.2771 -0.1175 -1.0923
 9300TIP3   OH249314   2.965   2.770  13.088  0.0730 -0.2008 -0.2054
 9300TIP3    H149315   3.000   2.746  13.002 -0.3526  0.1706 -0.4849
 9300TIP3    H249316   2.953   2.686  13.133  1.1676 -0.3434 -0.1559
 9301TIP3   OH249317   1.755   5.366   5.288 -0.0125 -0.0409 -0.2827
 9301TIP3    H149318   1.799   5.308   5.227  2.7478  0.9011  0.6605
 9301TIP3    H249319   1.745   5.448   5.239 -0.0616 -0.0316 -0.2572
 9302TIP3   OH249320   5.183   0.189   5.833  0.0979 -0.4189  0.4033
 9302TIP3    H149321   5.102   0.169   5.880 -1.4982  1.0033 -1.5498
 9302TIP3    H249322   5.156   0.191   5.741  1.9001  2.1304 -0.1424
 9303TIP3   OH249323   2.033   4.093   3.167  0.3761 -0.1397 -0.3125
 9303TIP3    H149324   2.117   4.066   3.130  0.3992 -1.7554  0.8051
 9303TIP3    H249325   2.005   4.018   3.219 -1.1618  0.8490  0.3491
 9304TIP3   OH249326   5.477   2.248  10.544  0.2900  0.3179 -0.2004
 9304TIP3    H149327   5.568   2.232  10.569  0.1878  1.7785  1.2983
 9304TIP3    H249328   5.426   2.201  10.609 -0.0193  0.1204 -0.5852
 9305TIP3   OH249329   5.789   6.091   0.530  0.7334  0.0794  0.3479
 9305TIP3    H149330   5.858   6.097   0.464  0.5295 -1.2546 -0.0135
 9305TIP3    H249331   5.832   6.054   0.607  0.1285 -2.5565 -0.4566
 9306TIP3   OH249332   1.063   0.594   2.994  0.3854 -0.4393 -0.1186
 9306TIP3    H149333   1.019   0.608   2.910  1.6252  0.9003 -0.5682
 9306TIP3    H249334   1.047   0.674   3.043  0.3180 -0.9155  0.6485
 9307TIP3   OH249335   5.430   3.140   0.700 -0.0887  0.4572 -0.0286
 9307TIP3    H149336   5.377   3.103   0.770  1.2900  1.2231  1.4603
 9307TIP3    H249337   5.452   3.229   0.730  1.7250  0.2893 -0.7509
 9308TIP3   OH249338   2.983   2.608  12.444 -0.3292 -0.1857 -0.4850
 9308TIP3    H149339   2.913   2.642  12.500  0.6204  1.6768 -0.3554
 9308TIP3    H249340   3.053   2.585  12.505  0.1504  0.4328 -0.8002
 9309TIP3   OH249341   6.621   1.424  13.568 -0.0175 -0.2068 -0.0323
 9309TIP3    H149342   6.593   1.489  13.632 -1.9006 -1.4940  0.5251
 9309TIP3    H249343   6.639   1.346  13.620  1.9798 -0.2463 -0.7162
 9310TIP3   OH249344   2.719   5.268  13.458 -0.4592  0.2341 -0.2159
 9310TIP3    H149345   2.808   5.249  13.428 -0.0851  0.2674  0.8281
 9310TIP3    H249346   2.664   5.250  13.383  0.0750 -2.8636  0.0051
 9311TIP3   OH249347   3.872   1.628  10.961 -0.0058  0.0552 -0.2033
 9311TIP3    H149348   3.900   1.719  10.975 -1.3403  0.2619  1.4170
 9311TIP3    H249349   3.792   1.635  10.909  0.7008 -0.3093 -1.3766
 9312TIP3   OH249350   6.278   1.006  15.270 -0.2171 -0.5080 -0.2096
 9312TIP3    H149351   6.373   0.990  15.275 -0.3692 -1.2447  0.5364
 9312TIP3    H249352   6.268   1.064  15.195  0.8875  0.0276  0.0215
 9313TIP3   OH249353   2.525   6.384   0.463 -0.0466 -0.2223  0.1381
 9313TIP3    H149354   2.545   6.293   0.485 -1.4156 -0.1993  1.7719
 9313TIP3    H249355   2.610   6.427   0.456  0.6891 -0.6531  4.0581
 9314TIP3   OH249356   4.810   4.772   5.525  0.4143 -0.6039  0.4157
 9314TIP3    H149357   4.870   4.769   5.451  1.2034 -1.1029  1.0562
 9314TIP3    H249358   4.852   4.831   5.588 -1.1736  1.3989 -0.2789
 9315TIP3   OH249359   5.690   0.977  13.179  0.1617  0.4809 -0.0877
 9315TIP3    H149360   5.708   1.042  13.111 -0.8176 -0.2507 -1.0875
 9315TIP3    H249361   5.736   1.010  13.257  0.2302  2.0157 -0.7379
 9316TIP3   OH249362   3.571   2.140  11.284 -0.1329  0.3375 -0.1390
 9316TIP3    H149363   3.632   2.078  11.245  1.4619  0.5497  1.8512
 9316TIP3    H249364   3.610   2.226  11.267  0.5287  0.4448  1.6968
 9317TIP3   OH249365   5.808   5.929  17.152 -0.4034  0.1055  0.3046
 9317TIP3    H149366   5.873   5.868  17.187 -0.0435 -0.3245 -1.0851
 9317TIP3    H249367   5.784   5.893  17.067 -2.5150  0.2289  0.7893
 9318TIP3   OH249368   0.727   3.536  17.098  0.2961  0.2990  0.6406
 9318TIP3    H149369   0.673   3.476  17.150 -1.2019  0.9170 -0.1524
 9318TIP3    H249370   0.802   3.556  17.155 -0.5921 -0.1325  2.0106
 9319TIP3   OH249371   3.122   4.981  17.158  0.0899  0.3673 -0.0753
 9319TIP3    H149372   3.132   4.906  17.099 -0.3115  1.4876 -1.6269
 9319TIP3    H249373   3.146   5.056  17.104 -1.3334  1.5336  0.8762
 9320TIP3   OH249374   4.138   0.206  12.799 -0.8071  1.0246  0.3963
 9320TIP3    H149375   4.056   0.171  12.834 -0.4197 -1.9370 -1.2853
 9320TIP3    H249376   4.145   0.167  12.712  2.8385  0.2845  0.8512
 9321TIP3   OH249377   2.606   5.574  11.438 -0.0754 -0.6571  0.1931
 9321TIP3    H149378   2.560   5.490  11.442 -1.4725  0.0931  1.0733
 9321TIP3    H249379   2.567   5.625  11.510  2.9142 -0.3165  1.7045
 9322TIP3   OH249380   6.282   1.540  15.151  0.1144 -0.4039  0.2544
 9322TIP3    H149381   6.233   1.592  15.214  0.8064  1.0215 -0.3446
 9322TIP3    H249382   6.239   1.455  15.151 -0.4453 -0.1519  1.9821
 9323TIP3   OH249383   1.633   2.252  16.736 -0.4676  0.3436  0.3590
 9323TIP3    H149384   1.679   2.314  16.792 -1.3255  1.4359 -0.1310
 9323TIP3    H249385   1.683   2.251  16.655  0.8708 -1.3598  1.1166
 9324TIP3   OH249386   5.562   2.830   1.726 -0.2201  0.4090 -0.5844
 9324TIP3    H149387   5.577   2.735   1.722 -1.7787  0.1688 -1.6147
 9324TIP3    H249388   5.643   2.868   1.693  1.1976 -0.4518  1.6931
 9325TIP3   OH249389   1.536   4.741  12.711 -1.1974 -0.6860  0.6418
 9325TIP3    H149390   1.537   4.757  12.805  0.2121 -1.1599  0.7207
 9325TIP3    H249391   1.467   4.677  12.698 -1.1224 -0.9217  1.4044
 9326TIP3   OH249392   0.074   2.317   0.455 -0.1826  0.3570 -0.0122
 9326TIP3    H149393   0.066   2.410   0.435  0.8025  0.3474 -0.5351
 9326TIP3    H249394  -0.005   2.277   0.420 -1.1814  1.1469  1.2516
 9327TIP3   OH249395   1.007   2.958  11.007  0.4619  0.5915  0.0667
 9327TIP3    H149396   0.912   2.945  11.003  0.3864  0.6591  1.2829
 9327TIP3    H249397   1.022   3.038  10.957  0.1080 -0.3525 -1.6256
 9328TIP3   OH249398   0.090   1.868   3.558  0.2605 -0.0678  0.3150
 9328TIP3    H149399   0.040   1.794   3.593  1.2550 -1.3347 -0.7830
 9328TIP3    H249400   0.169   1.827   3.522  2.1859  1.8331  2.0930
 9329TIP3   OH249401   2.225   2.128  17.076 -0.7617 -0.2425 -0.5027
 9329TIP3    H149402   2.208   2.034  17.079 -0.9783 -0.1846  0.2238
 9329TIP3    H249403   2.227   2.149  16.982  0.2639 -1.1410 -0.7042
 9330TIP3   OH249404   5.991   5.786   1.800 -0.1511 -0.0944 -0.5759
 9330TIP3    H149405   6.057   5.745   1.857  0.2991 -1.2023 -1.8359
 9330TIP3    H249406   5.956   5.858   1.852 -0.5728 -1.7225  1.5571
 9331TIP3   OH249407   1.177   0.667  12.601 -0.1981 -0.3569 -0.1219
 9331TIP3    H149408   1.162   0.700  12.690  2.8405  0.5564  0.1527
 9331TIP3    H249409   1.212   0.579  12.613 -0.9473 -0.7204 -0.5087
 9332TIP3   OH249410   5.961   0.964  16.970 -0.5408  0.7069 -0.5995
 9332TIP3    H149411   6.026   1.029  16.996 -1.2941  1.1582  0.2026
 9332TIP3    H249412   5.990   0.883  17.011 -1.3276  1.2546  1.1556
 9333TIP3   OH249413   6.068   5.405   1.712  1.1966  0.9832  0.3768
 9333TIP3    H149414   5.974   5.422   1.709  0.9174 -0.3346  0.8088
 9333TIP3    H249415   6.107   5.473   1.657 -0.1247  0.7629 -0.8929
 9334TIP3   OH249416   2.921   5.101  17.378 -0.4118  0.1326 -0.6455
 9334TIP3    H149417   2.853   5.166  17.400  0.3183  0.6680  0.1037
 9334TIP3    H249418   2.909   5.085  17.285 -1.6857  0.0792 -0.4984
 9335TIP3   OH249419   3.775   2.076   2.363 -0.1356 -0.3850  0.4853
 9335TIP3    H149420   3.767   2.014   2.435  1.2195 -1.4313 -0.2130
 9335TIP3    H249421   3.847   2.134   2.389 -0.3737 -0.0663  0.4490
 9336TIP3   OH249422   2.449   2.600  14.988  0.3178  0.2590 -0.0595
 9336TIP3    H149423   2.435   2.652  14.909 -1.3624  0.1148  0.0859
 9336TIP3    H249424   2.496   2.657  15.048 -0.2904  1.1328 -0.3996
 9337TIP3   OH249425   4.557   1.040  14.645  0.2908  0.2165  0.2536
 9337TIP3    H149426   4.532   0.971  14.706 -2.2190  0.8937  0.0993
 9337TIP3    H249427   4.546   1.000  14.558 -0.5158  0.5860  0.1776
 9338TIP3   OH249428   5.153   0.256   3.440  0.3740  0.3195 -0.4316
 9338TIP3    H149429   5.082   0.320   3.433 -1.8981 -1.6426  2.2902
 9338TIP3    H249430   5.123   0.181   3.388  0.8224 -0.2113  0.0556
 9339TIP3   OH249431   2.478   4.398  13.689 -0.2491 -0.7239  0.0475
 9339TIP3    H149432   2.542   4.467  13.708 -0.6294 -0.1154 -0.8089
 9339TIP3    H249433   2.487   4.382  13.596 -1.5116 -0.4338 -0.1439
 9340TIP3   OH249434   2.646   2.249  11.463 -0.0397 -0.0324  0.0134
 9340TIP3    H149435   2.674   2.306  11.535  1.5013 -1.8172  0.8827
 9340TIP3    H249436   2.695   2.282  11.387  1.7885 -0.8766  0.7640
 9341TIP3   OH249437   5.004   5.543  17.047  0.5326 -0.0958 -0.1175
 9341TIP3    H149438   5.055   5.578  16.974 -0.2988 -3.1625 -2.3728
 9341TIP3    H249439   4.916   5.579  17.035  0.1604 -1.3116 -1.2779
 9342TIP3   OH249440   2.588   1.267   2.307 -0.4741  0.5247  0.2699
 9342TIP3    H149441   2.627   1.300   2.226 -1.2162  3.0553  0.8575
 9342TIP3    H249442   2.559   1.179   2.285  2.8384 -0.3863 -1.0412
 9343TIP3   OH249443   5.413   6.630   1.260  0.1555 -0.4446  0.4060
 9343TIP3    H149444   5.386   6.663   1.346  0.4703  1.0330 -0.0360
 9343TIP3    H249445   5.338   6.648   1.203 -0.2393 -1.8392  0.4257
 9344TIP3   OH249446   5.328   2.051  11.267  0.5345  0.1882  0.3680
 9344TIP3    H149447   5.418   2.061  11.235 -0.3118 -1.1893 -2.8309
 9344TIP3    H249448   5.311   1.957  11.260 -1.3017  0.4951  0.3889
 9345TIP3   OH249449   5.692   0.371  12.172 -0.2123 -0.3333  0.1245
 9345TIP3    H149450   5.648   0.456  12.169 -0.5937 -0.5311  0.1086
 9345TIP3    H249451   5.737   0.365  12.087 -0.9624 -0.5576 -0.2646
 9346TIP3   OH249452   1.733   6.391   0.890 -0.1879  0.2034  0.6425
 9346TIP3    H149453   1.822   6.386   0.927 -0.0564  1.1253  0.4707
 9346TIP3    H249454   1.676   6.374   0.965  0.1308 -1.2875  0.5844
 9347TIP3   OH249455   6.188   5.241   6.660  0.1954  0.5927  0.3250
 9347TIP3    H149456   6.129   5.283   6.723 -1.8401  0.6868 -1.4810
 9347TIP3    H249457   6.252   5.194   6.713 -1.4044  0.6617  2.4403
 9348TIP3   OH249458   0.926   2.864  11.286 -0.7805 -0.9158  0.0337
 9348TIP3    H149459   0.863   2.934  11.302  0.0341 -0.4242  1.2515
 9348TIP3    H249460   0.962   2.885  11.199 -0.1439  0.5335  0.6071
 9349TIP3   OH249461   3.310   1.122  16.261 -0.6075 -0.3480  0.2200
 9349TIP3    H149462   3.264   1.049  16.221 -0.4862 -0.6945  0.7056
 9349TIP3    H249463   3.254   1.198  16.244 -0.7776 -0.5641 -0.2068
 9350TIP3   OH249464   4.650   1.512  11.297 -0.1398 -0.2739  0.8821
 9350TIP3    H149465   4.639   1.490  11.205  0.5471 -0.1646  0.7655
 9350TIP3    H249466   4.692   1.599  11.296 -1.0230  0.1660  1.3076
 9351TIP3   OH249467   0.260   2.358  16.338  0.2936 -1.1452 -0.3298
 9351TIP3    H149468   0.293   2.390  16.255  0.2714 -0.0060  0.0843
 9351TIP3    H249469   0.338   2.343  16.392  0.2364 -0.3630 -0.0244
 9352TIP3   OH249470   5.081   2.864  15.706 -0.1689 -0.4385  0.5506
 9352TIP3    H149471   5.139   2.805  15.657 -0.2964 -2.2879  2.4874
 9352TIP3    H249472   4.993   2.832  15.687 -0.4589  0.9906 -0.6495
 9353TIP3   OH249473   3.936   2.415   0.904 -0.0243  0.2575 -0.0267
 9353TIP3    H149474   3.987   2.379   0.976  1.2959  1.2134 -0.4415
 9353TIP3    H249475   4.002   2.453   0.845 -1.0461 -0.6743 -1.8381
 9354TIP3   OH249476   1.460   3.011   2.176 -0.0219  0.0960 -0.2835
 9354TIP3    H149477   1.379   3.030   2.222  0.5334  1.0292  0.3365
 9354TIP3    H249478   1.525   2.996   2.245  0.7356  1.1405 -0.7334
 9355TIP3   OH249479   5.843   5.377   5.284  0.0652 -0.2332 -1.0315
 9355TIP3    H149480   5.818   5.387   5.192 -0.3111 -0.2987 -0.9341
 9355TIP3    H249481   5.801   5.296   5.312  0.1961 -0.2228 -0.8045
 9356TIP3   OH249482   4.788   1.095  16.905  0.5652 -0.1328  0.2266
 9356TIP3    H149483   4.864   1.142  16.939  0.1742  2.4297 -2.0714
 9356TIP3    H249484   4.823   1.043  16.832  0.4273 -0.5568  0.4617
 9357TIP3   OH249485   0.046   0.859  17.034  0.1593  0.3825 -0.8898
 9357TIP3    H149486   0.113   0.796  17.060 -2.2191 -1.6582  0.7634
 9357TIP3    H249487   0.076   0.942  17.069  0.2366 -1.0841  3.0362
 9358TIP3   OH249488   1.002   5.089   5.076  0.5117 -0.0049 -0.9616
 9358TIP3    H149489   0.998   5.086   4.980  2.4326  1.0304 -1.1211
 9358TIP3    H249490   1.072   5.028   5.099 -0.1109 -0.4469 -0.1731
 9359TIP3   OH249491   3.578   0.458   5.185 -0.3579 -0.5675  0.0998
 9359TIP3    H149492   3.651   0.510   5.151  0.1462 -1.5804 -0.4096
 9359TIP3    H249493   3.541   0.512   5.255  0.9876 -0.1003  0.4890
 9360TIP3   OH249494   3.692   3.108   6.073  0.1247 -0.1038 -0.1569
 9360TIP3    H149495   3.737   3.126   6.156 -1.2821 -0.2037  0.6507
 9360TIP3    H249496   3.634   3.182   6.061 -0.2830 -0.4960 -0.6322
 9361TIP3   OH249497   6.679   4.871   3.638  0.1311  0.1090 -0.1291
 9361TIP3    H149498   6.727   4.949   3.610 -2.9609  2.1824 -0.2260
 9361TIP3    H249499   6.608   4.862   3.574 -1.1978 -1.1210  1.4281
 9362TIP3   OH249500   0.759   6.237  10.966 -0.2005  0.2870  0.1099
 9362TIP3    H149501   0.742   6.329  10.948 -0.7380  0.1039 -0.3288
 9362TIP3    H249502   0.680   6.206  11.011  0.1320  0.1290  0.6066
 9363TIP3   OH249503   4.208   6.558   3.855  0.6131  0.1797 -0.0766
 9363TIP3    H149504   4.230   6.492   3.790  0.4703  0.9613 -0.9309
 9363TIP3    H249505   4.118   6.537   3.881  0.5414  0.0896 -0.3958
 9364TIP3   OH249506   6.498   5.163  15.471 -0.5290 -0.5712 -0.5530
 9364TIP3    H149507   6.490   5.148  15.565 -1.7202 -1.8832 -0.8248
 9364TIP3    H249508   6.424   5.220  15.449 -0.5424 -0.6670 -0.7593
 9365TIP3   OH249509   6.100   2.318   4.914  0.0606 -0.2615 -0.6834
 9365TIP3    H149510   6.157   2.305   4.838 -1.4562 -0.8269 -1.7692
 9365TIP3    H249511   6.116   2.241   4.969  2.2340  0.8329  0.3727
 9366TIP3   OH249512   0.183   3.659  12.650  0.8486  0.0639 -0.3476
 9366TIP3    H149513   0.141   3.575  12.632 -1.1359  1.0893 -0.8028
 9366TIP3    H249514   0.251   3.667  12.583 -0.0010 -0.5016 -1.3129
 9367TIP3   OH249515   1.772   4.133   0.364  0.0702  0.6277  0.1175
 9367TIP3    H149516   1.737   4.221   0.380  0.6042  0.6909  1.0034
 9367TIP3    H249517   1.782   4.096   0.451  2.2608  0.6254 -0.0829
 9368TIP3   OH249518   4.182   1.870   4.452  0.0986 -0.3129 -0.1620
 9368TIP3    H149519   4.104   1.854   4.398 -0.7373  0.7234  0.6964
 9368TIP3    H249520   4.150   1.868   4.542  1.0873  0.0185  0.2116
 9369TIP3   OH249521   2.186   5.213  10.844 -0.2514 -0.1171 -0.2194
 9369TIP3    H149522   2.131   5.139  10.868 -1.0646  0.1947 -1.0437
 9369TIP3    H249523   2.178   5.218  10.748  0.3377  0.6127 -0.2396
 9370TIP3   OH249524   0.209   6.302   5.511  0.5875  0.2299 -0.3753
 9370TIP3    H149525   0.123   6.259   5.512  0.6987 -0.0348 -1.0926
 9370TIP3    H249526   0.272   6.230   5.517  0.7637  0.3390 -0.8241
 9371TIP3   OH249527   6.277   0.969  11.287 -0.8047  0.5957 -0.6273
 9371TIP3    H149528   6.333   0.917  11.229 -3.0467 -1.9258 -0.6882
 9371TIP3    H249529   6.192   0.969  11.244 -1.8045  1.1618  1.2669
 9372TIP3   OH249530   5.898   1.850   2.304 -0.1534 -0.0072  0.3063
 9372TIP3    H149531   5.955   1.843   2.228  1.6524  0.7455  1.5339
 9372TIP3    H249532   5.809   1.853   2.267  0.5106 -1.6603 -1.6318
 9373TIP3   OH249533   5.352   0.465   4.654 -0.3715  0.0920 -0.1790
 9373TIP3    H149534   5.374   0.375   4.678  0.1585 -0.0358 -1.0701
 9373TIP3    H249535   5.308   0.456   4.569  1.0881  0.7611 -1.0522
 9374TIP3   OH249536   6.675   1.406  11.781 -0.7308  0.2168 -0.3346
 9374TIP3    H149537   6.753   1.440  11.737 -1.2470  1.5043 -0.3197
 9374TIP3    H249538   6.702   1.321  11.816  0.8392  0.8762  0.1672
 9375TIP3   OH249539   2.184   5.646   1.988 -0.1568 -0.6962 -0.6996
 9375TIP3    H149540   2.192   5.700   2.067 -2.0533  0.7216 -1.3963
 9375TIP3    H249541   2.239   5.570   2.005  0.4338  0.1519  1.4820
 9376TIP3   OH249542   4.893   6.584   4.682 -0.1916  0.6280  0.0644
 9376TIP3    H149543   4.813   6.532   4.687 -0.5562  1.0298 -1.1979
 9376TIP3    H249544   4.865   6.667   4.644  0.3763  1.7891  2.0712
 9377TIP3   OH249545   0.252   3.082   3.322  0.0398 -0.4276 -0.0592
 9377TIP3    H149546   0.204   3.078   3.405  0.4037  0.1125  0.1806
 9377TIP3    H249547   0.319   3.149   3.336  0.9734 -1.2813 -0.3300
 9378TIP3   OH249548   4.818   3.767   1.314  0.3897  0.0635 -0.0436
 9378TIP3    H149549   4.885   3.809   1.260  0.5978  0.1473  0.2810
 9378TIP3    H249550   4.824   3.810   1.399  0.2739 -0.2807  0.1424
 9379TIP3   OH249551   0.802   5.035  11.275 -0.3951  0.6171  0.0700
 9379TIP3    H149552   0.787   4.956  11.327 -0.0813 -0.1727 -0.9869
 9379TIP3    H249553   0.896   5.034  11.256 -0.3270  1.4425  0.3490
 9380TIP3   OH249554   4.220   1.298  16.687 -0.5478  0.0752 -0.3300
 9380TIP3    H149555   4.306   1.298  16.644  0.0851  0.6568  0.9028
 9380TIP3    H249556   4.181   1.382  16.661 -0.5848 -0.0136 -0.5664
 9381TIP3   OH249557   1.289   1.272  16.060 -0.3900  0.0597 -0.2634
 9381TIP3    H149558   1.350   1.274  16.134 -0.6046  0.2361 -0.0863
 9381TIP3    H249559   1.299   1.185  16.023 -1.7145 -0.7617  1.1865
 9382TIP3   OH249560   0.330   4.332   2.516 -0.4826  0.2328  0.2243
 9382TIP3    H149561   0.395   4.337   2.445 -0.6552  1.0620  0.1155
 9382TIP3    H249562   0.285   4.248   2.501 -0.2999  0.2472 -0.4602
 9383TIP3   OH249563   4.273   5.367   4.707 -0.0327  0.3284  0.1111
 9383TIP3    H149564   4.313   5.420   4.638  2.5657 -1.1862  0.3262
 9383TIP3    H249565   4.258   5.282   4.666  0.6774 -0.3089  1.1416
 9384TIP3   OH249566   4.983   5.122   3.784 -0.1008 -0.3362 -0.3080
 9384TIP3    H149567   4.912   5.071   3.823 -1.8655  0.6069 -2.1071
 9384TIP3    H249568   5.027   5.060   3.725 -2.0972  0.0466 -2.3247
 9385TIP3   OH249569   2.531   6.368  12.407  0.3366  0.0226  0.4966
 9385TIP3    H149570   2.580   6.290  12.434 -0.7087 -0.4764  1.0368
 9385TIP3    H249571   2.448   6.333  12.374 -0.3485  0.9305  1.1967
 9386TIP3   OH249572   3.928   1.745   0.881  0.1738  0.5780 -0.0015
 9386TIP3    H149573   3.887   1.672   0.834 -2.7765  1.2220  1.3313
 9386TIP3    H249574   3.900   1.823   0.832  2.5728  0.9532 -0.9046
 9387TIP3   OH249575   3.129   6.083   1.815 -0.3440  0.6211 -0.5400
 9387TIP3    H149576   3.068   6.016   1.783  0.1766 -0.5473  0.8068
 9387TIP3    H249577   3.197   6.034   1.861  1.4556  1.9036 -1.6606
 9388TIP3   OH249578   5.956   4.387   5.612 -0.2260  0.8658 -0.5378
 9388TIP3    H149579   5.989   4.335   5.538 -1.6498 -2.0440  0.6991
 9388TIP3    H249580   5.875   4.426   5.579 -0.5427  0.0661 -0.7459
 9389TIP3   OH249581   3.251   6.393   4.473  0.2585 -0.5346 -0.0031
 9389TIP3    H149582   3.307   6.466   4.501  0.3043 -0.7644  0.5133
 9389TIP3    H249583   3.255   6.331   4.545 -0.4553 -0.6773 -0.0805
 9390TIP3   OH249584   6.749   3.098  16.897  0.0339 -0.8017 -0.1937
 9390TIP3    H149585   6.823   3.146  16.859  0.9408 -1.0411  1.1770
 9390TIP3    H249586   6.723   3.036  16.829  0.5556 -0.1347 -1.0140
 9391TIP3   OH249587   0.006   5.635   2.950  0.1299 -0.1604  0.5318
 9391TIP3    H149588  -0.060   5.569   2.971 -0.1566  0.4189  1.4991
 9391TIP3    H249589  -0.001   5.700   3.020  0.8994  0.5332 -0.0107
 9392TIP3   OH249590   0.379   2.617   6.296  0.2338 -0.1835 -0.1898
 9392TIP3    H149591   0.297   2.657   6.324 -0.0820 -1.3738  0.6903
 9392TIP3    H249592   0.432   2.613   6.377  0.4902 -0.9663 -0.3935
 9393TIP3   OH249593   5.622   2.164  12.496 -0.2769 -0.6613 -0.0100
 9393TIP3    H149594   5.680   2.102  12.451  1.3048  0.1894  0.7902
 9393TIP3    H249595   5.582   2.215  12.425  1.3807 -0.0335 -0.5378
 9394TIP3   OH249596   4.433   1.181  14.358 -0.4234 -0.2639 -0.3651
 9394TIP3    H149597   4.468   1.228  14.433  1.2060 -0.5002 -0.9381
 9394TIP3    H249598   4.338   1.185  14.369 -0.3180  2.3397  0.0804
 9395TIP3   OH249599   0.850   4.197  12.079 -0.9166 -0.1961  0.6535
 9395TIP3    H149600   0.799   4.116  12.079 -1.5361  0.1706 -0.4360
 9395TIP3    H249601   0.858   4.221  12.171 -0.8084 -1.4387  0.9745
 9396TIP3   OH249602   5.835   1.253   6.059  0.0449  0.0139  0.2886
 9396TIP3    H149603   5.748   1.244   6.021  0.7336 -1.6108 -0.9952
 9396TIP3    H249604   5.895   1.225   5.990  1.5331 -0.0369  1.5417
 9397TIP3   OH249605   2.799   4.027   4.068 -0.3387 -0.4439 -0.3837
 9397TIP3    H149606   2.752   4.097   4.022  0.7949 -0.8945 -2.3517
 9397TIP3    H249607   2.890   4.055   4.068  0.1803 -1.9983 -1.4723
 9398TIP3   OH249608   3.698   1.362  11.263  0.4830  0.1865 -0.3107
 9398TIP3    H149609   3.626   1.299  11.273 -0.5712  1.4232  0.0863
 9398TIP3    H249610   3.735   1.341  11.177 -0.7932 -0.0431 -0.8368
 9399TIP3   OH249611   1.931   0.409   1.451 -0.5013 -0.5311 -0.0174
 9399TIP3    H149612   1.999   0.347   1.425  1.2961  1.2657  0.1457
 9399TIP3    H249613   1.900   0.378   1.536 -0.4000 -1.7566 -0.4193
 9400TIP3   OH249614   4.094   3.579   4.728  0.0759 -0.3615 -0.0871
 9400TIP3    H149615   4.174   3.585   4.676 -0.3398  1.1707 -0.6163
 9400TIP3    H249616   4.026   3.615   4.671 -0.9835 -1.5315  0.3973
 9401TIP3   OH249617   1.137   0.601   0.724 -0.7451  0.6149 -0.2161
 9401TIP3    H149618   1.230   0.587   0.740 -0.9086  0.9741  1.1733
 9401TIP3    H249619   1.127   0.696   0.720 -1.1856  0.6045  0.5450
 9402TIP3   OH249620   1.018   2.760  14.242 -0.2822  0.2689 -0.1475
 9402TIP3    H149621   1.042   2.708  14.165  1.5527 -1.3516  1.4392
 9402TIP3    H249622   0.940   2.716  14.277  0.4448 -0.6206  0.3947
 9403TIP3   OH249623   3.055   6.389  16.603 -0.4590  0.6878 -0.3925
 9403TIP3    H149624   3.138   6.409  16.645  0.3915 -0.0056 -1.6712
 9403TIP3    H249625   3.061   6.429  16.516 -2.2189  2.2008  0.1264
 9404TIP3   OH249626   4.747   3.904  11.049  0.1819 -0.3324 -0.2340
 9404TIP3    H149627   4.840   3.884  11.040  0.3172  0.3936 -0.5571
 9404TIP3    H249628   4.721   3.936  10.963 -0.7614 -2.0032 -0.6206
 9405TIP3   OH249629   6.370   5.757  12.216 -0.3454  0.7129  0.5371
 9405TIP3    H149630   6.401   5.719  12.134 -0.2311 -1.8236  1.6612
 9405TIP3    H249631   6.450   5.769  12.268 -0.5682  0.9546  0.8279
 9406TIP3   OH249632   5.401   1.761   5.323 -0.0963 -0.7119 -0.8130
 9406TIP3    H149633   5.307   1.758   5.304 -0.5413 -0.8003  1.1443
 9406TIP3    H249634   5.424   1.671   5.345  0.2751 -0.5495 -0.5420
 9407TIP3   OH249635   5.487   6.419  12.864 -0.2761  0.5161 -1.2764
 9407TIP3    H149636   5.395   6.436  12.883 -0.3668  0.4404 -1.6463
 9407TIP3    H249637   5.497   6.444  12.772  0.4387  2.0840 -0.8039
 9408TIP3   OH249638   6.441   2.525   2.370 -0.5619 -0.4474 -0.7547
 9408TIP3    H149639   6.443   2.491   2.281 -1.8627 -1.8828 -0.2756
 9408TIP3    H249640   6.509   2.476   2.416  2.3230  2.4419 -1.5755
 9409TIP3   OH249641   5.790   0.362  11.909  0.5586 -0.1384  0.0955
 9409TIP3    H149642   5.706   0.333  11.874  0.4761  2.7451 -2.5273
 9409TIP3    H249643   5.856   0.311  11.861  0.3282  0.1177 -0.5072
 9410TIP3   OH249644   0.232   0.988   4.053  0.5854 -0.7329  0.9051
 9410TIP3    H149645   0.269   1.041   4.123  1.0748 -1.9257  1.5703
 9410TIP3    H249646   0.307   0.952   4.006  0.2617 -0.2886  0.0202
 9411TIP3   OH249647   1.600   2.464   0.174 -0.1769  0.3802 -0.3082
 9411TIP3    H149648   1.625   2.495   0.261 -2.4114  0.7428  0.2860
 9411TIP3    H249649   1.591   2.369   0.184 -1.5951  0.5452  0.2322
 9412TIP3   OH249650   5.242   3.277   2.551 -0.4801  0.1995  0.3815
 9412TIP3    H149651   5.254   3.341   2.621 -0.9348  0.0150  0.6388
 9412TIP3    H249652   5.169   3.311   2.500 -0.3673  0.1632  0.1983
 9413TIP3   OH249653   2.283   3.406  12.545  0.3364  0.4100 -0.0272
 9413TIP3    H149654   2.294   3.415  12.640 -0.1939  0.8213  0.0052
 9413TIP3    H249655   2.370   3.421  12.509  0.8169 -1.0306  0.4625
 9414TIP3   OH249656   1.026   5.724   4.606 -0.4572 -0.2042  0.0735
 9414TIP3    H149657   0.942   5.731   4.561 -0.5427 -2.5513 -0.2492
 9414TIP3    H249658   1.066   5.811   4.596 -3.2821  1.3381  1.2203
 9415TIP3   OH249659   2.501   1.737   3.307  0.9738  0.2710 -0.1326
 9415TIP3    H149660   2.444   1.660   3.319  1.9042 -0.2410  1.1444
 9415TIP3    H249661   2.556   1.714   3.232  1.8105 -0.6790  0.7477
 9416TIP3   OH249662   6.023   6.668   4.241 -0.0686  0.3502 -0.3651
 9416TIP3    H149663   6.053   6.598   4.299  0.9712  1.2786  0.2837
 9416TIP3    H249664   6.089   6.737   4.253 -1.1441  1.4877 -0.8619
 9417TIP3   OH249665   6.490   2.113   5.676  0.4063 -0.5767  0.0604
 9417TIP3    H149666   6.554   2.044   5.659 -0.3349 -1.1440 -0.5017
 9417TIP3    H249667   6.516   2.184   5.617  2.4863  0.5602  2.1661
 9418TIP3   OH249668   2.560   4.777   2.513  0.1567  0.0163  0.4121
 9418TIP3    H149669   2.635   4.792   2.571  0.0714 -0.7200  0.7356
 9418TIP3    H249670   2.493   4.739   2.571  0.1745 -1.0103 -0.2221
 9419TIP3   OH249671   1.985   3.115   3.393 -0.1686  0.0899 -0.0357
 9419TIP3    H149672   1.956   3.083   3.479 -0.9155  1.9241  0.4433
 9419TIP3    H249673   1.966   3.208   3.394  2.4066  0.7286 -1.1451
 9420TIP3   OH249674   1.184   1.604  13.174  0.3668  0.0580 -0.2345
 9420TIP3    H149675   1.267   1.606  13.222 -0.2684  0.6683  0.8732
 9420TIP3    H249676   1.205   1.643  13.089  1.3385 -0.3333 -0.1841
 9421TIP3   OH249677   6.441   2.365  15.938 -0.1591  0.4411  0.2020
 9421TIP3    H149678   6.521   2.325  15.973 -0.3108  0.9349  1.1372
 9421TIP3    H249679   6.406   2.299  15.878  1.2958  0.4787 -0.7434
 9422TIP3   OH249680   0.657   2.817  15.111 -0.2960 -0.1532 -0.3541
 9422TIP3    H149681   0.748   2.845  15.115 -0.5568  0.5946  0.8242
 9422TIP3    H249682   0.661   2.723  15.091  0.8291 -0.5891  1.6661
 9423TIP3   OH249683   0.472   2.552   4.780 -0.3932  0.7902  0.5859
 9423TIP3    H149684   0.459   2.542   4.874 -1.2065 -1.6904  0.2933
 9423TIP3    H249685   0.566   2.537   4.767 -0.4778 -0.0987  0.9145
 9424TIP3   OH249686   3.004   3.671  13.613  0.2997  0.1614 -0.3751
 9424TIP3    H149687   3.026   3.606  13.547  3.3889 -1.1782  1.7895
 9424TIP3    H249688   2.964   3.621  13.684 -1.3706  1.3368 -0.4146
 9425TIP3   OH249689   4.409   4.724  13.681  0.1401  0.0414 -0.0520
 9425TIP3    H149690   4.324   4.686  13.702 -0.2122  0.1730 -1.1973
 9425TIP3    H249691   4.441   4.759  13.765 -1.2114  0.5440  0.2765
 9426TIP3   OH249692   1.951   3.770   2.589 -0.4704 -0.0476  0.2840
 9426TIP3    H149693   2.028   3.715   2.579  0.6821  1.5780 -0.1114
 9426TIP3    H249694   1.912   3.741   2.672  1.4549  0.1282  1.3162
 9427TIP3   OH249695   4.641   5.429  17.013  0.5267  0.6249 -0.3196
 9427TIP3    H149696   4.625   5.338  17.035  0.5128  0.8696  0.7285
 9427TIP3    H249697   4.555   5.470  17.010  0.5921  0.7933  0.0778
 9428TIP3   OH249698   2.282   6.574   1.835 -0.4901 -0.2810 -0.1484
 9428TIP3    H149699   2.362   6.618   1.807 -0.2130 -1.2937 -1.0077
 9428TIP3    H249700   2.309   6.483   1.851 -1.5348 -0.7325 -0.8573
 9429TIP3   OH249701   0.487   1.197  13.240 -0.1976 -0.4220 -0.1591
 9429TIP3    H149702   0.444   1.146  13.309  0.5246 -1.2078 -0.2851
 9429TIP3    H249703   0.579   1.172  13.244  0.2229  1.0218 -0.0974
 9430TIP3   OH249704   3.942   5.855  12.433 -0.2207 -0.2090  0.2427
 9430TIP3    H149705   4.000   5.819  12.501 -0.0240  0.2824  0.3463
 9430TIP3    H249706   3.871   5.792  12.426 -0.5268 -0.0035  1.3050
 9431TIP3   OH249707   6.745   4.763   1.943  0.1061  0.1845 -0.1673
 9431TIP3    H149708   6.662   4.810   1.952 -0.5692 -0.9920 -0.0913
 9431TIP3    H249709   6.734   4.683   1.994  1.8084  0.6388  1.0209
 9432TIP3   OH249710   5.088   3.063   2.861  0.1453 -0.2746 -0.1569
 9432TIP3    H149711   5.049   3.095   2.780  0.6911  0.6369 -0.0697
 9432TIP3    H249712   5.016   3.060   2.923  0.1067  0.9825 -0.1185
 9433TIP3   OH249713   5.298   3.657  16.315  0.2988 -0.5014 -0.0719
 9433TIP3    H149714   5.223   3.603  16.337 -1.6402  2.3706  1.0652
 9433TIP3    H249715   5.349   3.662  16.396  0.7094 -0.9312 -0.2980
 9434TIP3   OH249716   3.197   2.145   2.937  0.2112  0.0909  0.1187
 9434TIP3    H149717   3.127   2.174   2.995 -0.7707 -0.4629 -0.7603
 9434TIP3    H249718   3.256   2.221   2.930  0.0398  0.3512  1.3541
 9435TIP3   OH249719   0.129   0.100   3.013  0.0510  0.2139  0.3095
 9435TIP3    H149720   0.061   0.167   3.007  0.0551  0.0777 -2.1575
 9435TIP3    H249721   0.211   0.149   3.006  0.1085  0.1001  0.1876
 9436TIP3   OH249722   3.200   4.725  16.420  0.7322  0.0403 -0.4347
 9436TIP3    H149723   3.219   4.632  16.412  1.0145  0.1145 -0.6644
 9436TIP3    H249724   3.279   4.763  16.457  0.7134  0.2260 -0.5815
 9437TIP3   OH249725   3.800   3.614   4.907  0.1313 -0.5275 -0.1868
 9437TIP3    H149726   3.771   3.686   4.963 -3.7169 -0.5745 -1.7889
 9437TIP3    H249727   3.818   3.656   4.823 -1.9487 -1.3020 -1.0788
 9438TIP3   OH249728   5.128   5.687  11.127  0.7344  0.2447  0.3059
 9438TIP3    H149729   5.117   5.703  11.221 -0.9122 -1.0080  0.3668
 9438TIP3    H249730   5.039   5.682  11.093  1.1616 -2.7109 -0.6804
 9439TIP3   OH249731   0.711   3.256  12.469 -0.2068  0.0113 -0.4297
 9439TIP3    H149732   0.758   3.332  12.505 -1.2145  0.3622  0.2040
 9439TIP3    H249733   0.779   3.204  12.425  0.6307  0.8873 -0.2126
 9440TIP3   OH249734   4.951   2.967  16.705 -0.0255 -0.6103  0.5527
 9440TIP3    H149735   5.027   2.957  16.762 -0.3132  1.7354  1.4705
 9440TIP3    H249736   4.977   2.926  16.622  1.9431 -0.5343  1.0849
 9441TIP3   OH249737   4.512   1.367  11.524  0.4188 -0.5532 -0.1784
 9441TIP3    H149738   4.518   1.441  11.584  1.3267 -1.5525  1.0201
 9441TIP3    H249739   4.559   1.396  11.446 -0.8997  0.8206 -0.5020
 9442TIP3   OH249740   1.122   1.320  14.303 -0.0084  1.3830 -0.0375
 9442TIP3    H149741   1.036   1.284  14.285  0.4070 -0.3340  1.2159
 9442TIP3    H249742   1.109   1.378  14.379  0.0205  0.6896  0.5043
 9443TIP3   OH249743   6.314   5.219  15.999 -0.1020  0.0572  0.4429
 9443TIP3    H149744   6.269   5.298  15.970 -0.6749 -0.3944  0.0881
 9443TIP3    H249745   6.392   5.252  16.045  0.7414  0.8061 -1.4147
 9444TIP3   OH249746   1.404   2.471  13.010  0.0396  0.1619  0.3572
 9444TIP3    H149747   1.419   2.399  13.072 -1.3027 -0.6270 -0.1826
 9444TIP3    H249748   1.354   2.431  12.939  1.8935  0.9612 -1.4733
 9445TIP3   OH249749   6.436   4.259  11.352 -0.4107 -0.0111 -0.8078
 9445TIP3    H149750   6.402   4.345  11.376  1.5168  0.6182 -0.1170
 9445TIP3    H249751   6.454   4.264  11.258 -0.2213  0.3863 -0.7509
 9446TIP3   OH249752   3.281   4.696  15.769 -0.3927  0.2598 -0.1721
 9446TIP3    H149753   3.188   4.676  15.777 -0.4402  0.5677  0.0464
 9446TIP3    H249754   3.321   4.654  15.845 -0.4618  0.8074  0.1653
 9447TIP3   OH249755   3.727   2.505   5.226  0.2253  0.2894  0.8954
 9447TIP3    H149756   3.647   2.460   5.196 -1.3348  2.3599  1.7215
 9447TIP3    H249757   3.749   2.462   5.308  0.2205 -0.5670  0.4593
 9448TIP3   OH249758   4.036   3.199  14.922  0.4989 -0.5415 -0.6908
 9448TIP3    H149759   4.085   3.140  14.979 -0.1123 -0.9525 -0.5832
 9448TIP3    H249760   3.953   3.212  14.967  1.1893  1.6761  0.0897
 9449TIP3   OH249761   4.389   0.456  13.760  0.1362 -0.6729 -0.1494
 9449TIP3    H149762   4.388   0.426  13.851 -0.3602  0.9312  0.3950
 9449TIP3    H249763   4.353   0.382  13.711 -0.5975 -1.1688  1.0754
 9450TIP3   OH249764   1.681   2.833   0.385 -0.2593  0.0078  0.0347
 9450TIP3    H149765   1.609   2.834   0.322 -0.8943 -0.0518  0.7471
 9450TIP3    H249766   1.738   2.904   0.357 -1.5518  1.2956  0.5217
 9451TIP3   OH249767   4.321   0.665  14.533 -0.3793 -0.1804  0.2113
 9451TIP3    H149768   4.259   0.694  14.466 -0.2911  1.1348  0.6746
 9451TIP3    H249769   4.267   0.629  14.603 -0.6728  1.2134  0.7337
 9452TIP3   OH249770   5.398   1.545   3.532  0.2524  0.0497 -0.4963
 9452TIP3    H149771   5.342   1.596   3.474 -1.1700 -2.1112 -1.1292
 9452TIP3    H249772   5.345   1.471   3.558  1.1665  0.4174  2.9039
 9453TIP3   OH249773   3.090   6.266  11.116 -0.0760  0.4201 -0.1379
 9453TIP3    H149774   3.109   6.354  11.083  0.5843  1.2381  2.2291
 9453TIP3    H249775   3.168   6.215  11.095  0.4526  0.9997  0.3843
 9454TIP3   OH249776   6.713   2.991  16.082 -0.2004 -0.6490  0.4469
 9454TIP3    H149777   6.713   2.932  16.158 -1.5735 -1.4449 -0.1314
 9454TIP3    H249778   6.716   2.932  16.007  0.3307  0.1059 -0.1329
 9455TIP3   OH249779   1.105   0.659   1.904 -0.0887  0.3173  0.3853
 9455TIP3    H149780   1.192   0.674   1.940  0.2563  1.4793 -0.8510
 9455TIP3    H249781   1.090   0.733   1.845 -0.9461 -1.0491 -1.1984
 9456TIP3   OH249782   5.492   1.885   1.245  0.2631  0.0178 -0.0994
 9456TIP3    H149783   5.429   1.949   1.214 -1.0860 -0.0931  2.1910
 9456TIP3    H249784   5.463   1.863   1.334  1.3525 -2.8820 -0.3367
 9457TIP3   OH249785   6.426   5.634  11.993 -0.0408  0.0640  0.1462
 9457TIP3    H149786   6.424   5.566  11.926 -0.7668  1.2697 -1.1198
 9457TIP3    H249787   6.471   5.708  11.951 -1.1473  1.0934  0.6931
 9458TIP3   OH249788   1.685   3.311  16.618  0.4603  0.9566 -0.4619
 9458TIP3    H149789   1.756   3.279  16.562  0.8118  1.1097 -0.1106
 9458TIP3    H249790   1.629   3.361  16.559 -0.7102 -1.1854 -1.2582
 9459TIP3   OH249791   3.855   1.888   1.143 -0.2517  0.3604 -0.0773
 9459TIP3    H149792   3.894   1.809   1.105 -1.8653 -1.3524  1.6066
 9459TIP3    H249793   3.776   1.904   1.090 -1.1622 -0.5663  0.9493
 9460TIP3   OH249794   3.613   6.272   1.627  0.0112 -0.0402  0.3186
 9460TIP3    H149795   3.694   6.233   1.659 -0.0364  0.8018  1.5838
 9460TIP3    H249796   3.606   6.355   1.675 -0.0644  1.3749 -1.9693
 9461TIP3   OH249797   0.425   6.338  14.881  0.7317 -0.0237  0.6393
 9461TIP3    H149798   0.395   6.295  14.961 -0.6439  1.4420  0.9600
 9461TIP3    H249799   0.501   6.389  14.908  2.8747 -2.6435  0.1069
 9462TIP3   OH249800   5.383   5.944   4.083  0.8173  0.0867  0.0622
 9462TIP3    H149801   5.306   5.995   4.107  0.6544 -0.2951  0.3599
 9462TIP3    H249802   5.443   6.008   4.045  0.1312  0.2915 -0.7009
 9463TIP3   OH249803   5.375   4.734   3.337  0.4369 -0.6022 -0.3660
 9463TIP3    H149804   5.372   4.828   3.358  0.7754  0.0511 -2.9111
 9463TIP3    H249805   5.448   4.700   3.388  1.0780  0.7921 -0.3141
 9464TIP3   OH249806   1.213   5.512  17.293  0.3267 -0.0611  0.2937
 9464TIP3    H149807   1.198   5.604  17.313  1.5581 -0.0127  1.0677
 9464TIP3    H249808   1.241   5.512  17.201 -0.1828  0.2630  0.1314
 9465TIP3   OH249809   2.744   1.938   2.237  0.6943  0.1581 -0.0464
 9465TIP3    H149810   2.786   1.954   2.322 -1.3151  1.2927  0.8331
 9465TIP3    H249811   2.732   2.025   2.200 -1.1677 -0.0440 -0.0419
 9466TIP3   OH249812   1.129   1.164   4.574  0.2085 -0.0985  0.0462
 9466TIP3    H149813   1.076   1.086   4.589  0.8739 -0.4871  0.4149
 9466TIP3    H249814   1.065   1.233   4.555 -0.3887 -0.6985 -0.1542
 9467TIP3   OH249815   2.754   5.580  15.716  0.5385  0.2064 -0.4096
 9467TIP3    H149816   2.818   5.642  15.681 -0.9736  2.1001 -0.0059
 9467TIP3    H249817   2.732   5.524  15.642 -0.5276  2.3398 -1.8413
 9468TIP3   OH249818   3.141   5.502  15.204 -0.1343 -0.1375 -0.6988
 9468TIP3    H149819   3.113   5.439  15.271  1.3128 -0.3247 -0.2374
 9468TIP3    H249820   3.121   5.588  15.241  0.8678 -0.2328  0.0987
 9469TIP3   OH249821   2.858   0.090  15.546  0.3659 -0.3346  0.3098
 9469TIP3    H149822   2.804   0.072  15.623  0.6202 -0.0419  0.5621
 9469TIP3    H249823   2.894   0.004  15.521 -2.2273 -1.0466 -1.4442
 9470TIP3   OH249824   3.851   5.488   2.504 -0.0096 -0.5504  0.0612
 9470TIP3    H149825   3.812   5.402   2.519 -1.5951  0.2260  0.6376
 9470TIP3    H249826   3.914   5.499   2.575 -1.4720 -0.3217  1.3801
 9471TIP3   OH249827   4.565   5.878   5.579 -0.1034 -0.3222 -0.3288
 9471TIP3    H149828   4.540   5.953   5.633 -0.4602 -2.0209  1.9871
 9471TIP3    H249829   4.510   5.807   5.609  2.1600 -2.2567 -0.4667
 9472TIP3   OH249830   5.228   0.463   5.281 -0.1962 -0.0875 -0.0642
 9472TIP3    H149831   5.140   0.446   5.314  0.6070 -1.2042  1.6589
 9472TIP3    H249832   5.216   0.473   5.186 -2.2247  0.3400  0.1894
 9473TIP3   OH249833   0.991   1.677   0.050  0.0998  0.2978  0.2950
 9473TIP3    H149834   0.980   1.708   0.139 -0.8555 -0.5530  0.4955
 9473TIP3    H249835   1.020   1.754   0.000  0.9988  0.6870  1.3955
 9474TIP3   OH249836   4.510   2.671  13.606 -0.1690 -0.0645  0.1659
 9474TIP3    H149837   4.565   2.714  13.541 -0.7921  0.2009 -0.1956
 9474TIP3    H249838   4.562   2.596  13.636  0.2667  0.0133 -0.3832
 9475TIP3   OH249839   0.017   5.928   5.181 -0.3055  0.1009 -0.3134
 9475TIP3    H149840  -0.053   5.893   5.236  1.1720  1.3170  2.5850
 9475TIP3    H249841  -0.019   6.009   5.145 -0.7117  0.2849  0.4680
 9476TIP3   OH249842   0.455   3.374   5.294 -0.3969 -0.2044  0.1183
 9476TIP3    H149843   0.465   3.461   5.255  2.0960 -0.5977 -0.3127
 9476TIP3    H249844   0.451   3.315   5.220  0.1452 -0.6201  0.4115
 9477TIP3   OH249845   1.633   4.790  12.263 -0.4575 -0.2651 -0.5435
 9477TIP3    H149846   1.646   4.885  12.272  0.3845 -0.1079 -2.6549
 9477TIP3    H249847   1.541   4.781  12.239 -0.5634  0.0261 -0.2517
 9478TIP3   OH249848   0.923   1.792  15.445 -0.3975  0.1004 -0.2581
 9478TIP3    H149849   0.991   1.859  15.433 -0.0550 -0.1248  0.4223
 9478TIP3    H249850   0.842   1.837  15.420 -0.0704  0.5265 -0.5813
 9479TIP3   OH249851   1.350   6.537  16.045 -0.3379 -0.2661  0.1752
 9479TIP3    H149852   1.429   6.588  16.060 -1.4355  1.2430  1.2126
 9479TIP3    H249853   1.360   6.460  16.100  0.4934 -0.2032  0.1215
 9480TIP3   OH249854   5.713   2.546   0.472 -0.0627  0.2445 -0.0690
 9480TIP3    H149855   5.733   2.639   0.474  0.9932  0.0337  1.1666
 9480TIP3    H249856   5.716   2.519   0.564 -1.1348 -0.8549 -0.3291
 9481TIP3   OH249857   5.485   4.626  11.358  0.3849  0.4487 -0.0224
 9481TIP3    H149858   5.465   4.704  11.410 -0.0504  0.6311 -0.4600
 9481TIP3    H249859   5.537   4.571  11.417 -0.6081  0.3718  0.8193
 9482TIP3   OH249860   5.784   3.416  13.482 -0.3212  0.6090 -0.2519
 9482TIP3    H149861   5.745   3.489  13.433  0.3164  1.0339 -0.1332
 9482TIP3    H249862   5.722   3.343  13.470 -1.4949  1.4500  0.4919
 9483TIP3   OH249863   1.546   6.037  12.930 -0.1667  0.0845 -0.0953
 9483TIP3    H149864   1.607   5.967  12.952 -0.8534 -0.1152  1.3191
 9483TIP3    H249865   1.478   6.030  12.997 -1.1733  0.9790 -1.0017
 9484TIP3   OH249866   5.385   1.201  11.477  0.1248 -0.0082 -0.4933
 9484TIP3    H149867   5.445   1.187  11.550 -0.5192 -0.8498 -0.1165
 9484TIP3    H249868   5.330   1.275  11.506 -0.4329 -0.6366  0.0806
 9485TIP3   OH249869   4.189   5.347  15.544  0.0377 -0.1222 -0.0181
 9485TIP3    H149870   4.225   5.340  15.633  0.9462  0.4177 -0.3302
 9485TIP3    H249871   4.198   5.260  15.507  1.0424 -0.0093 -0.0805
 9486TIP3   OH249872   5.411   2.786   2.490 -0.1604  0.3625 -0.3984
 9486TIP3    H149873   5.361   2.704   2.487  0.8184 -0.2716 -0.1333
 9486TIP3    H249874   5.346   2.854   2.508 -0.6816 -0.7046  2.2593
 9487TIP3   OH249875   5.788   1.759  14.487  0.1676  0.1595  0.3853
 9487TIP3    H149876   5.858   1.760  14.422 -0.8943  1.0793 -0.7913
 9487TIP3    H249877   5.755   1.669  14.485  0.7058 -0.0396  0.2923
 9488TIP3   OH249878   4.347   6.747   6.413  0.0217  0.0676 -0.0065
 9488TIP3    H149879   4.390   6.760   6.497  0.7826  0.6611 -0.4811
 9488TIP3    H249880   4.330   6.652   6.409 -0.8179  0.1490  1.1783
 9489TIP3   OH249881   5.098   6.448   1.610  0.2521 -0.7635  0.3654
 9489TIP3    H149882   5.148   6.367   1.607  2.0489  0.2799  0.6097
 9489TIP3    H249883   5.138   6.504   1.544  0.2858  0.5810  1.4625
 9490TIP3   OH249884   0.747   2.612  16.814 -0.0076 -0.1261  0.7806
 9490TIP3    H149885   0.762   2.633  16.906  1.1720 -1.2491  0.8674
 9490TIP3    H249886   0.671   2.554  16.815 -1.4356  1.6493  0.7968
 9491TIP3   OH249887   3.387   3.485  11.887 -0.4264  0.3019  0.7873
 9491TIP3    H149888   3.353   3.567  11.850  0.0583  0.0187 -0.3137
 9491TIP3    H249889   3.358   3.487  11.979 -0.8905  1.4423  0.6382
 9492TIP3   OH249890   4.977   2.276  14.125  0.4994 -0.0205 -0.0945
 9492TIP3    H149891   5.019   2.356  14.093 -0.0339  0.2399 -0.1410
 9492TIP3    H249892   4.917   2.250  14.056  0.8968 -0.6425 -0.2144
 9493TIP3   OH249893   3.650   1.285   6.438  0.7714  0.1039 -0.0160
 9493TIP3    H149894   3.655   1.352   6.507 -0.2255  0.8709 -0.6640
 9493TIP3    H249895   3.640   1.334   6.357 -1.4982 -0.8124 -0.3685
 9494TIP3   OH249896   1.146   6.051  10.900  0.1435  0.4352 -0.3339
 9494TIP3    H149897   1.194   6.005  10.832  2.0890  1.1877  0.4691
 9494TIP3    H249898   1.213   6.081  10.961 -1.3393  1.6660  0.7732
 9495TIP3   OH249899   1.648   2.292  13.849  0.9687 -0.1812 -0.2976
 9495TIP3    H149900   1.712   2.332  13.789 -0.7106  1.9544 -0.7978
 9495TIP3    H249901   1.606   2.224  13.797  2.3384 -1.1733 -0.1651
 9496TIP3   OH249902   0.950   5.031  14.722  0.3577  0.4340  0.2982
 9496TIP3    H149903   1.037   4.996  14.743 -0.3082 -0.7358  1.2200
 9496TIP3    H249904   0.901   5.023  14.804 -0.7614  0.6682 -0.3328
 9497TIP3   OH249905   0.601   4.479  11.075 -0.3898  0.4996  0.0011
 9497TIP3    H149906   0.684   4.431  11.074 -0.0800  1.0223  0.0741
 9497TIP3    H249907   0.617   4.555  11.019 -1.6813 -0.7697 -2.2503
 9498TIP3   OH249908   5.912   1.875  16.442  0.0423  0.1694  0.1849
 9498TIP3    H149909   5.900   1.967  16.466 -0.6175  0.0730  0.2499
 9498TIP3    H249910   5.827   1.835  16.459 -0.3393  0.0004 -1.8538
 9499TIP3   OH249911   5.631   5.154   4.336  0.2847  0.6987 -0.3840
 9499TIP3    H149912   5.548   5.147   4.383  0.1733  0.6027 -0.5974
 9499TIP3    H249913   5.608   5.147   4.244  0.7175 -1.1854 -0.3932
 9500TIP3   OH249914   5.514   3.152  11.774  0.4828  0.5432  0.6264
 9500TIP3    H149915   5.421   3.149  11.753  0.3142  1.3103  1.2182
 9500TIP3    H249916   5.539   3.244  11.763  1.2570  0.2925  0.1382
 9501TIP3   OH249917   2.118   0.913   1.052  0.3340 -0.1739 -0.2918
 9501TIP3    H149918   2.044   0.868   1.094  0.6545  0.3142  0.8262
 9501TIP3    H249919   2.177   0.842   1.027  0.0519 -0.4906 -0.0796
 9502TIP3   OH249920   6.160   0.928  16.043 -0.5596  0.0180  0.1851
 9502TIP3    H149921   6.114   0.983  15.980  1.9639 -0.8645 -2.6528
 9502TIP3    H249922   6.218   0.873  15.990  1.1935 -1.3567  3.2462
 9503TIP3   OH249923   4.885   5.706   6.248 -0.2408 -0.2142 -0.4716
 9503TIP3    H149924   4.923   5.623   6.218  1.0427  0.1743 -0.0132
 9503TIP3    H249925   4.803   5.681   6.289  0.1927 -1.2863 -0.2134
 9504TIP3   OH249926   2.628   0.509  14.126  0.0662 -0.3215 -0.0309
 9504TIP3    H149927   2.611   0.580  14.189  0.2202 -0.8750  0.6501
 9504TIP3    H249928   2.544   0.497  14.081 -0.6541 -1.2714  1.4872
 9505TIP3   OH249929   1.704   3.774   3.173 -0.4898  0.1078 -0.0713
 9505TIP3    H149930   1.655   3.777   3.091 -0.1202  0.8000 -0.2818
 9505TIP3    H249931   1.766   3.703   3.162 -0.3723  0.2662 -0.4319
 9506TIP3   OH249932   2.634   1.303  13.387  0.2309  0.4755  0.0500
 9506TIP3    H149933   2.699   1.237  13.363  0.3895  0.9825 -0.9726
 9506TIP3    H249934   2.551   1.265  13.359 -0.0674 -0.5294  2.0872
 9507TIP3   OH249935   5.812   4.813   0.918  0.0757  0.0506 -0.2310
 9507TIP3    H149936   5.791   4.787   1.008  0.7583  1.3322  0.3210
 9507TIP3    H249937   5.877   4.750   0.889  0.2067 -0.0837  0.3505
 9508TIP3   OH249938   2.058   4.668  11.981 -0.1970  0.2217 -0.1570
 9508TIP3    H149939   2.125   4.724  11.942  1.1532 -0.5941  0.8973
 9508TIP3    H249940   2.083   4.579  11.957  0.0346 -0.2139  1.5246
 9509TIP3   OH249941   0.888   3.233  17.264  0.2777 -0.2798  0.1232
 9509TIP3    H149942   0.890   3.177  17.187  0.6751 -0.6937  0.4278
 9509TIP3    H249943   0.815   3.293  17.249 -0.3880 -1.1119 -0.0475
 9510TIP3   OH249944   6.694   6.697   2.389  0.0970  0.2139  0.3383
 9510TIP3    H149945   6.675   6.791   2.400  0.4656  0.2245  0.9510
 9510TIP3    H249946   6.614   6.654   2.420 -0.0208  0.3237  0.1898
 9511TIP3   OH249947   1.353   0.869  12.567  0.5410 -0.0024 -0.3803
 9511TIP3    H149948   1.416   0.861  12.638  0.8461  0.3631 -0.6099
 9511TIP3    H249949   1.285   0.804  12.588  0.4186  0.3873  0.4542
 9512TIP3   OH249950   4.115   6.742   3.133 -0.2174  0.2856 -0.0961
 9512TIP3    H149951   4.117   6.653   3.169 -1.4027  0.0084 -0.6750
 9512TIP3    H249952   4.073   6.732   3.048  1.4306  1.1127 -1.0610
 9513TIP3   OH249953   4.183   2.755  13.141 -0.8835 -0.2880  0.2990
 9513TIP3    H149954   4.236   2.834  13.155 -1.6509  0.2076  0.4998
 9513TIP3    H249955   4.109   2.786  13.088 -0.1557 -1.2895 -1.3681
 9514TIP3   OH249956   4.162   2.863  16.659 -0.2378 -0.1133 -0.1915
 9514TIP3    H149957   4.230   2.800  16.635 -1.8171 -0.6563 -4.0262
 9514TIP3    H249958   4.083   2.810  16.672 -0.9388  0.8302 -0.4503
 9515TIP3   OH249959   1.042   0.258  16.407 -0.5340 -0.2268 -0.2972
 9515TIP3    H149960   1.125   0.232  16.445  0.3021  2.0014 -0.4451
 9515TIP3    H249961   1.006   0.178  16.370  1.2962 -1.3324  0.2099
 9516TIP3   OH249962   0.562   0.525   0.888 -0.0019 -0.3314  0.1618
 9516TIP3    H149963   0.510   0.523   0.808 -1.1963 -1.2706  0.9099
 9516TIP3    H249964   0.506   0.573   0.951  1.6999  2.0860 -0.0330
 9517TIP3   OH249965   1.081   5.106   0.740 -0.0605 -0.0731  0.1806
 9517TIP3    H149966   1.162   5.055   0.739 -0.4407 -0.7550 -2.4041
 9517TIP3    H249967   1.022   5.055   0.796  0.9621 -0.0465  1.3309
 9518TIP3   OH249968   5.165   1.669   6.038  0.5833  0.2685 -0.0009
 9518TIP3    H149969   5.192   1.731   6.105 -0.6012 -2.2506  3.0558
 9518TIP3    H249970   5.070   1.679   6.034  0.7145  1.2448 -2.3729
 9519TIP3   OH249971   0.140   4.916   1.492  0.3102  0.1134 -0.8037
 9519TIP3    H149972   0.123   4.866   1.413 -0.3432 -0.4945 -0.2897
 9519TIP3    H249973   0.163   5.004   1.461 -1.9178  0.4549 -1.6238
 9520TIP3   OH249974   3.473   1.867   3.385  0.0538 -0.5974  0.2805
 9520TIP3    H149975   3.465   1.963   3.377 -0.5201 -0.6924 -0.4326
 9520TIP3    H249976   3.516   1.853   3.469  0.2642  0.2972  0.3337
 9521TIP3   OH249977   0.797   4.913  12.950 -0.0796  0.2174  0.4617
 9521TIP3    H149978   0.738   4.837  12.943 -0.5379  0.3475  2.2472
 9521TIP3    H249979   0.856   4.890  13.022  1.7722  0.3126 -0.9603
 9522TIP3   OH249980   2.272   1.869   4.930 -0.1156 -0.4336 -0.1352
 9522TIP3    H149981   2.292   1.805   4.861  0.3186 -2.5439  1.8097
 9522TIP3    H249982   2.184   1.845   4.959  0.5398 -1.0485  1.4666
 9523TIP3   OH249983   2.108   3.677   7.095  0.3830 -0.2018 -0.3126
 9523TIP3    H149984   2.028   3.677   7.148  1.4424  0.0416  1.3611
 9523TIP3    H249985   2.084   3.631   7.014 -1.8754  1.2780 -0.5649
 9524TIP3   OH249986   3.877   1.700   3.258  0.7960  0.0551 -1.2156
 9524TIP3    H149987   3.806   1.727   3.199  0.4489 -1.9819 -1.8353
 9524TIP3    H249988   3.957   1.719   3.210  0.5902  0.3083 -1.4627
 9525TIP3   OH249989   5.806   5.289   0.911 -0.3259  0.4500 -0.2839
 9525TIP3    H149990   5.723   5.242   0.909 -0.2660  0.3287  0.0556
 9525TIP3    H249991   5.786   5.375   0.873 -0.9167  0.8993  0.9771
 9526TIP3   OH249992   4.342   3.855   6.030  0.3368 -0.1526 -0.3087
 9526TIP3    H149993   4.318   3.887   5.943 -1.3446  0.0322  0.1899
 9526TIP3    H249994   4.361   3.935   6.080 -1.6480 -0.0080  0.2999
 9527TIP3   OH249995   2.438   1.372   5.998  0.0195 -0.3656 -0.4728
 9527TIP3    H149996   2.533   1.384   5.989 -0.0986  0.5232 -0.5851
 9527TIP3    H249997   2.406   1.456   6.030 -0.8367 -0.3976 -1.2141
 9528TIP3   OH249998   0.458   3.727   3.910  0.3115 -0.3883  0.0927
 9528TIP3    H149999   0.426   3.728   3.820 -0.8365  0.1256  0.4940
 9528TIP3    H250000   0.471   3.819   3.933  1.2555 -0.5418  0.2423
 9529TIP3   OH250001   4.876   6.717   5.105 -0.0720  0.0136  0.3812
 9529TIP3    H150002   4.929   6.768   5.167  0.4885 -0.2047  0.0887
 9529TIP3    H250003   4.939   6.685   5.041 -0.5603 -0.2784  0.0439
 9530TIP3   OH250004   4.910   0.013   3.558  0.4024  0.0157 -0.2132
 9530TIP3    H150005   4.855   0.090   3.576 -0.5901 -1.1270  2.1234
 9530TIP3    H250006   4.849  -0.061   3.563  2.0507 -1.3091  2.5456
 9531TIP3   OH250007   3.989   5.696  11.355 -0.1581  0.1060 -0.0670
 9531TIP3    H150008   4.008   5.688  11.448  0.7448  0.1388 -0.2344
 9531TIP3    H250009   4.074   5.684  11.312 -0.1988  1.9847 -0.7738
 9532TIP3   OH250010   0.876   2.656   2.895 -0.2510 -0.6274  0.1538
 9532TIP3    H150011   0.798   2.623   2.939 -0.6464  0.0939  0.0062
 9532TIP3    H250012   0.948   2.628   2.951 -0.5781 -1.6005  0.1088
 9533TIP3   OH250013   2.984   5.625  12.776 -0.1674 -0.2096 -0.4788
 9533TIP3    H150014   2.916   5.565  12.745  0.9454 -0.9529 -1.5721
 9533TIP3    H250015   3.009   5.592  12.862 -0.2640 -0.7315 -0.6509
 9534TIP3   OH250016   4.064   4.685   0.667  0.2124  0.2291  0.2016
 9534TIP3    H150017   3.980   4.700   0.711  0.0743 -0.5664  0.2299
 9534TIP3    H250018   4.051   4.720   0.579  0.3843  1.5361  0.6750
 9535TIP3   OH250019   1.664   2.746   3.875  0.2127 -0.0727 -0.3822
 9535TIP3    H150020   1.672   2.669   3.819 -1.2038  0.1734 -0.9473
 9535TIP3    H250021   1.697   2.717   3.960 -0.0964 -1.2333 -0.6481
 9536TIP3   OH250022   5.781   2.410   4.544 -0.3029 -0.4443 -0.5287
 9536TIP3    H150023   5.835   2.342   4.584 -1.8579 -1.3905  0.0184
 9536TIP3    H250024   5.812   2.415   4.453  1.6353  0.0361  0.1009
 9537TIP3   OH250025   5.193   2.016  11.675 -0.4977 -0.0748 -0.1817
 9537TIP3    H150026   5.274   1.973  11.646 -0.1599  0.3930  0.0593
 9537TIP3    H250027   5.178   1.981  11.763 -0.5456 -0.1419 -0.2160
 9538TIP3   OH250028   6.629   3.137   2.702 -0.6118 -0.1725 -0.3669
 9538TIP3    H150029   6.702   3.142   2.764 -0.1829  0.4039 -0.9029
 9538TIP3    H250030   6.575   3.213   2.724 -0.6140 -0.1339 -0.5071
 9539TIP3   OH250031   3.156   4.066   6.155 -0.0190  0.7954 -0.1261
 9539TIP3    H150032   3.159   4.091   6.063  0.0415 -0.7817 -0.5774
 9539TIP3    H250033   3.087   4.000   6.161  1.4080 -0.7176  0.5157
 9540TIP3   OH250034   3.933   2.710  16.651 -0.5868 -0.0454  0.6938
 9540TIP3    H150035   3.966   2.620  16.653 -1.3403 -0.3215  0.9411
 9540TIP3    H250036   3.867   2.709  16.581  0.9819  0.8850 -0.8774
 9541TIP3   OH250037   0.657   2.436   5.854 -0.2450 -0.4692 -0.5402
 9541TIP3    H150038   0.596   2.504   5.882 -1.4333 -0.9499 -1.8424
 9541TIP3    H250039   0.726   2.437   5.920 -1.0063  0.9588  0.2853
 9542TIP3   OH250040   6.726   0.165  11.649 -0.0414  0.0001  0.1418
 9542TIP3    H150041   6.717   0.105  11.723  0.6031  0.6544  0.7680
 9542TIP3    H250042   6.819   0.163  11.627 -0.4507 -1.4885 -1.8004
 9543TIP3   OH250043   6.552   4.392  15.047 -0.2619  0.1064  0.4394
 9543TIP3    H150044   6.604   4.445  15.108  0.5249  1.0105 -0.9586
 9543TIP3    H250045   6.617   4.335  15.005 -0.8204 -0.6115  0.5407
 9544TIP3   OH250046   3.809   0.516  15.124 -0.1349 -0.7214 -0.0389
 9544TIP3    H150047   3.903   0.513  15.141 -0.6691 -0.9563  4.0555
 9544TIP3    H250048   3.778   0.428  15.143 -1.3032 -0.3591 -0.1777
 9545TIP3   OH250049   2.934   0.201   4.428 -0.0969  0.0826  0.3366
 9545TIP3    H150050   2.882   0.133   4.384  0.5733  0.0996 -0.5198
 9545TIP3    H250051   2.922   0.279   4.373 -0.4774  0.5313  1.0486
 9546TIP3   OH250052   0.579   5.517  12.353 -0.0976 -0.3563 -0.2230
 9546TIP3    H150053   0.582   5.422  12.363  2.6083 -0.2182  1.5575
 9546TIP3    H250054   0.659   5.538  12.305 -0.4128  1.0368 -0.1805
 9547TIP3   OH250055   2.595   3.712   1.975  0.3795 -0.7812  0.1749
 9547TIP3    H150056   2.560   3.625   1.956 -0.3332 -0.4186 -0.2426
 9547TIP3    H250057   2.530   3.772   1.937  0.8855 -0.0727  0.4159
 9548TIP3   OH250058   0.511   6.513  15.274 -0.2733  0.2317  0.4230
 9548TIP3    H150059   0.452   6.470  15.213 -0.0499  0.0345  0.3425
 9548TIP3    H250060   0.502   6.464  15.355 -1.0265  0.8731  0.7332
 9549TIP3   OH250061   6.717   1.122  15.017  0.3311 -0.1362 -0.0047
 9549TIP3    H150062   6.761   1.099  15.099  1.9563  0.2155 -0.7318
 9549TIP3    H250063   6.649   1.184  15.043  1.5299  0.8229  0.9845
 9550TIP3   OH250064   0.085   1.534   5.064 -0.0851 -0.0235 -0.6571
 9550TIP3    H150065   0.099   1.439   5.065 -0.8494 -0.1418 -0.6914
 9550TIP3    H250066   0.024   1.551   5.136 -0.6391  0.3178 -1.1891
 9551TIP3   OH250067   2.740   2.610  12.288 -0.9007 -0.2929  0.0230
 9551TIP3    H150068   2.795   2.599  12.365 -0.6175  0.1247 -0.1145
 9551TIP3    H250069   2.719   2.521  12.260  1.8995 -0.6017 -1.4846
 9552TIP3   OH250070   4.116   1.022  13.604  0.5389  0.0421 -0.3071
 9552TIP3    H150071   4.035   1.035  13.654  0.5723 -1.8829  0.3067
 9552TIP3    H250072   4.087   1.023  13.512  0.0934  0.9786 -0.1744
 9553TIP3   OH250073   1.582   1.333  11.602  0.6436 -0.2468 -0.0865
 9553TIP3    H150074   1.579   1.429  11.603 -2.7669 -0.2042  2.0262
 9553TIP3    H250075   1.623   1.309  11.685 -2.3325 -0.4457  1.4480
 9554TIP3   OH250076   0.508   6.256   3.562  0.5124  0.2217  0.2304
 9554TIP3    H150077   0.584   6.276   3.507  0.3139  0.5417  0.0660
 9554TIP3    H250078   0.504   6.161   3.566 -1.0102  0.0798 -2.4976
 9555TIP3   OH250079   0.511   5.755  11.696  0.3723  0.3071 -0.0255
 9555TIP3    H150080   0.589   5.752  11.641  0.5896 -1.0307  0.3137
 9555TIP3    H250081   0.535   5.706  11.774 -1.0201 -0.7557 -0.2211
 9556TIP3   OH250082   4.855   1.796  12.098  0.0791  0.1385  0.0791
 9556TIP3    H150083   4.901   1.870  12.139 -0.2092  0.9954 -1.0846
 9556TIP3    H250084   4.893   1.791  12.010  0.8272 -1.7777  0.4570
 9557TIP3   OH250085   6.316   4.568  12.930  0.0421  0.2709 -0.0191
 9557TIP3    H150086   6.287   4.573  12.839  1.6146  0.1874 -0.5613
 9557TIP3    H250087   6.327   4.659  12.957  0.2896  0.2844 -0.1628
 9558TIP3   OH250088   4.109   2.609  15.455 -0.3311 -0.4141 -0.1571
 9558TIP3    H150089   4.166   2.686  15.448 -1.2565  0.2816 -0.2302
 9558TIP3    H250090   4.140   2.550  15.386 -1.5244  1.1678 -2.1502
 9559TIP3   OH250091   5.476   2.841   3.309 -0.5011 -0.3670 -0.2421
 9559TIP3    H150092   5.569   2.853   3.289 -0.3338 -1.8500 -0.4566
 9559TIP3    H250093   5.433   2.915   3.267  0.5531  0.2048 -0.3588
 9560TIP3   OH250094   0.682   2.533  12.367  0.0367  0.4243 -0.2422
 9560TIP3    H150095   0.679   2.587  12.447 -1.1585  1.0728 -0.6935
 9560TIP3    H250096   0.701   2.595  12.297 -0.3735  0.0999 -0.6468
 9561TIP3   OH250097   2.757   6.396  16.594  0.6123  0.6619 -0.8321
 9561TIP3    H150098   2.732   6.389  16.686  0.5533 -1.0545 -0.9428
 9561TIP3    H250099   2.793   6.484  16.586  0.2520  0.9923  0.7371
 9562TIP3   OH250100   1.562   4.908  13.011 -0.4469 -0.3663  0.4665
 9562TIP3    H150101   1.494   4.891  13.076 -1.0024 -1.6681 -0.4053
 9562TIP3    H250102   1.528   4.980  12.958 -0.9611 -0.7216  0.3061
 9563TIP3   OH250103   5.828   2.528  16.417  0.7106 -0.1456 -0.3019
 9563TIP3    H150104   5.749   2.547  16.468  1.2453 -1.3719  1.0379
 9563TIP3    H250105   5.796   2.521  16.327 -0.8715 -1.3003  0.2925
 9564TIP3   OH250106   1.619   4.021   4.955  0.7250  0.2530 -0.1150
 9564TIP3    H150107   1.559   4.082   4.998  1.7030  0.8557  0.4188
 9564TIP3    H250108   1.583   4.011   4.867 -0.2139  0.5229  0.2211
 9565TIP3   OH250109   2.329   6.104   0.677 -0.0473  0.5742  0.1523
 9565TIP3    H150110   2.377   6.128   0.598 -0.0058 -1.4481 -0.5138
 9565TIP3    H250111   2.364   6.018   0.701 -1.7136  0.0692  0.9560
 9566TIP3   OH250112   3.046   2.135  16.466  0.0007  0.2884  0.1812
 9566TIP3    H150113   3.116   2.189  16.428  0.6987  0.4028  1.5748
 9566TIP3    H250114   2.968   2.191  16.463  0.4267  0.9053  0.4482
 9567TIP3   OH250115   2.691   3.896   3.757 -0.1075  0.0679  0.1189
 9567TIP3    H150116   2.747   3.828   3.795 -0.5654  0.0268  0.7433
 9567TIP3    H250117   2.746   3.975   3.760 -0.0401  0.0086  0.6385
 9568TIP3   OH250118   3.433   1.189   5.213 -0.7220  0.6982 -0.3920
 9568TIP3    H150119   3.429   1.264   5.272  0.1166  0.6996 -0.3247
 9568TIP3    H250120   3.525   1.186   5.185 -0.8512 -0.0302 -0.7488
 9569TIP3   OH250121   0.286   4.157   0.487  0.3586 -0.0861  0.0241
 9569TIP3    H150122   0.192   4.144   0.480  0.3561  0.3862 -1.0720
 9569TIP3    H250123   0.322   4.070   0.503  0.0026 -0.8703 -2.9369
 9570TIP3   OH250124   5.295   5.246   5.457  0.1422  0.2227 -0.3662
 9570TIP3    H150125   5.275   5.317   5.518  0.8530 -1.1859  1.5997
 9570TIP3    H250126   5.258   5.167   5.498 -0.1573 -0.6723 -2.2168
 9571TIP3   OH250127   1.337   2.494  16.696 -0.4619 -0.4173 -0.2811
 9571TIP3    H150128   1.250   2.477  16.659 -0.4455 -0.7708 -0.1572
 9571TIP3    H250129   1.331   2.464  16.786 -0.8273  1.4017  0.3453
 9572TIP3   OH250130   6.066   0.132  10.896 -0.1643 -0.0274  0.1496
 9572TIP3    H150131   6.002   0.144  10.967  1.6267  1.5397  1.6263
 9572TIP3    H250132   6.030   0.061  10.843 -2.0980 -0.5870  2.0486
 9573TIP3   OH250133   5.380   0.094   4.331 -0.4230  0.1042  0.3012
 9573TIP3    H150134   5.460   0.128   4.290  0.4256  0.2946  2.0277
 9573TIP3    H250135   5.315   0.094   4.260  0.6508  1.4665 -0.7497
 9574TIP3   OH250136   4.813   3.883   0.885 -0.1407 -0.4284 -0.1595
 9574TIP3    H150137   4.787   3.890   0.977 -1.0616 -0.9686 -0.3654
 9574TIP3    H250138   4.807   3.789   0.866 -0.2024 -0.2909 -0.8321
 9575TIP3   OH250139   6.347   1.877   3.987 -0.2758 -0.0112  0.0896
 9575TIP3    H150140   6.351   1.849   4.078 -2.1287 -1.0249 -0.0888
 9575TIP3    H250141   6.429   1.844   3.948  0.5140  0.4014  1.3439
 9576TIP3   OH250142   5.355   3.355   3.478  0.1505  0.4031  0.3637
 9576TIP3    H150143   5.429   3.345   3.537  0.6119 -2.0906 -0.5188
 9576TIP3    H250144   5.395   3.361   3.391 -0.6159 -1.3015 -0.1582
 9577TIP3   OH250145   3.214   4.455   2.124 -0.0974 -0.1056  0.3720
 9577TIP3    H150146   3.147   4.516   2.155 -1.2094 -0.6864 -0.7807
 9577TIP3    H250147   3.169   4.370   2.120  1.1082 -0.7972  0.9121
 9578TIP3   OH250148   3.042   4.910   6.287 -0.4215  0.0005 -0.3701
 9578TIP3    H150149   3.130   4.873   6.276 -0.4003  0.3109 -1.3906
 9578TIP3    H250150   3.048   4.964   6.365  0.1456 -0.4139 -0.1199
 9579TIP3   OH250151   2.992   0.818  13.812  0.2071 -0.6196  0.0758
 9579TIP3    H150152   3.057   0.811  13.742  0.3159 -3.1913  0.3524
 9579TIP3    H250153   2.910   0.790  13.772  0.0586 -1.1136  0.7155
 9580TIP3   OH250154   1.084   0.724  12.869 -0.0528  0.4944 -0.1886
 9580TIP3    H150155   1.099   0.814  12.899  0.4977  0.0162  1.0061
 9580TIP3    H250156   1.000   0.700  12.907  0.9796 -0.3642  1.6565
 9581TIP3   OH250157   4.779   1.371  10.944  0.5195  0.1639  0.6172
 9581TIP3    H150158   4.753   1.446  10.998  2.8970  1.0118  0.6743
 9581TIP3    H250159   4.762   1.400  10.854 -2.8881 -1.0326  0.7390
 9582TIP3   OH250160   4.219   6.337  10.988 -0.8542  0.1283 -0.2476
 9582TIP3    H150161   4.200   6.429  10.965 -2.1355 -0.2606 -0.8605
 9582TIP3    H250162   4.174   6.324  11.072  1.2344  0.6694  1.0243
 9583TIP3   OH250163   0.037   0.417   5.473  0.0131 -0.3274  0.4770
 9583TIP3    H150164   0.044   0.484   5.405 -1.8798  0.1413  0.6874
 9583TIP3    H250165   0.064   0.463   5.553  0.8960 -0.4856  0.2831
 9584TIP3   OH250166   3.229   0.998   1.854  0.2242  0.5384 -0.0227
 9584TIP3    H150167   3.156   0.940   1.875  1.1047 -0.1088  1.3607
 9584TIP3    H250168   3.283   0.947   1.793 -0.4325  1.0175 -1.0469
 9585TIP3   OH250169   6.305   2.555  12.169 -0.1216 -0.0416  0.6349
 9585TIP3    H150170   6.259   2.471  12.174  1.5529 -1.1531 -1.1163
 9585TIP3    H250171   6.342   2.557  12.081  0.0245  2.5071  0.6679
 9586TIP3   OH250172   6.087   0.161  11.364  0.0055 -0.3108  0.1485
 9586TIP3    H150173   6.053   0.091  11.420  1.2542 -0.9157  0.1880
 9586TIP3    H250174   6.051   0.142  11.278 -1.1900  0.1055  0.5273
 9587TIP3   OH250175   2.819   2.490   1.055 -0.3809  0.2189  0.4813
 9587TIP3    H150176   2.741   2.512   1.004  0.5315 -0.2060 -1.1526
 9587TIP3    H250177   2.861   2.575   1.073  1.1029  0.2371 -2.5223
 9588TIP3   OH250178   2.650   4.610  11.386  0.2137  0.5121  0.4387
 9588TIP3    H150179   2.637   4.529  11.337  0.1925  0.8031 -0.0479
 9588TIP3    H250180   2.738   4.639  11.362  0.3953  0.4035  0.9555
 9589TIP3   OH250181   3.191   1.672   1.140 -0.0230  0.0786 -0.4114
 9589TIP3    H150182   3.219   1.719   1.219  0.2703 -1.9680  0.7845
 9589TIP3    H250183   3.096   1.686   1.136 -0.0180  0.3446  0.2283
 9590TIP3   OH250184   0.140   6.012  16.182  0.1779  0.5478  0.1396
 9590TIP3    H150185   0.063   6.069  16.181 -1.3686 -1.4288 -2.0021
 9590TIP3    H250186   0.133   5.960  16.103  1.9719 -2.0436  1.5330
 9591TIP3   OH250187   2.027   1.331   4.712 -0.0770  0.4395  0.2421
 9591TIP3    H150188   2.067   1.354   4.795 -0.3690  0.1377  0.4679
 9591TIP3    H250189   2.044   1.237   4.702  1.8220  0.8498 -1.0586
 9592TIP3   OH250190   0.350   3.564   0.845  0.3996  0.1481 -0.4953
 9592TIP3    H150191   0.315   3.650   0.822 -0.8075 -0.3798 -0.7100
 9592TIP3    H250192   0.306   3.542   0.927  2.1527  0.5431  0.6150
 9593TIP3   OH250193   3.628   4.370   5.465 -0.0280 -0.2387  0.1710
 9593TIP3    H150194   3.637   4.275   5.468 -0.1468 -0.3316 -1.6210
 9593TIP3    H250195   3.537   4.386   5.439  0.2049  0.3515 -0.3094
 9594TIP3   OH250196   3.804   0.055   1.496  0.2860  0.0045  0.3736
 9594TIP3    H150197   3.816  -0.039   1.510  1.6587  0.0798 -0.0850
 9594TIP3    H250198   3.778   0.089   1.581  2.3099 -0.4400  1.2427
 9595TIP3   OH250199   4.309   1.018   2.725  0.3430  0.4737 -0.7135
 9595TIP3    H150200   4.315   0.935   2.771 -2.1067 -0.3784 -1.7437
 9595TIP3    H250201   4.243   1.068   2.774  0.4208  1.0432 -1.1733
 9596TIP3   OH250202   4.531   2.889  14.667 -0.0672  0.0036  0.1506
 9596TIP3    H150203   4.443   2.852  14.659 -0.6551  0.7083  2.5722
 9596TIP3    H250204   4.540   2.948  14.592 -1.0259 -1.2341 -0.9809
 9597TIP3   OH250205   1.609   1.344  17.066  0.9843 -0.3207 -0.1709
 9597TIP3    H150206   1.613   1.386  17.152 -1.3956 -1.6123  0.6757
 9597TIP3    H250207   1.558   1.404  17.012 -1.2157 -1.3533  0.6370
 9598TIP3   OH250208   0.182   0.091  14.244 -0.2452  0.0964  0.3595
 9598TIP3    H150209   0.179   0.187  14.249 -2.5788  0.1076  0.2181
 9598TIP3    H250210   0.214   0.063  14.330 -0.9878  0.9945  0.9510
 9599TIP3   OH250211   5.719   0.367  14.537  0.2026  0.1222 -0.3236
 9599TIP3    H150212   5.698   0.458  14.514  0.3826  0.2796  0.1220
 9599TIP3    H250213   5.734   0.324  14.453 -0.3072  0.3998 -0.5581
 9600TIP3   OH250214   0.680   2.475  14.160 -0.2096 -0.5042 -0.8198
 9600TIP3    H150215   0.758   2.485  14.215 -0.1838  1.5020 -1.1568
 9600TIP3    H250216   0.626   2.411  14.207  2.0502 -2.7945 -1.1054
 9601TIP3   OH250217   4.159   1.218  10.960 -0.5155  0.6025  0.3208
 9601TIP3    H150218   4.249   1.231  10.989 -0.8913 -1.1202  2.5164
 9601TIP3    H250219   4.149   1.278  10.886  2.7602 -0.0082 -0.7703
 9602TIP3   OH250220   4.696   2.293   5.061  0.1732  0.2052 -0.0210
 9602TIP3    H150221   4.791   2.295   5.060  0.1709  1.2893  0.2362
 9602TIP3    H250222   4.671   2.259   4.975  0.7911 -2.4477  0.7659
 9603TIP3   OH250223   5.418   3.346   4.250  0.0466  0.1780 -0.0250
 9603TIP3    H150224   5.355   3.298   4.197  0.6409 -1.1125  0.3775
 9603TIP3    H250225   5.459   3.408   4.190 -0.2881 -0.2789 -0.7289
 9604TIP3   OH250226   2.250   6.101  16.042  0.0672 -0.2891 -0.0907
 9604TIP3    H150227   2.334   6.144  16.028 -1.0463  1.3519 -2.3820
 9604TIP3    H250228   2.193   6.136  15.973 -2.6325 -0.9986  1.6147
 9605TIP3   OH250229   0.124   0.199   4.191  0.0351 -0.2057 -0.1852
 9605TIP3    H150230   0.156   0.164   4.108  0.4395  1.1396 -0.6232
 9605TIP3    H250231   0.196   0.252   4.224 -1.2809  2.0337 -0.6723
 9606TIP3   OH250232   4.300   2.312   0.819  0.2188 -0.4276  0.2463
 9606TIP3    H150233   4.229   2.304   0.883 -2.4779 -0.3386 -2.5185
 9606TIP3    H250234   4.362   2.371   0.861 -1.6081  0.0045  2.6078
 9607TIP3   OH250235   3.786   1.475   5.368 -0.1520  0.0756 -0.4554
 9607TIP3    H150236   3.756   1.532   5.297  0.7327  0.3187 -0.6429
 9607TIP3    H250237   3.798   1.534   5.443 -0.6538 -0.1111 -0.2191
 9608TIP3   OH250238   6.449   5.402   0.957  0.5050 -0.0875 -0.0950
 9608TIP3    H150239   6.380   5.456   0.995 -0.7392 -0.0288 -2.3285
 9608TIP3    H250240   6.530   5.438   0.994 -0.5224  0.9657  1.2257
 9609TIP3   OH250241   2.098   1.005  14.066 -0.1316 -0.3572 -0.3167
 9609TIP3    H150242   2.109   1.096  14.039  0.9298 -0.4455 -0.2382
 9609TIP3    H250243   2.010   1.001  14.104  0.6358  1.2130  1.8429
 9610TIP3   OH250244   2.354   2.068   1.575  0.2916 -0.0120  0.2701
 9610TIP3    H150245   2.281   2.121   1.541  1.7114  0.5462 -2.1346
 9610TIP3    H250246   2.404   2.128   1.630 -0.0086  0.1372  0.3830
 9611TIP3   OH250247   3.581   3.119   4.999 -0.1222  0.9848  0.1731
 9611TIP3    H150248   3.560   3.026   4.996  0.8702  0.7574 -0.3349
 9611TIP3    H250249   3.519   3.159   4.938 -0.9137  0.7497  0.7999
 9612TIP3   OH250250   6.334   1.693  15.598  0.6429 -0.0488 -0.6427
 9612TIP3    H150251   6.325   1.644  15.680  1.1534  0.6148 -0.1740
 9612TIP3    H250252   6.314   1.784  15.623  2.4373  0.4459 -0.8758
 9613TIP3   OH250253   4.586   0.283   0.659 -0.2995  0.2589 -0.1286
 9613TIP3    H150254   4.611   0.369   0.625 -3.3239  0.3151 -2.6716
 9613TIP3    H250255   4.614   0.221   0.592 -1.0912 -0.3283  0.0605
 9614TIP3   OH250256   6.148   2.826  13.805 -0.3604 -0.1403 -0.3782
 9614TIP3    H150257   6.140   2.732  13.790 -2.3482 -0.1132  0.2070
 9614TIP3    H250258   6.193   2.859  13.727  3.3874 -1.9034  0.7624
 9615TIP3   OH250259   2.532   3.904   4.002  0.1450  0.7427  0.0715
 9615TIP3    H150260   2.579   3.886   3.921  1.5990 -0.7979  1.2073
 9615TIP3    H250261   2.597   3.894   4.071 -1.3275  0.7910  1.5320
 9616TIP3   OH250262   4.002   4.042  16.391  0.1821  0.0447 -0.5498
 9616TIP3    H150263   4.025   3.965  16.443  1.0546  1.5881  1.4578
 9616TIP3    H250264   4.086   4.080  16.366 -0.2367 -0.0366 -2.2078
 9617TIP3   OH250265   6.499   2.460  15.016  0.4644 -0.2108 -0.0030
 9617TIP3    H150266   6.414   2.503  15.024 -0.0072 -1.2254  0.7781
 9617TIP3    H250267   6.501   2.426  14.927  0.6201  0.9517 -0.4493
 9618TIP3   OH250268   0.060   3.821   4.021  0.9414  0.0081  0.4844
 9618TIP3    H150269   0.015   3.786   3.944  2.6531  0.4035 -0.7562
 9618TIP3    H250270   0.077   3.745   4.075  1.1497 -0.5168 -0.3026
 9619TIP3   OH250271   6.444   5.865   3.277 -0.1429  0.8817 -0.4523
 9619TIP3    H150272   6.442   5.946   3.327 -0.4297 -0.7356  2.3917
 9619TIP3    H250273   6.516   5.815   3.315 -0.5720 -0.5796 -1.4683
 9620TIP3   OH250274   3.488   3.525  15.846 -0.4722  0.1036  0.0862
 9620TIP3    H150275   3.493   3.516  15.751  2.3794  1.4219  0.0206
 9620TIP3    H250276   3.465   3.617  15.860 -1.9094 -0.3218  0.7194
 9621TIP3   OH250277   3.278   3.406  14.595 -0.2540  0.4724 -0.1976
 9621TIP3    H150278   3.339   3.377  14.528 -2.1302  0.8805 -2.2127
 9621TIP3    H250279   3.304   3.359  14.674  0.9199 -1.4782 -1.6529
 9622TIP3   OH250280   1.823   5.993  12.233 -0.4980 -0.0663  0.4158
 9622TIP3    H150281   1.871   6.060  12.185  0.0271 -0.6783  0.0645
 9622TIP3    H250282   1.887   5.923  12.247 -1.0413 -0.5085  0.7472
 9623TIP3   OH250283   2.204   0.672   0.141  0.0576 -0.1834 -0.3307
 9623TIP3    H150284   2.235   0.758   0.112  1.1754  0.2842  1.9904
 9623TIP3    H250285   2.130   0.690   0.198 -0.0606 -0.7981 -0.2787
 9624TIP3   OH250286   5.198   6.717  15.621 -0.6701 -0.0725 -0.2885
 9624TIP3    H150287   5.141   6.773  15.674  0.7808  1.2994 -0.1114
 9624TIP3    H250288   5.226   6.648  15.681 -1.9565 -0.6566 -0.3266
 9625TIP3   OH250289   2.088   5.195   0.634 -0.1640 -0.2241 -0.1193
 9625TIP3    H150290   2.175   5.208   0.672 -0.1650  0.2701 -0.2683
 9625TIP3    H250291   2.092   5.109   0.593  1.0760  0.7612 -2.2429
 9626TIP3   OH250292   0.658   6.416   2.058  0.8667  0.9353  0.5504
 9626TIP3    H150293   0.577   6.432   2.106  0.1795 -0.0474 -0.2327
 9626TIP3    H250294   0.672   6.321   2.065  0.8946  0.8063 -0.9400
 9627TIP3   OH250295   2.016   3.536   6.887 -0.1693 -0.3077  0.7538
 9627TIP3    H150296   1.948   3.582   6.837  0.1602 -0.4014  0.2096
 9627TIP3    H250297   2.037   3.459   6.833  0.4370 -0.2281  0.8692
 9628TIP3   OH250298   3.074   4.014  13.229 -0.2861  0.2906  0.1040
 9628TIP3    H150299   3.031   4.039  13.311 -0.6903  0.3989 -0.1376
 9628TIP3    H250300   3.099   4.098  13.189 -1.1420  0.3053 -0.4392
 9629TIP3   OH250301   2.217   3.222  12.342 -0.5411  0.2636 -0.2405
 9629TIP3    H150302   2.261   3.244  12.260  2.0963 -0.4744  0.8745
 9629TIP3    H250303   2.240   3.294  12.402 -1.6103  0.2948  0.1684
 9630TIP3   OH250304   0.282   1.719   5.852 -0.3581 -0.2812  0.2693
 9630TIP3    H150305   0.370   1.728   5.816 -0.4981 -0.9714 -0.2767
 9630TIP3    H250306   0.293   1.724   5.947  0.1759  0.3404  0.1824
 9631TIP3   OH250307   6.338   5.654   3.120  0.5965 -0.1535 -0.0503
 9631TIP3    H150308   6.340   5.739   3.166 -0.4846  0.5638 -1.2765
 9631TIP3    H250309   6.419   5.653   3.069  1.6106 -0.7803  1.4806
 9632TIP3   OH250310   3.626   6.122   2.746  0.3300 -0.1328 -0.6012
 9632TIP3    H150311   3.565   6.071   2.800  0.3969 -0.1219 -0.5148
 9632TIP3    H250312   3.578   6.202   2.725 -0.1280 -0.6415 -1.5267
 9633TIP3   OH250313   0.035   5.416   4.316 -0.6242 -0.3069 -0.7855
 9633TIP3    H150314  -0.056   5.432   4.290 -1.2573 -1.3197  0.6760
 9633TIP3    H250315   0.065   5.348   4.255 -1.6685 -1.7190  0.1790
 9634TIP3   OH250316   5.172   1.828   4.791 -0.1042  0.2870 -0.0895
 9634TIP3    H150317   5.178   1.742   4.832 -0.6225  1.0268  1.5795
 9634TIP3    H250318   5.263   1.858   4.786  0.1142 -0.4492 -0.9690
 9635TIP3   OH250319   2.817   0.168  13.423 -0.7925  0.5208 -0.5122
 9635TIP3    H150320   2.873   0.220  13.365  1.3105 -0.8087  0.2378
 9635TIP3    H250321   2.746   0.137  13.366 -0.9904  2.4897 -1.4167
 9636TIP3   OH250322   3.721   2.832  13.297 -0.4968 -0.4196  0.2365
 9636TIP3    H150323   3.694   2.800  13.210 -0.9407 -2.5147  1.0705
 9636TIP3    H250324   3.647   2.885  13.327 -0.6328 -0.2471 -0.3838
 9637TIP3   OH250325   6.584   0.767  12.351  0.0430 -0.7634 -0.3995
 9637TIP3    H150326   6.596   0.782  12.257 -0.5244  0.7825 -0.2501
 9637TIP3    H250327   6.489   0.766  12.363  0.0402  2.2585  0.5745
 9638TIP3   OH250328   6.464   3.680   5.134  0.4342  0.3767  0.3736
 9638TIP3    H150329   6.470   3.587   5.113  1.1709  0.4600  0.2035
 9638TIP3    H250330   6.443   3.682   5.228 -0.6515  0.0385  0.1589
 9639TIP3   OH250331   1.356   2.238  11.304  0.3402 -0.1989 -0.3484
 9639TIP3    H150332   1.369   2.205  11.215 -2.7429  1.5502 -1.6149
 9639TIP3    H250333   1.330   2.330  11.291  0.1861  0.2198  2.4035
 9640TIP3   OH250334   6.191   5.267  15.105  0.1181  0.5697 -0.5073
 9640TIP3    H150335   6.231   5.347  15.139  0.1095  0.0792  0.7205
 9640TIP3    H250336   6.097   5.281  15.116 -0.0672  1.4163 -2.6993
 9641TIP3   OH250337   6.306   3.067  16.171 -0.0108  0.2504  0.3377
 9641TIP3    H150338   6.280   3.049  16.261  1.4109  0.4306  0.8003
 9641TIP3    H250339   6.223   3.085  16.125 -1.0278 -2.2169  1.0327
 9642TIP3   OH250340   1.099   0.847   0.612 -0.6053  0.1482 -0.5487
 9642TIP3    H150341   1.006   0.827   0.618 -0.3900 -0.5973  0.4399
 9642TIP3    H250342   1.104   0.942   0.617 -1.2678  0.1569  0.0051
 9643TIP3   OH250343   4.255   4.453   0.686 -0.3085 -0.4241 -0.1103
 9643TIP3    H150344   4.172   4.406   0.687 -0.4840 -0.1284 -0.4454
 9643TIP3    H250345   4.231   4.545   0.669 -0.0886  0.0718  2.0192
 9644TIP3   OH250346   0.173   4.592  17.152 -0.0563 -0.1600 -0.9249
 9644TIP3    H150347   0.173   4.683  17.182  1.1205 -1.0091  2.0726
 9644TIP3    H250348   0.183   4.598  17.057  0.6807  2.8087 -0.7716
 9645TIP3   OH250349   6.693   4.745   4.089 -0.7632  0.2633 -0.4153
 9645TIP3    H150350   6.717   4.798   4.165 -0.2970  0.7824 -0.9116
 9645TIP3    H250351   6.630   4.799   4.041 -1.1664 -0.1233 -0.3202
 9646TIP3   OH250352   0.256   2.466   4.614 -0.0081 -0.1255 -0.0755
 9646TIP3    H150353   0.319   2.482   4.684 -0.3833  1.1519  0.0025
 9646TIP3    H250354   0.283   2.526   4.544 -0.4936 -0.3508 -0.4592
 9647TIP3   OH250355   0.399   3.739   3.140  0.8804  0.1714  0.5710
 9647TIP3    H150356   0.370   3.769   3.054 -0.6126 -1.2722  0.5029
 9647TIP3    H250357   0.371   3.807   3.201 -2.5228 -0.9268  0.4468
 9648TIP3   OH250358   3.002   0.135   4.045 -0.4678  0.3005 -0.5942
 9648TIP3    H150359   3.032   0.205   3.987  0.6696  0.9550  0.7348
 9648TIP3    H250360   3.081   0.085   4.066 -0.4011  1.3913  2.0942
 9649TIP3   OH250361   0.263   0.969  14.676 -0.3181 -0.2166  0.3840
 9649TIP3    H150362   0.252   1.054  14.634 -0.4111 -0.4031  0.0239
 9649TIP3    H250363   0.241   0.984  14.768 -1.2176 -0.0426  0.1487
 9650TIP3   OH250364   4.056   3.442   2.595  0.2558  0.1376  0.5996
 9650TIP3    H150365   4.093   3.469   2.510 -1.1684 -1.5471 -0.6296
 9650TIP3    H250366   3.966   3.475   2.593  0.4734  0.8792  1.8931
 9651TIP3   OH250367   4.928   5.603   0.152  0.1212 -0.0908  0.8171
 9651TIP3    H150368   4.970   5.671   0.100 -0.2182  0.1858  0.9005
 9651TIP3    H250369   4.988   5.528   0.147 -0.1035 -0.2224 -0.3222
 9652TIP3   OH250370   2.382   5.123   5.635  0.4866  0.4944 -0.0760
 9652TIP3    H150371   2.296   5.094   5.604 -0.8670  2.9655  1.0659
 9652TIP3    H250372   2.426   5.043   5.662 -1.1429 -0.9219 -1.3618
 9653TIP3   OH250373   4.073   3.060  15.481  0.3690  0.0804  0.3878
 9653TIP3    H150374   4.016   3.051  15.557  1.4985 -1.6497  1.0840
 9653TIP3    H250375   4.013   3.064  15.406 -0.7661  1.8982  1.3241
 9654TIP3   OH250376   0.413   2.480  13.560  0.0050 -0.9436  0.2666
 9654TIP3    H150377   0.426   2.561  13.510 -2.1885 -0.5189  0.2669
 9654TIP3    H250378   0.461   2.414  13.512  1.8380  0.3374  0.2508
 9655TIP3   OH250379   5.774   3.952   3.164 -0.2483 -0.3685 -0.7880
 9655TIP3    H150380   5.708   3.885   3.178  0.9420 -1.6170 -0.9741
 9655TIP3    H250381   5.783   3.995   3.250  0.3131 -1.7190 -0.1382
 9656TIP3   OH250382   6.177   6.655   5.602  0.7318  0.3489  0.5014
 9656TIP3    H150383   6.095   6.607   5.605  1.1840 -0.4915  0.0030
 9656TIP3    H250384   6.192   6.683   5.692  0.0222  0.3125  0.6375
 9657TIP3   OH250385   0.886   4.149  11.602  0.0924  0.1517 -0.4085
 9657TIP3    H150386   0.936   4.068  11.610  1.7126  1.2675  1.7187
 9657TIP3    H250387   0.922   4.192  11.524 -0.2526 -0.7850 -1.1031
 9658TIP3   OH250388   5.412   4.547  15.496 -0.7826 -0.4443 -0.5450
 9658TIP3    H150389   5.419   4.640  15.473 -1.4998 -0.0439  0.7605
 9658TIP3    H250390   5.478   4.504  15.441  0.2248  0.9583 -0.4825
 9659TIP3   OH250391   3.313   1.483   0.616 -0.0754 -0.3877  0.2471
 9659TIP3    H150392   3.360   1.529   0.547  0.2176 -2.2476 -0.8370
 9659TIP3    H250393   3.366   1.405   0.634 -1.2975 -1.0831  0.9834
 9660TIP3   OH250394   4.700   4.033   2.341 -0.2684  0.3752  0.1444
 9660TIP3    H150395   4.665   4.079   2.264  1.2329  0.9246 -0.2582
 9660TIP3    H250396   4.624   3.996   2.384 -1.0883 -0.6761 -2.0740
 9661TIP3   OH250397   0.585   2.375   6.732  0.8221  0.4193  0.0853
 9661TIP3    H150398   0.661   2.422   6.768  0.7970 -0.2821  1.0902
 9661TIP3    H250399   0.621   2.292   6.700  0.5434  0.2752  0.1470
 9662TIP3   OH250400   1.498   5.951   3.306  0.5062 -0.2935 -0.0524
 9662TIP3    H150401   1.579   5.981   3.347 -0.1743 -0.8439  1.8008
 9662TIP3    H250402   1.482   5.865   3.345 -2.0490  0.6855  1.2967
 9663TIP3   OH250403   2.720   0.388  12.663  0.0421  0.0617 -0.0105
 9663TIP3    H150404   2.732   0.428  12.749  1.8636  0.9186 -0.6154
 9663TIP3    H250405   2.641   0.336  12.672 -0.6822  1.3674  1.7179
 9664TIP3   OH250406   6.337   1.816  13.366 -0.1733 -0.5708  0.4599
 9664TIP3    H150407   6.366   1.907  13.357 -0.7615 -0.4187  0.0554
 9664TIP3    H250408   6.404   1.765  13.321 -1.4959 -0.0749 -2.2006
 9665TIP3   OH250409   0.691   2.317   3.649  0.4856  0.3170  0.0424
 9665TIP3    H150410   0.672   2.396   3.598 -0.8325  0.9100  1.3736
 9665TIP3    H250411   0.754   2.346   3.715 -0.9242  0.6283  1.3185
 9666TIP3   OH250412   4.483   1.155   4.911 -0.1476  0.1403 -0.3391
 9666TIP3    H150413   4.486   1.101   4.990 -0.7592  0.9153  0.2225
 9666TIP3    H250414   4.396   1.194   4.911  0.8259  2.4949  0.2065
 9667TIP3   OH250415   5.870   6.471   6.296  0.0852  0.5804  0.0555
 9667TIP3    H150416   5.813   6.541   6.263 -0.5107  0.5729  1.0375
 9667TIP3    H250417   5.811   6.399   6.315  0.8624 -0.9418 -2.6475
 9668TIP3   OH250418   1.084   2.411  17.067  0.1111 -0.1593  0.0705
 9668TIP3    H150419   1.018   2.430  17.001  1.6492  1.5061 -1.0900
 9668TIP3    H250420   1.063   2.470  17.139 -0.0923 -0.1460  0.0003
 9669TIP3   OH250421   2.354   5.678  17.342  0.2383  0.2129 -0.1401
 9669TIP3    H150422   2.341   5.683  17.436 -1.9837  0.5448 -0.4306
 9669TIP3    H250423   2.448   5.661  17.332  0.5598  0.4272  2.1005
 9670TIP3   OH250424   3.866   5.738  14.557 -0.3149 -0.0774  0.7500
 9670TIP3    H150425   3.828   5.693  14.634 -0.0572 -0.1361  0.8439
 9670TIP3    H250426   3.901   5.819  14.592 -2.2773  1.0203  0.3078
 9671TIP3   OH250427   3.010   4.918  11.585  0.3043 -0.0098  0.4467
 9671TIP3    H150428   3.104   4.937  11.582  0.3688 -0.4724 -0.6980
 9671TIP3    H250429   2.985   4.938  11.675  1.4244  0.4740  0.6669
 9672TIP3   OH250430   5.965   6.446  16.506 -0.1586 -0.3751  0.0972
 9672TIP3    H150431   5.988   6.442  16.413 -3.0405 -2.8985 -0.6936
 9672TIP3    H250432   5.957   6.539  16.524  1.5163  0.2303 -1.8553
 9673TIP3   OH250433   2.650   2.046  14.216  0.1610  0.0354  0.1188
 9673TIP3    H150434   2.680   2.035  14.306 -1.4109 -1.4632  0.5078
 9673TIP3    H250435   2.556   2.060  14.224 -0.0034 -0.1013 -1.3085
 9674TIP3   OH250436   3.791   6.193   3.413 -0.5049  0.4913  0.4045
 9674TIP3    H150437   3.736   6.251   3.465 -1.1736 -1.1548  1.6220
 9674TIP3    H250438   3.761   6.105   3.435  1.5103 -0.3983 -0.1709
 9675TIP3   OH250439   5.828   6.666  16.576 -0.5193  0.3780  0.5287
 9675TIP3    H150440   5.876   6.746  16.598 -0.0207  0.3748 -0.5158
 9675TIP3    H250441   5.764   6.657  16.647  1.9387 -0.4542  2.8106
 9676TIP3   OH250442   3.381   5.913   3.358 -0.0137  0.5027 -0.1594
 9676TIP3    H150443   3.454   5.955   3.312 -1.1037  3.0100  0.2426
 9676TIP3    H250444   3.350   5.846   3.298  0.5173  1.6406 -1.7658
 9677TIP3   OH250445   4.493   5.601   0.864  0.5274  0.1299  0.1702
 9677TIP3    H150446   4.490   5.548   0.944  1.2897 -0.2742 -0.0517
 9677TIP3    H250447   4.551   5.674   0.886  0.1471  0.4171  0.2164
 9678TIP3   OH250448   5.850   0.373  11.044 -0.1455  0.1884 -0.4008
 9678TIP3    H150449   5.787   0.301  11.039 -0.6129  0.6462 -1.4180
 9678TIP3    H250450   5.826   0.421  11.124  0.3925 -0.9574  0.4800
 9679TIP3   OH250451   2.277   4.224   5.584  0.2803 -0.1134  0.6148
 9679TIP3    H150452   2.270   4.215   5.488 -3.1580 -0.7519  0.7747
 9679TIP3    H250453   2.318   4.142   5.613  2.0719  0.4092 -0.3052
 9680TIP3   OH250454   4.526   2.156  14.081 -0.1978 -0.0242  0.1630
 9680TIP3    H150455   4.477   2.090  14.032  0.9717 -0.3898 -0.5573
 9680TIP3    H250456   4.613   2.117  14.093  0.1066  0.8468  0.8911
 9681TIP3   OH250457   6.479   0.672   4.663 -0.4602 -0.3025 -0.7958
 9681TIP3    H150458   6.528   0.704   4.587 -0.2307 -1.0346 -0.9629
 9681TIP3    H250459   6.543   0.670   4.734 -1.2878  3.0550  0.2072
 9682TIP3   OH250460   5.488   3.067  11.194  0.2896 -0.1347  0.1467
 9682TIP3    H150461   5.505   3.142  11.137  1.7047 -1.5039 -1.3249
 9682TIP3    H250462   5.500   2.990  11.138  0.2448 -1.5132  1.9237
 9683TIP3   OH250463   4.222   3.848   1.685  0.0325  0.2304  0.1778
 9683TIP3    H150464   4.137   3.887   1.704 -0.4136 -0.0039 -1.2028
 9683TIP3    H250465   4.285   3.900   1.736 -0.7491  1.5079 -0.1155
 9684TIP3   OH250466   4.717   1.592  15.447 -0.5018 -0.5259  0.0413
 9684TIP3    H150467   4.631   1.569  15.410 -0.6274  1.5969 -1.1502
 9684TIP3    H250468   4.696   1.639  15.528 -0.4608 -0.3241 -0.0641
 9685TIP3   OH250469   5.699   2.979   6.344 -0.9054 -0.3094 -0.4248
 9685TIP3    H150470   5.707   2.901   6.289 -1.7790 -1.9998  1.7062
 9685TIP3    H250471   5.658   2.947   6.425  0.7809  1.9327  1.4276
 9686TIP3   OH250472   5.759   3.390   1.769 -0.6052 -0.1352  0.1806
 9686TIP3    H150473   5.756   3.316   1.830 -0.2412 -1.4604 -1.3290
 9686TIP3    H250474   5.670   3.398   1.737 -0.3779 -0.9048 -0.7168
 9687TIP3   OH250475   2.910   4.324  15.865 -0.1704  0.5823 -0.1761
 9687TIP3    H150476   2.946   4.280  15.942  1.7259 -1.1014 -1.9052
 9687TIP3    H250477   2.823   4.285  15.854  0.5486 -1.0938 -0.2806
 9688TIP3   OH250478   1.420   5.998   4.602 -0.4319  0.2048 -0.1189
 9688TIP3    H150479   1.502   5.956   4.577 -1.1451 -1.3090  0.0087
 9688TIP3    H250480   1.355   5.958   4.545 -0.9964  2.0032 -0.8257
 9689TIP3   OH250481   5.665   2.767  11.406 -0.2458 -0.1916 -0.4262
 9689TIP3    H150482   5.699   2.770  11.316 -1.2005  0.9038 -0.7663
 9689TIP3    H250483   5.580   2.810  11.401 -0.2599 -0.0109  1.0460
 9690TIP3   OH250484   0.374   0.548  12.975 -0.0404  0.4424  0.0374
 9690TIP3    H150485   0.410   0.624  13.022 -1.8396  1.4989 -0.2016
 9690TIP3    H250486   0.340   0.585  12.893 -0.2618 -0.7635 -0.4282
 9691TIP3   OH250487   4.131   0.781   5.218  0.8591 -1.0077  0.0046
 9691TIP3    H150488   4.114   0.868   5.253 -0.6358 -1.4536  0.4474
 9691TIP3    H250489   4.198   0.795   5.152  0.3875  0.5308 -0.1898
 9692TIP3   OH250490   4.924   2.525   0.496  1.0104 -0.4120  0.6902
 9692TIP3    H150491   4.981   2.471   0.550  1.1799 -0.0464  0.8842
 9692TIP3    H250492   4.984   2.582   0.448  0.8139 -0.0943  0.8168
 9693TIP3   OH250493   3.142   5.565   0.329 -0.4698 -0.6454  0.1144
 9693TIP3    H150494   3.206   5.509   0.373  0.5162 -1.6621 -2.4089
 9693TIP3    H250495   3.166   5.560   0.236 -2.3831  1.3858 -0.5749
 9694TIP3   OH250496   5.608   4.195   1.787  0.5255  0.2639  0.2186
 9694TIP3    H150497   5.584   4.107   1.817  1.9069 -0.5541 -0.9055
 9694TIP3    H250498   5.699   4.206   1.816 -0.4064  2.4284  2.6062
 9695TIP3   OH250499   0.105   2.119   5.129  0.2004  0.5358 -0.4438
 9695TIP3    H150500   0.140   2.079   5.209  0.8874  3.6566  0.9548
 9695TIP3    H250501   0.044   2.053   5.095 -0.4135 -0.8262  2.8244
 9696TIP3   OH250502   3.758   1.478  10.676  0.5064  0.3726 -0.0642
 9696TIP3    H150503   3.671   1.511  10.651  1.1825  0.5865 -2.4110
 9696TIP3    H250504   3.798   1.549  10.725 -0.9236 -0.0567  1.8266
 9697TIP3   OH250505   1.895   5.253  16.484 -0.3119 -0.3764 -0.2864
 9697TIP3    H150506   1.988   5.267  16.467 -0.1396 -1.3855 -0.2560
 9697TIP3    H250507   1.854   5.253  16.397 -0.6009  1.9555 -0.2063
 9698TIP3   OH250508   4.663   1.143   2.315 -0.2662  0.0187  0.0481
 9698TIP3    H150509   4.733   1.078   2.312  0.4518  0.7930 -0.7196
 9698TIP3    H250510   4.609   1.117   2.389  0.7899 -0.6637  0.6092
 9699TIP3   OH250511   2.961   4.726   5.217 -0.8023 -0.1865  0.8481
 9699TIP3    H150512   3.021   4.684   5.279  0.3670 -1.5449 -1.0808
 9699TIP3    H250513   2.882   4.671   5.220 -0.0594 -1.3751 -0.1347
 9700TIP3   OH250514   0.651   4.150  17.320 -0.1411 -0.3567 -0.8630
 9700TIP3    H150515   0.563   4.136  17.355  0.7083 -1.9368  0.8190
 9700TIP3    H250516   0.698   4.068  17.338  1.7572  0.5205 -1.4739
 9701TIP3   OH250517   3.652   1.220  11.693  0.8666  0.1183 -0.6047
 9701TIP3    H150518   3.631   1.187  11.606  0.2069 -0.7632 -0.1209
 9701TIP3    H250519   3.585   1.183  11.750  2.0752 -0.4330  0.5125
 9702TIP3   OH250520   1.619   0.588   2.903  0.5390  0.3168 -0.4335
 9702TIP3    H150521   1.536   0.596   2.855  0.4050 -0.0805 -0.2759
 9702TIP3    H250522   1.640   0.495   2.898  0.4887  0.2602  0.3377
 9703TIP3   OH250523   1.988   2.243  11.996 -0.0030 -0.4145  0.5801
 9703TIP3    H150524   1.963   2.186  12.068  0.3499 -0.0868  0.9673
 9703TIP3    H250525   2.058   2.197  11.951  0.3273 -0.2565  0.9325
 9704TIP3   OH250526   3.428   3.333   5.174 -0.3036  0.5676  0.3008
 9704TIP3    H150527   3.488   3.284   5.118  0.0753  0.6611  0.6215
 9704TIP3    H250528   3.467   3.329   5.262 -0.7840  0.5947  0.5200
 9705TIP3   OH250529   4.646   4.283  17.397  0.0032 -0.2717  0.0794
 9705TIP3    H150530   4.643   4.329  17.481  1.0361  0.1384 -0.0990
 9705TIP3    H250531   4.624   4.350  17.333 -1.7161 -0.7902  0.0622
 9706TIP3   OH250532   6.220   5.510  14.874  0.1002 -0.5285  0.0615
 9706TIP3    H150533   6.187   5.529  14.962  0.5440  0.8037 -0.0382
 9706TIP3    H250534   6.160   5.557  14.815 -0.3184 -1.5756 -0.3836
 9707TIP3   OH250535   3.498   4.714   5.300 -0.4392  0.0805  0.3758
 9707TIP3    H150536   3.559   4.776   5.340 -0.6199 -0.4179  1.4513
 9707TIP3    H250537   3.450   4.766   5.235 -1.3170  1.3491  1.9714
 9708TIP3   OH250538   5.776   6.752   5.384 -0.2053  0.0319 -1.0894
 9708TIP3    H150539   5.729   6.771   5.466 -1.0615 -0.1574 -1.5219
 9708TIP3    H250540   5.844   6.819   5.379 -0.4757  0.3648 -0.4837
 9709TIP3   OH250541   2.384   0.246   1.772  0.1144  0.0497  0.4032
 9709TIP3    H150542   2.418   0.250   1.683  0.7311 -1.1705  0.5621
 9709TIP3    H250543   2.289   0.244   1.762  0.0860  1.8012 -0.1213
 9710TIP3   OH250544   1.135   4.657   1.557  0.5077 -0.2766 -0.2034
 9710TIP3    H150545   1.192   4.734   1.563  0.3888 -0.1576 -0.5397
 9710TIP3    H250546   1.058   4.680   1.608 -0.7968  0.9940 -2.5898
 9711TIP3   OH250547   0.751   0.083  12.512 -0.4489 -0.2481 -0.2712
 9711TIP3    H150548   0.825   0.138  12.536 -1.1093 -0.0325  1.4038
 9711TIP3    H250549   0.759   0.006  12.568 -0.6833 -0.9208 -1.1278
 9712TIP3   OH250550   3.516   2.308  16.242  0.4112 -0.5436 -0.7547
 9712TIP3    H150551   3.525   2.319  16.147 -1.0983 -0.9931 -0.9746
 9712TIP3    H250552   3.423   2.290  16.255  0.5395 -0.1315  0.8600
 9713TIP3   OH250553   5.644   5.275   1.936 -0.5245  0.3165  0.5961
 9713TIP3    H150554   5.594   5.203   1.975  0.1353 -0.6613 -0.2989
 9713TIP3    H250555   5.689   5.315   2.009  1.4316 -2.0690  0.8471
 9714TIP3   OH250556   5.745   6.256   1.625  0.2363  0.1560  0.1197
 9714TIP3    H150557   5.772   6.344   1.649  1.0777  0.0007 -0.2232
 9714TIP3    H250558   5.814   6.199   1.659 -0.5205 -0.4274  0.7422
 9715TIP3   OH250559   0.613   3.302  17.176 -0.3966  0.1086  0.0715
 9715TIP3    H150560   0.586   3.295  17.085 -0.0220  0.4800 -0.0734
 9715TIP3    H250561   0.568   3.230  17.220 -0.3799 -0.2282 -0.4510
 9716TIP3   OH250562   2.117   2.879   0.835  0.0909  0.1816  0.5616
 9716TIP3    H150563   2.026   2.906   0.823 -0.5007 -1.4504  1.0633
 9716TIP3    H250564   2.131   2.885   0.930  0.0360 -0.8805  0.6518
 9717TIP3   OH250565   0.036   6.224   3.818 -0.5437 -0.3188 -0.0168
 9717TIP3    H150566  -0.037   6.226   3.757 -0.1787  1.3033 -0.4463
 9717TIP3    H250567   0.007   6.278   3.892 -0.1249 -0.4145  0.2228
 9718TIP3   OH250568   3.401   5.689   1.779 -0.4042 -0.0901  0.7005
 9718TIP3    H150569   3.440   5.752   1.841 -1.6437  0.6663  0.7335
 9718TIP3    H250570   3.379   5.741   1.702  0.0505 -0.8134  0.0647
 9719TIP3   OH250571   6.665   3.112   2.396 -0.4305  0.1201  0.1003
 9719TIP3    H150572   6.614   3.193   2.395 -0.0300  0.3748  0.0074
 9719TIP3    H250573   6.606   3.046   2.434 -1.0934  0.2335 -0.6991
 9720TIP3   OH250574   1.840   2.971   1.141 -0.3491 -0.3945  0.0137
 9720TIP3    H150575   1.832   3.065   1.154  1.6138  0.2771 -2.6443
 9720TIP3    H250576   1.911   2.945   1.200 -0.9990 -0.2925  0.8681
 9721TIP3   OH250577   1.605   4.079   5.674  0.7903 -0.0716  0.1346
 9721TIP3    H150578   1.686   4.100   5.627  0.3633 -0.8052 -0.9605
 9721TIP3    H250579   1.629   4.007   5.732  1.0773  0.1597  0.3068
 9722TIP3   OH250580   5.880   4.837   4.446 -0.3352 -0.1042 -0.1350
 9722TIP3    H150581   5.800   4.856   4.495 -1.0825 -0.9742 -0.9514
 9722TIP3    H250582   5.946   4.819   4.513 -0.6299  1.2833  0.5659
 9723TIP3   OH250583   4.971   0.349   5.300  0.1083  0.2122  0.0199
 9723TIP3    H150584   4.969   0.320   5.209 -0.4409  0.7498 -0.1497
 9723TIP3    H250585   4.895   0.407   5.308 -0.2003 -0.2920  0.9749
 9724TIP3   OH250586   2.397   0.054  13.147  0.1671 -0.1628  0.3313
 9724TIP3    H150587   2.363  -0.006  13.081 -0.2339 -1.2745  1.4942
 9724TIP3    H250588   2.323   0.111  13.167  0.4120  0.4434 -0.4536
 9725TIP3   OH250589   4.486   4.624  11.709 -0.0645  0.4175 -0.1388
 9725TIP3    H150590   4.549   4.557  11.681  0.3002  0.9055 -0.5232
 9725TIP3    H250591   4.522   4.706  11.674 -1.5698  0.5542 -1.5086
 9726TIP3   OH250592   0.238   1.429   3.142  0.2368 -0.4703  0.0610
 9726TIP3    H150593   0.166   1.424   3.205  0.6891  0.0694  0.6429
 9726TIP3    H250594   0.308   1.473   3.190  0.3876  0.5191 -1.0179
 9727TIP3   OH250595   5.668   2.909  12.385  0.6484  0.1722  0.0569
 9727TIP3    H150596   5.650   3.001  12.362 -1.2489  0.0716  1.0116
 9727TIP3    H250597   5.613   2.858  12.326  2.1529 -0.4190 -0.8923
 9728TIP3   OH250598   1.999   5.120  15.833  0.1114 -1.1207  0.2154
 9728TIP3    H150599   2.046   5.097  15.753 -0.3253 -1.2327 -0.0119
 9728TIP3    H250600   2.057   5.181  15.878  0.7911 -1.8180  0.2875
 9729TIP3   OH250601   5.899   1.491  17.177  0.2709 -0.0068  0.2678
 9729TIP3    H150602   5.887   1.584  17.198 -0.7236  0.4966 -2.1747
 9729TIP3    H250603   5.993   1.477  17.186  0.7630  1.8340 -1.2779
 9730TIP3   OH250604   3.569   0.435  14.171  0.7302 -0.0546 -0.1843
 9730TIP3    H150605   3.617   0.518  14.159  0.1056  1.0598  3.6344
 9730TIP3    H250606   3.622   0.387  14.235 -1.3487 -0.3807  1.3771
 9731TIP3   OH250607   4.259   5.860   2.220  0.1215  0.4409  0.6699
 9731TIP3    H150608   4.273   5.892   2.309  1.4429 -1.1055  1.0754
 9731TIP3    H250609   4.203   5.783   2.231 -0.9513  1.1014 -0.0150
 9732TIP3   OH250610   3.112   4.873   2.601  0.5380 -0.7581  0.6197
 9732TIP3    H150611   3.127   4.885   2.695 -0.0185 -1.3251  0.7870
 9732TIP3    H250612   3.190   4.828   2.570  1.4754  0.8704  0.4783
 9733TIP3   OH250613   1.632   4.749  14.030  0.3712  0.3048 -0.4704
 9733TIP3    H150614   1.606   4.764  13.939  1.1846 -1.2179 -0.9879
 9733TIP3    H250615   1.577   4.809  14.081 -1.0831  0.1992 -1.8432
 9734TIP3   OH250616   1.379   6.374  14.417  0.3217 -0.0729 -0.1328
 9734TIP3    H150617   1.464   6.393  14.378 -1.0051  1.9640 -2.3256
 9734TIP3    H250618   1.345   6.460  14.442 -0.6404 -0.9619  1.7785
 9735TIP3   OH250619   0.606   3.160  13.267 -0.1886  0.5729 -0.1392
 9735TIP3    H150620   0.528   3.161  13.212  1.0376 -0.8391 -2.0489
 9735TIP3    H250621   0.596   3.235  13.325 -2.3241  1.1941 -1.2069
 9736TIP3   OH250622   3.594   6.598  13.979  0.2830 -0.2611  0.1694
 9736TIP3    H150623   3.510   6.554  13.979 -0.5650  1.2386  1.7010
 9736TIP3    H250624   3.629   6.583  14.067  0.6278  0.8583  0.2394
 9737TIP3   OH250625   0.370   5.738  14.890  0.4046  0.0943  0.3752
 9737TIP3    H150626   0.372   5.703  14.979  2.4537  1.4612  0.9265
 9737TIP3    H250627   0.438   5.806  14.889 -0.1640  0.7182 -1.9899
 9738TIP3   OH250628   0.238   4.633   4.649  0.1410  0.6020  0.2048
 9738TIP3    H150629   0.232   4.608   4.741  1.3672  0.8917  0.3859
 9738TIP3    H250630   0.290   4.562   4.609 -0.9497  0.1310 -0.4140
 9739TIP3   OH250631   3.904   3.948  14.462 -0.4469 -0.0512  0.0160
 9739TIP3    H150632   3.902   3.876  14.399 -0.3329  0.3888 -0.4955
 9739TIP3    H250633   3.819   3.990  14.453 -0.6598 -0.3392  0.5853
 9740TIP3   OH250634   0.070   2.247   0.740 -0.0083  0.2179  0.0311
 9740TIP3    H150635   0.054   2.252   0.645 -1.4798 -0.4855  0.2116
 9740TIP3    H250636   0.111   2.161   0.753 -1.6277 -0.5682  0.2205
 9741TIP3   OH250637   0.487   2.598   3.485 -0.1615 -0.2388  0.2728
 9741TIP3    H150638   0.463   2.652   3.410 -1.1269  0.5251  1.0945
 9741TIP3    H250639   0.500   2.510   3.449 -0.3733  0.1621 -0.8083
 9742TIP3   OH250640   5.038   4.685  13.703 -0.1308 -0.0996  0.0513
 9742TIP3    H150641   5.133   4.678  13.708 -0.1434 -0.3731 -0.0662
 9742TIP3    H250642   5.018   4.768  13.746  0.1799  0.0934 -0.1715
 9743TIP3   OH250643   2.061   3.410  15.647  0.1486 -0.5327  0.3679
 9743TIP3    H150644   2.078   3.493  15.691  0.2902 -0.6631  0.5642
 9743TIP3    H250645   1.970   3.389  15.669  0.0772 -0.3719  0.2219
 9744TIP3   OH250646   1.332   1.304  17.225  0.0168 -0.5995 -0.7257
 9744TIP3    H150647   1.248   1.279  17.188  0.2817 -0.0918 -1.6952
 9744TIP3    H250648   1.325   1.398  17.240 -0.0264 -0.7619  0.3997
 9745TIP3   OH250649   1.350   2.826   4.164  0.1510 -0.2912  0.1704
 9745TIP3    H150650   1.263   2.866   4.168 -0.5543 -1.8417  1.1232
 9745TIP3    H250651   1.367   2.815   4.071 -1.3490 -1.3322 -0.0103
 9746TIP3   OH250652   5.167   2.074   3.230  0.4661  0.2930 -0.0070
 9746TIP3    H150653   5.097   2.107   3.174 -2.4829 -1.6729  2.2362
 9746TIP3    H250654   5.146   1.981   3.242  2.9423 -0.1440  1.5690
 9747TIP3   OH250655   4.991   1.173  15.067  0.3175 -0.2156  0.3208
 9747TIP3    H150656   5.076   1.156  15.027 -0.5945  1.0310 -2.4060
 9747TIP3    H250657   5.011   1.211  15.152  2.5844  1.5114 -0.8777
 9748TIP3   OH250658   6.746   6.144  13.760 -0.7762  0.3538 -0.2564
 9748TIP3    H150659   6.667   6.094  13.782 -1.3116  1.2318 -0.1214
 9748TIP3    H250660   6.800   6.138  13.839 -1.4261  1.0809  0.2641
 9749TIP3   OH250661   6.664   2.757  16.203  0.6641  0.1468 -0.3012
 9749TIP3    H150662   6.675   2.686  16.140 -0.3690 -1.2950  1.0706
 9749TIP3    H250663   6.575   2.788  16.189  1.0600  1.1413 -0.7943
 9750TIP3   OH250664   4.685   4.418   1.384  0.2892  0.0905  0.7552
 9750TIP3    H150665   4.595   4.396   1.360 -0.3446  0.8065  2.3544
 9750TIP3    H250666   4.683   4.511   1.405  1.0698 -0.1732  2.1656
 9751TIP3   OH250667   4.832   6.657  16.032  0.0195  0.2948 -0.1410
 9751TIP3    H150668   4.829   6.751  16.013 -1.4758  0.2974  0.0431
 9751TIP3    H250669   4.795   6.648  16.119  0.8293 -0.4104  0.1495
 9752TIP3   OH250670   4.348   4.882   2.753  0.0807  0.0351  0.4390
 9752TIP3    H150671   4.262   4.914   2.725 -0.1514 -1.2099 -0.3346
 9752TIP3    H250672   4.409   4.923   2.692 -0.2562 -1.2505 -0.8220
 9753TIP3   OH250673   2.168   2.550   6.554 -0.4777  0.4064  1.1388
 9753TIP3    H150674   2.124   2.628   6.586  0.1891  1.2596  0.0610
 9753TIP3    H250675   2.254   2.552   6.597  0.2472  1.3095 -0.2999
 9754TIP3   OH250676   2.521   1.908   2.948  0.0130 -0.4415  0.3340
 9754TIP3    H150677   2.570   1.827   2.966  0.0929 -0.3465  0.5410
 9754TIP3    H250678   2.588   1.970   2.918 -0.0583 -0.4726  0.1067
 9755TIP3   OH250679   1.764   4.377   2.709 -0.4482  0.0010  0.1811
 9755TIP3    H150680   1.741   4.468   2.724  1.3474  0.1899  2.1911
 9755TIP3    H250681   1.727   4.330   2.784  0.7382 -0.5164  0.4616
 9756TIP3   OH250682   1.017   2.661   4.492 -0.5165  0.0939  0.2274
 9756TIP3    H150683   1.031   2.709   4.574  0.4427 -1.9595  1.3481
 9756TIP3    H250684   1.102   2.665   4.447 -0.3033 -0.8593  0.5280
 9757TIP3   OH250685   2.745   4.247   3.925  0.1281 -0.2523 -0.3781
 9757TIP3    H150686   2.797   4.299   3.986  0.1604 -0.4622 -0.2274
 9757TIP3    H250687   2.686   4.310   3.884 -0.2189 -0.1862  0.2099
 9758TIP3   OH250688   4.755   4.870   4.529 -0.7820 -0.0054  0.0028
 9758TIP3    H150689   4.827   4.921   4.567 -1.0107  0.6262 -0.3828
 9758TIP3    H250690   4.761   4.887   4.435 -2.0730  0.9504  0.0538
 9759TIP3   OH250691   2.764   6.307  12.599 -0.3736 -0.0373  0.5714
 9759TIP3    H150692   2.731   6.342  12.681  0.0945  0.2572  0.6329
 9759TIP3    H250693   2.831   6.369  12.570  1.0049 -1.2418  1.0570
 9760TIP3   OH250694   1.389   3.701   5.848 -0.7903 -0.3165 -0.1438
 9760TIP3    H150695   1.461   3.641   5.866 -1.1730 -0.9151 -0.5647
 9760TIP3    H250696   1.381   3.701   5.752 -1.9526 -0.9860 -0.0627
 9761TIP3   OH250697   3.858   6.609  12.472 -0.1115  0.5000 -0.1178
 9761TIP3    H150698   3.827   6.611  12.382 -1.6610 -0.3188  0.3617
 9761TIP3    H250699   3.910   6.530  12.478 -0.7783  0.0525 -0.0806
 9762TIP3   OH250700   3.972   2.240  14.235 -0.1235  0.2329 -0.1697
 9762TIP3    H150701   3.968   2.146  14.218 -0.6873  0.1752  0.2201
 9762TIP3    H250702   4.054   2.269  14.196  0.4099 -0.5521  0.3461
 9763TIP3   OH250703   0.992   3.512   0.855 -0.2498 -0.4389  0.4672
 9763TIP3    H150704   1.043   3.431   0.846 -1.2141 -0.9067 -1.2823
 9763TIP3    H250705   0.973   3.518   0.948  2.2903 -0.6570  1.0710
 9764TIP3   OH250706   1.147   4.677  11.589  0.1346  0.1148 -0.1310
 9764TIP3    H150707   1.070   4.628  11.559 -0.2547  0.4310  0.3553
 9764TIP3    H250708   1.118   4.723  11.667  0.7641  0.3984 -0.0588
 9765TIP3   OH250709   5.523   2.602   2.232  0.6613 -0.3709  0.4731
 9765TIP3    H150710   5.519   2.514   2.195  0.8773 -0.1488 -0.0877
 9765TIP3    H250711   5.434   2.636   2.224  0.3967 -0.8182  1.4024
 9766TIP3   OH250712   1.626   5.406  16.862  0.1612  0.1720 -0.0840
 9766TIP3    H150713   1.678   5.399  16.781 -1.4912  0.7068 -1.2503
 9766TIP3    H250714   1.544   5.446  16.834 -0.1715  1.1044  2.0226
 9767TIP3   OH250715   6.734   4.653   3.427  0.3805  0.1205 -0.4157
 9767TIP3    H150716   6.747   4.733   3.479  0.2290  0.8105 -1.4187
 9767TIP3    H250717   6.714   4.684   3.339  0.2028 -1.0306 -0.8004
 9768TIP3   OH250718   4.038   6.737   6.507  0.7546  0.1047 -0.2149
 9768TIP3    H150719   4.059   6.802   6.439  0.8427 -0.6663 -0.9432
 9768TIP3    H250720   3.944   6.723   6.496  0.0167  2.4241  2.0384
 9769TIP3   OH250721   5.889   2.795  12.514  0.1564 -0.0549  0.2000
 9769TIP3    H150722   5.807   2.814  12.468  1.0102  0.2937 -1.2350
 9769TIP3    H250723   5.898   2.867  12.576  0.2834  0.9270 -0.9237
 9770TIP3   OH250724   1.516   6.614   3.602 -0.0988  0.0777 -0.1012
 9770TIP3    H150725   1.563   6.615   3.685  0.7075 -0.7908 -0.5299
 9770TIP3    H250726   1.502   6.521   3.584  0.1308  0.2429 -1.1556
 9771TIP3   OH250727   0.309   1.108  16.537 -0.3339  0.2778 -0.1624
 9771TIP3    H150728   0.319   1.124  16.443  1.2515  1.0362  0.0915
 9771TIP3    H250729   0.214   1.107  16.551 -0.6177 -0.4454 -1.8482
 9772TIP3   OH250730   1.943   3.344   1.628 -0.0842  0.2987 -0.6484
 9772TIP3    H150731   2.009   3.400   1.670  0.9755 -1.2202 -0.1776
 9772TIP3    H250732   1.955   3.360   1.534  1.0713 -0.0519 -0.5775
 9773TIP3   OH250733   1.674   6.145  15.487  0.0203 -0.0591 -0.4816
 9773TIP3    H150734   1.747   6.098  15.446  0.2233 -1.2313  1.1275
 9773TIP3    H250735   1.714   6.224  15.523  0.3040 -0.2208 -0.4354
 9774TIP3   OH250736   3.855   5.235  12.930 -0.1757  0.6890 -0.8351
 9774TIP3    H150737   3.885   5.169  12.993 -0.7158  1.6258  0.4360
 9774TIP3    H250738   3.857   5.189  12.846  1.9602 -0.1685 -0.3886
 9775TIP3   OH250739   0.020   3.967  14.291 -0.0779 -0.9468  0.6884
 9775TIP3    H150740  -0.021   3.896  14.340 -1.4651 -1.2254 -0.7654
 9775TIP3    H250741  -0.023   3.964  14.205 -0.3741  1.7899  0.6486
 9776TIP3   OH250742   4.168   0.240   2.868  0.0111  0.4481  0.0600
 9776TIP3    H150743   4.220   0.282   2.936 -0.1017  0.6479  0.0268
 9776TIP3    H250744   4.103   0.188   2.915  1.2807 -1.1740  0.1172
 9777TIP3   OH250745   3.609   4.147  15.137 -0.4549 -0.1457 -0.1392
 9777TIP3    H150746   3.608   4.243  15.135 -1.4238 -0.1177  0.9173
 9777TIP3    H250747   3.542   4.121  15.074 -0.4454 -0.1245 -0.1578
 9778TIP3   OH250748   2.706   3.464   0.179  0.3899  0.1182 -0.0392
 9778TIP3    H150749   2.717   3.425   0.092  0.0044 -1.5295  0.6017
 9778TIP3    H250750   2.743   3.399   0.239  0.6633  1.2313  1.0413
 9779TIP3   OH250751   3.101   3.921   0.963  0.3701  0.0628 -0.3482
 9779TIP3    H150752   3.110   3.919   0.867 -0.8959  1.4879 -0.5419
 9779TIP3    H250753   3.190   3.909   0.995  0.6473 -1.8593 -1.6438
 9780TIP3   OH250754   0.966   2.304  13.013 -0.5468 -0.3135  0.3189
 9780TIP3    H150755   0.954   2.397  12.994 -0.4903 -0.1440  1.0812
 9780TIP3    H250756   1.045   2.279  12.964 -1.5640 -0.4181 -1.3386
 9781TIP3   OH250757   6.053   3.974  15.442 -0.6718 -0.8031  0.0701
 9781TIP3    H150758   6.079   3.951  15.531  1.7041 -1.2553 -0.6745
 9781TIP3    H250759   5.978   4.033  15.453 -1.2375 -1.8399  2.2930
 9782TIP3   OH250760   4.739   2.661  13.266 -0.0533 -1.0733 -0.3347
 9782TIP3    H150761   4.806   2.678  13.200 -0.8213  0.8447 -0.6887
 9782TIP3    H250762   4.656   2.666  13.218 -0.6086  0.1356  0.6993
 9783TIP3   OH250763   0.404   5.842  16.051  0.4399 -0.2122  0.2046
 9783TIP3    H150764   0.335   5.891  16.006  1.4170  2.0419  1.0161
 9783TIP3    H250765   0.358   5.791  16.117 -0.4465  1.7619  1.1854
 9784TIP3   OH250766   3.057   1.617   4.136 -0.0974 -0.1476  0.9945
 9784TIP3    H150767   3.057   1.677   4.210 -1.7362  1.4719 -0.2449
 9784TIP3    H250768   2.966   1.589   4.127 -0.6823  2.1281 -2.1799
 9785TIP3   OH250769   5.380   1.381  16.701 -0.0813 -0.4156  0.8847
 9785TIP3    H150770   5.350   1.311  16.758  1.7927 -0.4910  1.8707
 9785TIP3    H250771   5.475   1.380  16.711  0.1207  1.0849 -0.4966
 9786TIP3   OH250772   4.444   0.544   5.098  0.6705 -0.3536  0.5833
 9786TIP3    H150773   4.416   0.590   5.019 -0.4598 -1.6853  0.1718
 9786TIP3    H250774   4.374   0.481   5.116  1.3748 -0.7670  2.0810
 9787TIP3   OH250775   0.584   5.237  12.421  0.1994  0.0872 -0.6482
 9787TIP3    H150776   0.671   5.235  12.462  0.5589 -0.4136 -1.4115
 9787TIP3    H250777   0.595   5.187  12.340 -1.0089 -0.6995 -0.3525
 9788TIP3   OH250778   0.388   6.442   2.180 -0.0352 -0.3923 -0.1674
 9788TIP3    H150779   0.342   6.468   2.101 -2.2147 -0.7442  0.8988
 9788TIP3    H250780   0.396   6.523   2.231 -0.6409 -0.5429  0.1828
 9789TIP3   OH250781   2.197   4.478  14.361 -0.2101 -0.0174 -0.1540
 9789TIP3    H150782   2.286   4.443  14.359  0.0023  0.4080  1.1711
 9789TIP3    H250783   2.142   4.405  14.333  0.4723 -0.5450 -0.1471
 9790TIP3   OH250784   5.163   0.659   1.548  0.0428  0.2616  0.1541
 9790TIP3    H150785   5.250   0.648   1.510  0.7867  2.0341  1.2485
 9790TIP3    H250786   5.107   0.601   1.496  1.9764 -1.5310 -0.0727
 9791TIP3   OH250787   0.617   4.551  11.713 -0.8206 -0.2857  1.0670
 9791TIP3    H150788   0.552   4.558  11.782  0.2425  0.0520  2.0764
 9791TIP3    H250789   0.701   4.562  11.758 -0.1063  0.3191 -0.3355
 9792TIP3   OH250790   5.757   4.995   5.683 -0.0790 -0.5206  0.7295
 9792TIP3    H150791   5.823   4.951   5.736 -1.5089 -2.6127  0.9027
 9792TIP3    H250792   5.680   4.938   5.687 -0.7578 -0.0603 -2.3847
 9793TIP3   OH250793   6.310   2.795   2.162 -0.4355  1.2580 -0.5872
 9793TIP3    H150794   6.302   2.809   2.067 -1.1833 -1.8579 -1.0866
 9793TIP3    H250795   6.403   2.779   2.176 -0.6615 -1.1063 -1.3566
 9794TIP3   OH250796   2.546   1.166  11.843 -0.5571 -0.2289  0.6750
 9794TIP3    H150797   2.493   1.134  11.770 -0.7088  0.6791  0.3740
 9794TIP3    H250798   2.636   1.166  11.811 -0.5230 -0.5871  0.7643
 9795TIP3   OH250799   3.808   6.381  16.812  0.0104 -0.0426 -0.4333
 9795TIP3    H150800   3.784   6.450  16.750  0.0447 -1.2059 -1.8115
 9795TIP3    H250801   3.897   6.402  16.838  0.9931 -0.8488 -2.8051
 9796TIP3   OH250802   1.246   2.977  14.988  0.1493 -0.2687  0.4693
 9796TIP3    H150803   1.166   3.019  15.020 -1.1121 -0.3352 -2.3431
 9796TIP3    H250804   1.316   3.039  15.011 -1.1020  1.2218  0.4182
 9797TIP3   OH250805   4.165   0.912   0.935  0.5661 -0.0303  0.4449
 9797TIP3    H150806   4.097   0.922   0.868  0.3078 -0.6513  0.6077
 9797TIP3    H250807   4.246   0.938   0.891  1.2214 -4.5173 -1.6361
 9798TIP3   OH250808   2.820   4.826   2.581  0.1388  0.0870 -0.8480
 9798TIP3    H150809   2.832   4.744   2.532  0.7555  0.2160 -0.9214
 9798TIP3    H250810   2.908   4.864   2.585  0.4948 -0.8451  1.9764
 9799TIP3   OH250811   1.165   3.181  13.573 -0.5369  0.1318  0.4033
 9799TIP3    H150812   1.076   3.176  13.605 -1.3946 -1.8801 -1.9140
 9799TIP3    H250813   1.160   3.233  13.493  0.5643  0.8299  0.7596
 9800TIP3   OH250814   4.098   2.288  13.715  0.3175  0.0827 -0.0495
 9800TIP3    H150815   4.170   2.249  13.665 -0.0387 -0.4539 -0.1369
 9800TIP3    H250816   4.024   2.230  13.702  0.1164  0.1331  0.8100
 9801TIP3   OH250817   2.141   4.431  15.716 -0.7792  0.1991 -0.0727
 9801TIP3    H150818   2.206   4.405  15.651 -1.5498  1.3303 -1.3478
 9801TIP3    H250819   2.118   4.349  15.761  1.2600 -0.2658  0.2207
 9802TIP3   OH250820   5.064   4.393   0.271 -0.2329 -0.0529 -0.2937
 9802TIP3    H150821   4.986   4.341   0.289  0.8464 -1.4251  0.6636
 9802TIP3    H250822   5.119   4.335   0.218  0.6727  0.3986  0.1283
 9803TIP3   OH250823   1.457   0.683   3.447 -0.4588  0.2791  0.2972
 9803TIP3    H150824   1.487   0.772   3.427  0.2846  0.2623  1.2600
 9803TIP3    H250825   1.537   0.630   3.446 -0.7239 -0.1420  0.9537
 9804TIP3   OH250826   2.284   2.375   4.042 -0.2602 -0.2502  0.0361
 9804TIP3    H150827   2.287   2.328   4.126 -0.2813 -0.0228  0.1656
 9804TIP3    H250828   2.371   2.415   4.035  0.2621 -1.4535 -0.7423
 9805TIP3   OH250829   4.892   6.575   5.421 -0.5998 -0.7062 -0.4223
 9805TIP3    H150830   4.908   6.656   5.373  2.2513  1.4154  3.4694
 9805TIP3    H250831   4.961   6.515   5.392 -1.2846 -0.9281 -1.6395
 9806TIP3   OH250832   2.235   1.415   2.579 -0.4220 -0.4109 -0.3706
 9806TIP3    H150833   2.319   1.427   2.535  0.2765 -0.4636  0.8995
 9806TIP3    H250834   2.211   1.324   2.559 -0.1724 -0.3987 -0.7388
 9807TIP3   OH250835   1.691   4.505  14.808 -0.3256  0.6291 -0.0914
 9807TIP3    H150836   1.605   4.490  14.769 -0.3857  0.9204 -0.0778
 9807TIP3    H250837   1.688   4.597  14.835  0.1099  0.7273 -0.3880
 9808TIP3   OH250838   0.256   5.054  15.513 -0.7481  0.2241 -0.6898
 9808TIP3    H150839   0.185   5.059  15.449 -0.2021 -0.0494 -1.3276
 9808TIP3    H250840   0.237   5.124  15.576 -1.0862  0.7378 -1.3573
 9809TIP3   OH250841   2.571   5.499   5.881 -0.0655 -0.1089  0.3594
 9809TIP3    H150842   2.481   5.504   5.850  0.1906  0.8887 -0.2313
 9809TIP3    H250843   2.563   5.499   5.977 -0.5976  2.9844  0.4157
 9810TIP3   OH250844   1.872   1.097  11.963  0.5213 -0.1885 -0.1257
 9810TIP3    H150845   1.860   1.162  11.893  0.2758 -1.2679 -1.1196
 9810TIP3    H250846   1.874   1.149  12.043 -1.1746  0.9287 -0.7535
 9811TIP3   OH250847   6.687   0.526   2.788  0.4128 -0.3664 -0.0123
 9811TIP3    H150848   6.703   0.508   2.696 -0.6787 -0.5920 -0.1710
 9811TIP3    H250849   6.774   0.542   2.825  0.9086 -0.7814 -0.9668
 9812TIP3   OH250850   1.688   0.470  13.283 -0.1628  0.0267  0.5512
 9812TIP3    H150851   1.633   0.546  13.299  0.8315  0.5807  1.5140
 9812TIP3    H250852   1.766   0.485  13.337  1.2464 -0.3881 -1.2587
 9813TIP3   OH250853   1.733   3.789   5.047 -0.0486 -0.6327  0.5752
 9813TIP3    H150854   1.693   3.868   5.012  0.6765  0.6035  2.3894
 9813TIP3    H250855   1.659   3.730   5.066 -0.7818  0.4604  1.1845
 9814TIP3   OH250856   6.624   4.408   3.548 -0.7112 -0.2093 -0.2164
 9814TIP3    H150857   6.671   4.486   3.518 -1.4989  0.2612 -0.2635
 9814TIP3    H250858   6.680   4.371   3.616 -0.7177  0.8843  0.4101
 9815TIP3   OH250859   4.667   2.509  16.199 -0.0752 -0.1888 -0.7109
 9815TIP3    H150860   4.694   2.563  16.272 -1.0867 -0.8258  0.1643
 9815TIP3    H250861   4.704   2.423  16.217 -3.3911 -1.4393  1.1631
 9816TIP3   OH250862   5.664   0.593  15.909  0.3443 -0.2537 -0.1113
 9816TIP3    H150863   5.751   0.567  15.879  1.2582 -0.0491  2.1512
 9816TIP3    H250864   5.632   0.518  15.959 -0.8484 -0.3588 -0.9842
 9817TIP3   OH250865   2.459   2.921   5.906 -0.1846  0.3070  0.0362
 9817TIP3    H150866   2.419   3.004   5.934  1.2331  1.0394 -0.0149
 9817TIP3    H250867   2.550   2.928   5.934  0.1663 -0.8803 -0.7500
 9818TIP3   OH250868   0.209   2.298  15.116  0.1083  0.2571 -0.4781
 9818TIP3    H150869   0.232   2.255  15.198 -2.2905  1.7703  1.1037
 9818TIP3    H250870   0.115   2.282  15.105 -0.1692  2.2262 -1.5428
 9819TIP3   OH250871   4.640   5.805  13.097 -0.0538 -0.2022 -0.2927
 9819TIP3    H150872   4.664   5.876  13.037  0.7778 -0.4027 -0.2079
 9819TIP3    H250873   4.724   5.763  13.119 -0.1756  0.6498  1.9832
 9820TIP3   OH250874   1.903   4.113  13.030 -0.3302  0.2053 -0.7109
 9820TIP3    H150875   1.941   4.138  12.946 -0.1205 -0.1106 -0.7120
 9820TIP3    H250876   1.833   4.051  13.007  0.3234 -0.5921 -0.6052
 9821TIP3   OH250877   2.619   5.606  17.302  0.6076  0.1639  0.0452
 9821TIP3    H150878   2.687   5.572  17.360 -0.3611 -0.4324  0.8681
 9821TIP3    H250879   2.650   5.693  17.278  0.8053  0.6510  1.8856
 9822TIP3   OH250880   6.708   3.489  14.956  0.0965  1.0047 -0.3009
 9822TIP3    H150881   6.616   3.492  14.982 -0.5240 -1.0564 -1.9652
 9822TIP3    H250882   6.710   3.531  14.870  0.4138 -0.1458 -0.8843
 9823TIP3   OH250883   6.154   0.428   0.091  0.1271 -0.5422  0.3032
 9823TIP3    H150884   6.067   0.464   0.111  0.4675  0.2581  0.3758
 9823TIP3    H250885   6.136   0.348   0.043 -0.6697 -1.0772  1.4597
 9824TIP3   OH250886   1.626   5.019   5.743  0.8024  0.2834 -0.3390
 9824TIP3    H150887   1.647   5.098   5.694  1.0436  0.7361  0.4717
 9824TIP3    H250888   1.687   5.019   5.817  0.9165 -0.7444 -0.4081
 9825TIP3   OH250889   4.606   4.316  11.465 -0.6262  0.4943 -0.0326
 9825TIP3    H150890   4.625   4.339  11.373  0.1569  1.7858  0.4237
 9825TIP3    H250891   4.662   4.375  11.516 -0.3448 -0.8433  1.2745
 9826TIP3   OH250892   0.177   4.032  12.718  0.0897 -0.0913 -0.1578
 9826TIP3    H150893   0.099   3.980  12.741  0.5257 -0.4014  0.6396
 9826TIP3    H250894   0.172   4.108  12.775  1.0480 -0.7444  0.8314
 9827TIP3   OH250895   4.288   4.153  11.464  0.8110 -0.8995  0.2546
 9827TIP3    H150896   4.328   4.189  11.385  0.4955  0.0907  0.5334
 9827TIP3    H250897   4.230   4.084  11.433 -0.0598  0.1300 -0.4981
 9828TIP3   OH250898   1.301   2.842   0.663 -0.0893 -0.2337 -0.5121
 9828TIP3    H150899   1.390   2.812   0.646 -0.1855 -0.3337 -0.8595
 9828TIP3    H250900   1.252   2.762   0.683  0.0918 -0.0818  0.5835
 9829TIP3   OH250901   2.570   5.784   1.540  0.4669  0.3454  0.0182
 9829TIP3    H150902   2.529   5.709   1.497  1.1360 -0.7660  1.2658
 9829TIP3    H250903   2.582   5.848   1.469 -1.0243 -0.3118 -0.8674
 9830TIP3   OH250904   4.477   5.837   1.667  0.2605 -0.4423 -0.4432
 9830TIP3    H150905   4.517   5.750   1.655  0.4673 -0.4935  0.5334
 9830TIP3    H250906   4.455   5.840   1.760  0.7255  0.7497 -0.3535
 9831TIP3   OH250907   0.317   0.628   5.459 -0.3121  0.0748 -0.3174
 9831TIP3    H150908   0.225   0.651   5.443 -0.1430  0.2662 -1.0214
 9831TIP3    H250909   0.364   0.660   5.382  0.3021 -0.3112 -0.1097
 9832TIP3   OH250910   5.356   2.735  13.412 -0.0800 -0.2934  0.0231
 9832TIP3    H150911   5.291   2.664  13.410 -0.9015  0.4544 -0.9688
 9832TIP3    H250912   5.391   2.733  13.500  1.6690 -3.4704 -0.6004
 9833TIP3   OH250913   3.404   6.154   3.047 -0.6081 -0.4224 -0.1238
 9833TIP3    H150914   3.468   6.114   3.106 -1.8858 -0.4324  1.3332
 9833TIP3    H250915   3.425   6.247   3.048  0.7987 -0.6792 -1.5253
 9834TIP3   OH250916   2.600   1.539  12.129 -0.2174 -0.0271  0.2328
 9834TIP3    H150917   2.553   1.541  12.213  0.0938  1.2684  0.4080
 9834TIP3    H250918   2.535   1.510  12.066 -0.7065 -0.1618  0.7848
 9835TIP3   OH250919   4.804   5.875   3.497  0.5744 -0.7058 -0.6590
 9835TIP3    H150920   4.809   5.781   3.511  1.4532 -0.3797  1.8033
 9835TIP3    H250921   4.858   5.892   3.420 -1.4457 -2.4067 -2.5446
 9836TIP3   OH250922   2.355   0.197   0.368  0.0868  0.3853 -0.1957
 9836TIP3    H150923   2.371   0.261   0.300  1.5136  1.1000  0.7561
 9836TIP3    H250924   2.306   0.127   0.325  1.3230  0.6070 -2.0502
 9837TIP3   OH250925   6.680   5.814   2.616  1.0055 -0.0794 -0.6515
 9837TIP3    H150926   6.722   5.846   2.696 -0.0529 -1.4659  0.5074
 9837TIP3    H250927   6.619   5.884   2.593  1.8944  0.6941 -0.7408
 9838TIP3   OH250928   6.298   6.011  11.712  0.4913  0.3307  0.0311
 9838TIP3    H150929   6.236   5.944  11.684  0.2050  0.1256  1.0873
 9838TIP3    H250930   6.296   6.077  11.643  0.3927 -0.4942 -0.7735
 9839TIP3   OH250931   4.836   6.057  11.542 -0.3790 -0.0203  0.3594
 9839TIP3    H150932   4.848   6.042  11.448 -1.6978 -0.3138  0.2161
 9839TIP3    H250933   4.758   6.006  11.564  0.3159 -0.4984  1.7621
 9840TIP3   OH250934   3.782   1.117  12.879 -0.4612  0.7318  0.2630
 9840TIP3    H150935   3.852   1.087  12.820 -1.4005  0.1096 -0.5727
 9840TIP3    H250936   3.716   1.154  12.820 -1.1354  0.6937  0.9834
 9841TIP3   OH250937   4.207   1.546   0.205  0.1196 -0.4564  0.0320
 9841TIP3    H150938   4.255   1.588   0.133  0.7987 -1.5235 -0.1628
 9841TIP3    H250939   4.120   1.586   0.202 -0.9798 -2.5967 -3.4426
 9842TIP3   OH250940   6.018   3.508   3.869 -0.2320 -0.6151 -0.0610
 9842TIP3    H150941   6.081   3.516   3.941 -1.2413 -0.8426  0.8933
 9842TIP3    H250942   5.950   3.572   3.890 -1.2172 -1.6153 -0.0632
 9843TIP3   OH250943   0.040   4.238  14.221 -0.1676 -0.1602 -0.3850
 9843TIP3    H150944  -0.047   4.273  14.200  0.2992  0.0735 -2.1041
 9843TIP3    H250945   0.023   4.153  14.261 -1.2034  0.0115 -0.4327
 9844TIP3   OH250946   3.395   0.080   3.542 -0.1912 -0.3349 -0.1499
 9844TIP3    H150947   3.372   0.037   3.625 -1.7595 -1.0205 -0.8970
 9844TIP3    H250948   3.413   0.008   3.481  0.2068  0.1450 -0.6085
 9845TIP3   OH250949   2.187   4.323  13.061 -0.3156 -0.1012  0.4430
 9845TIP3    H150950   2.244   4.370  13.000  0.6117 -0.0479  1.3171
 9845TIP3    H250951   2.150   4.251  13.009 -0.3586  0.5464 -0.4391
 9846TIP3   OH250952   0.070   2.171  12.053  0.6032 -0.1421 -0.2462
 9846TIP3    H150953   0.044   2.153  11.963  2.2030  1.1814 -1.0156
 9846TIP3    H250954   0.013   2.244  12.080 -0.0556 -0.7084 -0.0666
 9847TIP3   OH250955   5.179   1.972   3.776  0.7576  0.0560  0.5211
 9847TIP3    H150956   5.178   1.908   3.704 -0.0725  0.2803  0.3233
 9847TIP3    H250957   5.270   2.002   3.780  1.0182 -0.6546  0.1874
 9848TIP3   OH250958   1.987   5.686   6.330 -0.3031 -0.1335  0.2359
 9848TIP3    H150959   1.899   5.722   6.322 -0.4748 -0.5915 -0.0156
 9848TIP3    H250960   2.010   5.698   6.422  1.0135  3.6716 -0.4103
 9849TIP3   OH250961   3.969   5.405   4.400  0.0648 -0.7924 -0.1561
 9849TIP3    H150962   4.009   5.453   4.473  0.8543 -0.3694 -0.8453
 9849TIP3    H250963   3.884   5.377   4.433  0.0531  0.1311  0.6429
 9850TIP3   OH250964   3.909   3.693   4.186 -0.1079 -0.0776  0.2966
 9850TIP3    H150965   3.971   3.689   4.114  0.0310  0.4570  0.3826
 9850TIP3    H250966   3.823   3.689   4.144 -0.0508  1.3607  0.0052
 9851TIP3   OH250967   4.472   2.302  11.890 -0.0400  0.3507 -0.2719
 9851TIP3    H150968   4.482   2.342  11.803 -0.7782 -2.0297 -1.5418
 9851TIP3    H250969   4.379   2.282  11.897  0.2989 -1.1576  0.2703
 9852TIP3   OH250970   0.890   4.405   3.842 -0.3544 -0.2483 -0.0160
 9852TIP3    H150971   0.830   4.360   3.903  1.4927 -1.0737  1.2823
 9852TIP3    H250972   0.886   4.353   3.762  0.0842 -1.4711  0.7266
 9853TIP3   OH250973   2.431   5.396   2.333  0.0881 -0.3122 -0.1535
 9853TIP3    H150974   2.431   5.491   2.321  1.3075 -0.1651  0.7858
 9853TIP3    H250975   2.340   5.375   2.356  0.2173  0.9465  1.7156
 9854TIP3   OH250976   1.889   6.205  11.610 -0.0288 -0.6486  0.0441
 9854TIP3    H150977   1.827   6.270  11.579 -0.1300 -0.8706 -0.2228
 9854TIP3    H250978   1.972   6.253  11.619 -0.4687 -0.0803  1.4649
 9855TIP3   OH250979   5.307   4.728   1.319 -0.0765  0.4501  0.2038
 9855TIP3    H150980   5.298   4.758   1.228  0.8668  1.3806  0.4009
 9855TIP3    H250981   5.265   4.797   1.371 -1.7620 -0.6870  0.4309
 9856TIP3   OH250982   0.131   4.272   4.536 -0.0548  0.5193  0.3137
 9856TIP3    H150983   0.075   4.195   4.551  0.1721  0.6065  1.6914
 9856TIP3    H250984   0.093   4.340   4.591  1.3977  0.5823  1.2781
 9857TIP3   OH250985   0.349   3.756  11.444 -0.1658 -1.1633  0.0251
 9857TIP3    H150986   0.336   3.823  11.378 -1.4803 -0.2798  1.1158
 9857TIP3    H250987   0.263   3.716  11.455  0.0172 -1.2687  1.2072
 9858TIP3   OH250988   1.439   0.192   5.803  0.3926 -0.2931 -0.7819
 9858TIP3    H150989   1.478   0.242   5.875  0.2454 -0.4764 -0.5723
 9858TIP3    H250990   1.372   0.250   5.767  1.1067  0.1767 -1.3915
 9859TIP3   OH250991   5.026   4.083  11.838 -0.2899 -0.4193  0.1615
 9859TIP3    H150992   4.999   4.173  11.821 -1.2081 -0.8527 -0.8137
 9859TIP3    H250993   5.098   4.090  11.900  2.0270  1.2661 -2.4481
 9860TIP3   OH250994   2.117   2.177  10.898  0.0081  0.0483  0.3733
 9860TIP3    H150995   2.050   2.191  10.831  0.1561 -1.4595 -0.1242
 9860TIP3    H250996   2.078   2.111  10.957  1.2078 -1.2390 -0.2088
 9861TIP3   OH250997   4.302   1.367  13.487 -0.0816 -0.4224 -0.9177
 9861TIP3    H150998   4.307   1.420  13.407  0.0315  1.3126  0.1864
 9861TIP3    H250999   4.386   1.383  13.530  0.4314 -2.4400 -1.0687
 9862TIP3   OH251000   0.994   3.307   1.316  0.2167 -0.3999  0.4303
 9862TIP3    H151001   1.021   3.346   1.399  1.4295 -2.0987  0.8856
 9862TIP3    H251002   1.016   3.373   1.250  0.4577  0.4455  1.3339
 9863TIP3   OH251003   1.733   1.650   5.794 -0.1898 -0.1794  0.1447
 9863TIP3    H151004   1.753   1.743   5.808 -0.0347 -0.2594  0.4583
 9863TIP3    H251005   1.639   1.644   5.809 -0.3742  0.1003 -0.8162
 9864TIP3   OH251006   2.762   2.924  14.156 -1.0400  0.2239  0.6508
 9864TIP3    H151007   2.804   2.963  14.233 -0.7062  2.5622 -0.6462
 9864TIP3    H251008   2.834   2.893  14.102 -1.0561  1.8974 -0.3775
 9865TIP3   OH251009   1.305   3.140   4.115  0.0967 -0.1314  0.0558
 9865TIP3    H151010   1.345   3.116   4.032  1.0917 -1.1276  0.7908
 9865TIP3    H251011   1.362   3.208   4.151  0.8543 -1.1698  0.8578
 9866TIP3   OH251012   5.161   0.475  16.923  0.4478  0.8843 -0.2742
 9866TIP3    H151013   5.197   0.392  16.893  0.0781  0.2786  0.8802
 9866TIP3    H251014   5.090   0.494  16.861  0.2546  0.1190 -0.2966
 9867TIP3   OH251015   5.032   1.702   3.973  0.0962 -0.0145 -0.7118
 9867TIP3    H151016   5.004   1.691   3.882 -1.2901  0.1722 -0.3226
 9867TIP3    H251017   4.961   1.751   4.015  0.9215  0.2966  0.3680
 9868TIP3   OH251018   3.911   2.441   0.173  0.0064 -0.4951 -0.0716
 9868TIP3    H151019   3.941   2.381   0.105  0.5847  1.4031 -1.5666
 9868TIP3    H251020   3.987   2.455   0.229  0.4638  0.3373 -0.8766
 9869TIP3   OH251021   4.681   5.239   0.841  0.3074 -0.9869  0.1391
 9869TIP3    H151022   4.760   5.289   0.819  1.8634 -2.7524  1.4315
 9869TIP3    H251023   4.673   5.246   0.936 -0.6169 -1.5362  0.1234
 9870TIP3   OH251024   1.466   4.986  15.964 -0.2598 -0.0658  0.2742
 9870TIP3    H151025   1.438   4.904  16.006 -2.4603  1.2523  1.5626
 9870TIP3    H251026   1.503   4.958  15.880 -2.7645 -2.2883 -0.2277
 9871TIP3   OH251027   3.020   1.823   1.625 -0.2617 -0.4634 -0.3086
 9871TIP3    H151028   3.069   1.859   1.551  0.1482 -0.6527 -0.1327
 9871TIP3    H251029   2.965   1.756   1.587 -2.1449  1.3112 -0.8888
 9872TIP3   OH251030   5.367   5.046  11.132  0.3038  0.1349 -0.3453
 9872TIP3    H151031   5.334   4.990  11.203  0.5229 -0.1682 -0.4808
 9872TIP3    H251032   5.320   5.016  11.054 -0.7045  1.1526 -0.1591
 9873TIP3   OH251033   4.350   1.145   1.081 -0.0148  0.4351 -0.4416
 9873TIP3    H151034   4.294   1.222   1.077 -1.1395 -0.0935  2.3223
 9873TIP3    H251035   4.294   1.074   1.048  0.3969  0.5064 -1.3064
 9874TIP3   OH251036   4.041   0.603   0.406  0.1584  0.6774  0.3467
 9874TIP3    H151037   4.035   0.697   0.386  0.9737  0.7255  0.3041
 9874TIP3    H251038   3.966   0.586   0.463  1.6391  2.0098  2.8754
 9875TIP3   OH251039   1.679   0.895  16.368 -0.8448 -0.0073  0.1337
 9875TIP3    H151040   1.648   0.981  16.340  0.3090  0.1896 -0.6242
 9875TIP3    H251041   1.650   0.887  16.458  0.4258  1.8968  0.7665
 9876TIP3   OH251042   6.692   3.551  11.991 -0.1835  0.5320  0.5107
 9876TIP3    H151043   6.779   3.590  11.982  0.2089 -0.2250  0.9475
 9876TIP3    H251044   6.666   3.530  11.901 -1.1879  3.3857  0.0232
 9877TIP3   OH251045   2.284   3.131   4.930  0.0832 -0.7606 -0.0218
 9877TIP3    H151046   2.357   3.090   4.977  0.1793 -2.2824 -1.3793
 9877TIP3    H251047   2.222   3.059   4.916 -0.8106  0.0922 -0.5244
 9878TIP3   OH251048   0.016   5.596   2.476  0.4617 -0.0391  0.2208
 9878TIP3    H151049   0.106   5.617   2.453  0.8497 -0.4354  1.2997
 9878TIP3    H251050  -0.011   5.668   2.533 -0.7505  1.3508 -2.0138
 9879TIP3   OH251051   5.754   6.541  11.535 -0.3120 -0.0223  0.8538
 9879TIP3    H151052   5.692   6.479  11.575  1.3603  0.2189  4.1540
 9879TIP3    H251053   5.717   6.627  11.552  0.0927  0.0585  1.3573
 9880TIP3   OH251054   0.770   0.100  15.166 -0.0095  0.2484  0.0095
 9880TIP3    H151055   0.774   0.067  15.077 -0.4674 -0.3316  0.1975
 9880TIP3    H251056   0.726   0.185  15.158  0.6483  0.5509 -0.4034
 9881TIP3   OH251057   5.042   4.074   3.067  0.1617  0.6045  0.3599
 9881TIP3    H151058   5.053   4.149   3.009 -0.1121 -0.5337 -1.2028
 9881TIP3    H251059   5.119   4.020   3.052  0.2501  0.4367  1.3128
 9882TIP3   OH251060   3.765   6.740   3.756 -0.2145  0.1305 -0.0497
 9882TIP3    H151061   3.713   6.674   3.709 -1.0679 -0.1655  1.2466
 9882TIP3    H251062   3.852   6.735   3.716 -0.9364  0.0392 -1.7121
 9883TIP3   OH251063   2.894   5.916  14.693  0.1484  0.3535  0.4499
 9883TIP3    H151064   2.888   5.974  14.617  0.7893  1.3185  1.1112
 9883TIP3    H251065   2.944   5.840  14.662 -2.7381 -1.0867 -1.1125
 9884TIP3   OH251066   1.554   6.679  14.863 -0.5183  0.8842 -0.4166
 9884TIP3    H151067   1.512   6.629  14.933  0.5037 -0.1603 -0.5213
 9884TIP3    H251068   1.591   6.613  14.805  1.7836  1.7089 -0.0041
 9885TIP3   OH251069   3.325   0.397  16.142  0.5163  0.1473 -0.4069
 9885TIP3    H151070   3.314   0.344  16.063  0.2894 -1.4043  0.6102
 9885TIP3    H251071   3.308   0.487  16.113 -1.3952 -0.5680 -1.7618
 9886TIP3   OH251072   0.793   3.320   3.972 -0.1071 -0.2203 -0.3415
 9886TIP3    H151073   0.725   3.387   3.970 -0.8598 -0.9749 -1.6854
 9886TIP3    H251074   0.749   3.241   4.003  0.7016 -0.2053  0.9417
 9887TIP3   OH251075   4.412   4.254   1.878  0.0664 -0.4604 -0.1580
 9887TIP3    H151076   4.375   4.331   1.919  1.3090 -0.3552  0.8252
 9887TIP3    H251077   4.461   4.288   1.802  2.5263  0.0674  1.5455
 9888TIP3   OH251078   0.071   3.092  15.347 -0.2465 -0.1312  0.0612
 9888TIP3    H151079   0.112   3.131  15.269 -1.1427 -0.1282 -0.4110
 9888TIP3    H251080   0.085   3.158  15.416 -0.3292  0.3144 -0.3420
 9889TIP3   OH251081   0.570   2.444  12.736  0.3980 -0.5712  0.0814
 9889TIP3    H151082   0.589   2.522  12.683  0.6311 -0.8723 -0.2874
 9889TIP3    H251083   0.595   2.469  12.825 -1.8156  0.6244  0.4481
 9890TIP3   OH251084   6.351   6.673   3.474 -0.7845 -0.2809  0.4375
 9890TIP3    H151085   6.414   6.618   3.521 -2.2636 -0.3169  2.4905
 9890TIP3    H251086   6.396   6.757   3.464  0.0156 -0.6428  0.8552
 9891TIP3   OH251087   1.062   5.716   2.997  1.0313  0.4372 -0.3372
 9891TIP3    H151088   1.050   5.711   3.092  1.4200 -0.9506 -0.3462
 9891TIP3    H251089   0.985   5.672   2.961  0.8928  0.9508 -0.6741
 9892TIP3   OH251090   1.418   3.864  13.143 -1.3602 -0.7108  0.2151
 9892TIP3    H151091   1.443   3.940  13.090 -1.5097 -0.2964  0.7287
 9892TIP3    H251092   1.498   3.811  13.148 -1.8316 -1.7056 -1.9668
 9893TIP3   OH251093   2.480   4.531   5.396  0.3541  0.1141 -0.2616
 9893TIP3    H151094   2.458   4.620   5.369  1.9951  0.5066 -0.4102
 9893TIP3    H251095   2.445   4.524   5.485 -0.9995  0.4036 -0.7341
 9894TIP3   OH251096   3.206   3.888   3.574 -0.5039 -0.2413  0.2527
 9894TIP3    H151097   3.241   3.799   3.578 -1.4177 -0.6638 -0.7485
 9894TIP3    H251098   3.268   3.941   3.625  0.8673 -1.1834 -0.3827
 9895TIP3   OH251099   2.325   3.215   4.212  0.2435  1.1927  0.6311
 9895TIP3    H151100   2.295   3.259   4.132 -3.5802 -0.9977  0.6294
 9895TIP3    H251101   2.390   3.152   4.181 -2.4647 -0.9057 -1.2661
 9896TIP3   OH251102   6.363   6.586   6.335 -0.2747 -0.2830 -0.2941
 9896TIP3    H151103   6.328   6.638   6.262  0.0419  0.3887  0.0211
 9896TIP3    H251104   6.314   6.504   6.332  0.9092 -0.9768 -2.3233
 9897TIP3   OH251105   4.291   1.566  12.186  0.5260 -0.4562 -0.0774
 9897TIP3    H151106   4.215   1.618  12.162 -0.0734 -1.3859 -0.2253
 9897TIP3    H251107   4.320   1.604  12.269  0.0530  0.0494 -0.1337
 9898TIP3   OH251108   0.740   4.993   2.382  0.2376 -0.2897 -0.3372
 9898TIP3    H151109   0.674   5.022   2.446  0.0449  0.4182 -0.8499
 9898TIP3    H251110   0.786   4.921   2.426 -1.7611 -1.7351 -0.4492
 9899TIP3   OH251111   2.392   4.229  14.364 -0.9056 -0.0654 -0.3569
 9899TIP3    H151112   2.383   4.166  14.292  0.5859  0.3749 -0.9847
 9899TIP3    H251113   2.332   4.198  14.431 -2.2675 -0.5643 -1.7387
 9900TIP3   OH251114   6.175   2.192  15.138 -0.2832  0.0400  0.3028
 9900TIP3    H151115   6.086   2.223  15.152 -0.8664 -0.7702 -1.3370
 9900TIP3    H251116   6.188   2.198  15.043  1.4091  0.1195  0.5035
 9901TIP3   OH251117   2.941   0.788  14.599  0.1117 -0.1319  0.7261
 9901TIP3    H151118   2.962   0.880  14.615  0.7299 -0.2065  0.4000
 9901TIP3    H251119   2.987   0.767  14.518 -0.2477 -0.6555  0.6546
 9902TIP3   OH251120   0.542   4.536   4.816  0.3324 -0.1905  0.1523
 9902TIP3    H151121   0.454   4.530   4.779  0.0375 -1.6650  0.9846
 9902TIP3    H251122   0.531   4.510   4.907  1.5897 -0.1078  0.3428
 9903TIP3   OH251123   1.540   5.049  14.180  0.3330  0.1099  0.0267
 9903TIP3    H151124   1.474   5.112  14.151  1.1578  0.6058 -0.8825
 9903TIP3    H251125   1.622   5.099  14.179  0.6148 -0.2616  1.9209
 9904TIP3   OH251126   0.898   0.202   5.828 -0.5969  0.4937  0.2017
 9904TIP3    H151127   0.827   0.267   5.826  0.3243  1.5090 -0.3727
 9904TIP3    H251128   0.958   0.235   5.895 -0.1040  0.2533 -0.1195
 9905TIP3   OH251129   3.071   4.572  13.780  0.5829 -0.2539 -0.4222
 9905TIP3    H151130   3.004   4.521  13.735  1.4114 -0.1883 -1.7649
 9905TIP3    H251131   3.122   4.506  13.828  1.4033 -0.6637 -1.8282
 9906TIP3   OH251132   4.392   3.546   2.529 -0.1334 -0.1644 -0.2588
 9906TIP3    H151133   4.324   3.509   2.472 -0.0840  1.1914 -1.2791
 9906TIP3    H251134   4.348   3.561   2.613 -1.5265  1.7815 -1.2294
 9907TIP3   OH251135   6.608   5.907  16.036  0.1844 -0.4104  0.6893
 9907TIP3    H151136   6.537   5.959  16.072 -0.8166 -3.5190  3.8651
 9907TIP3    H251137   6.643   5.859  16.112  1.3080 -3.8728 -1.7397
 9908TIP3   OH251138   5.254   2.557   1.473 -0.4945  0.5023 -0.4852
 9908TIP3    H151139   5.334   2.510   1.452 -0.7801 -0.0311 -0.4148
 9908TIP3    H251140   5.282   2.646   1.495 -0.0373  0.6189 -1.5212
 9909TIP3   OH251141   4.989   0.634  16.202  0.3636 -0.2188 -0.1952
 9909TIP3    H151142   4.936   0.604  16.275 -1.7823  1.3270 -1.0044
 9909TIP3    H251143   4.937   0.615  16.124  0.1391  2.7853 -0.9252
 9910TIP3   OH251144   1.175   4.632   5.098 -0.1430  0.8676  0.1180
 9910TIP3    H151145   1.111   4.569   5.131  0.3234  0.4811  0.2905
 9910TIP3    H251146   1.160   4.710   5.152 -0.9611  1.0335 -0.3394
 9911TIP3   OH251147   6.034   0.008  13.607 -0.3314  0.3973 -0.3655
 9911TIP3    H151148   6.102   0.020  13.673 -2.1749 -0.4549  1.8485
 9911TIP3    H251149   6.081  -0.016  13.527  1.9766  0.9173  0.7465
 9912TIP3   OH251150   4.510   1.655   4.463 -0.3091 -0.4928  0.3511
 9912TIP3    H151151   4.535   1.586   4.525 -1.8847 -1.8102 -0.3990
 9912TIP3    H251152   4.419   1.635   4.440  0.2190 -0.0854 -2.4250
 9913TIP3   OH251153   1.287   6.208   4.754  0.0657  0.1279  0.0026
 9913TIP3    H151154   1.306   6.281   4.696  2.2672 -0.3284  0.0802
 9913TIP3    H251155   1.309   6.130   4.703  0.3819 -0.3506  0.8489
 9914TIP3   OH251156   0.324   2.777  14.689 -0.1202  0.2968 -0.5036
 9914TIP3    H151157   0.327   2.774  14.593  1.8628  0.2720 -0.4741
 9914TIP3    H251158   0.384   2.707  14.717 -0.0764  0.8087  0.7504
 9915TIP3   OH251159   5.747   5.952  16.166  0.6118 -0.0631 -0.3611
 9915TIP3    H151160   5.683   5.995  16.222  1.5101  0.5147  0.2498
 9915TIP3    H251161   5.696   5.915  16.094 -0.6632 -1.4296  1.1802
 9916TIP3   OH251162   1.557   6.627   5.798  0.3185  0.0008 -0.1442
 9916TIP3    H151163   1.512   6.676   5.730 -0.7010  0.5907  0.9149
 9916TIP3    H251164   1.525   6.537   5.789  2.1789 -0.5274 -2.0798
 9917TIP3   OH251165   2.789   3.288   6.267  0.1301  0.4089 -0.6689
 9917TIP3    H151166   2.697   3.315   6.266  0.1319  0.4722  0.1659
 9917TIP3    H251167   2.834   3.359   6.312  0.7546  0.8547 -1.9537
 9918TIP3   OH251168   4.427   2.918  14.121  0.6988  0.0851 -0.7235
 9918TIP3    H151169   4.408   2.876  14.037 -0.5266  0.9946 -0.9288
 9918TIP3    H251170   4.438   2.845  14.182 -0.0377 -0.5630 -1.3429
 9919TIP3   OH251171   2.053   3.912   1.553  0.0574 -0.0560  1.0034
 9919TIP3    H151172   1.997   3.947   1.622 -0.3293 -1.1885  1.2850
 9919TIP3    H251173   2.012   3.939   1.471 -1.3100 -1.4290  1.1925
 9920TIP3   OH251174   4.615   2.744  12.121  0.1478 -0.3393  0.3932
 9920TIP3    H151175   4.545   2.693  12.160  0.1486 -1.0863 -0.5382
 9920TIP3    H251176   4.610   2.829  12.163 -1.3746 -0.3534  0.2757
 9921TIP3   OH251177   4.723   0.235   2.552  0.2604  0.3186  0.5991
 9921TIP3    H151178   4.668   0.230   2.629  0.8146 -0.1827  0.9704
 9921TIP3    H251179   4.790   0.299   2.574  1.1212 -0.6880  1.0053
 9922TIP3   OH251180   5.488   1.811   4.680 -0.5224 -0.4089  0.2100
 9922TIP3    H151181   5.534   1.859   4.611 -0.6993 -0.8817 -0.2470
 9922TIP3    H251182   5.555   1.795   4.747 -1.1634  3.3642  1.9892
 9923TIP3   OH251183   2.332   5.146   3.301  1.1625 -0.0300 -0.3333
 9923TIP3    H151184   2.309   5.197   3.224 -1.3152  1.2600  1.1293
 9923TIP3    H251185   2.298   5.059   3.283 -0.1161  0.4658 -0.4235
 9924TIP3   OH251186   1.600   2.929  11.422  1.0837  0.3976 -0.2442
 9924TIP3    H151187   1.656   3.006  11.415  1.5612  0.2518  1.4505
 9924TIP3    H251188   1.658   2.861  11.456 -0.0031  0.1390  1.1745
 9925TIP3   OH251189   6.097   4.640   3.511  0.1452 -0.2671  0.1137
 9925TIP3    H151190   6.051   4.682   3.583 -0.5066  1.3342 -1.1550
 9925TIP3    H251191   6.061   4.552   3.507 -0.2256 -0.1895  1.3587
 9926TIP3   OH251192   2.920   4.442   1.066  0.1058  0.3610 -0.2662
 9926TIP3    H151193   2.927   4.358   1.111 -0.9548 -0.0784 -0.8941
 9926TIP3    H251194   3.010   4.476   1.065  0.8234 -1.4029 -1.1991
 9927TIP3   OH251195   6.492   2.056  12.358  0.1418  0.5301 -0.2354
 9927TIP3    H151196   6.526   2.054  12.447  0.9947  0.1815 -0.5547
 9927TIP3    H251197   6.517   1.971  12.320  0.2593  0.8713 -0.9572
 9928TIP3   OH251198   0.474   4.697   2.172  0.8949  0.2211 -0.3453
 9928TIP3    H151199   0.451   4.604   2.169  1.6984  0.0143 -0.4060
 9928TIP3    H251200   0.392   4.743   2.154 -0.2002 -0.3625  2.6192
 9929TIP3   OH251201   6.404   4.559  13.721 -0.2379 -0.1394 -0.1492
 9929TIP3    H151202   6.359   4.603  13.792 -0.0378  2.4451 -1.5177
 9929TIP3    H251203   6.350   4.482  13.702 -1.5475  0.4128  1.2056
 9930TIP3   OH251204   1.928   2.402   1.611 -0.8721 -0.6711 -0.1760
 9930TIP3    H151205   1.998   2.341   1.587 -1.1976 -2.5408  2.9172
 9930TIP3    H251206   1.972   2.472   1.658 -0.9222 -1.5399  1.2406
 9931TIP3   OH251207   3.397   2.403   4.662  0.9938 -0.1187 -0.1463
 9931TIP3    H151208   3.364   2.365   4.580 -1.6338 -0.6813  1.0675
 9931TIP3    H251209   3.339   2.478   4.678  0.7341 -0.6642  1.7118
 9932TIP3   OH251210   2.489   1.768   1.141 -0.2266 -0.3551  0.2528
 9932TIP3    H151211   2.499   1.838   1.206 -0.7433  0.4846 -0.5381
 9932TIP3    H251212   2.560   1.783   1.078 -0.7963 -0.0595 -0.3326
 9933TIP3   OH251213   5.396   3.560  12.378  0.1834 -1.1852  0.9744
 9933TIP3    H151214   5.380   3.483  12.432  1.0633 -0.9920  1.5351
 9933TIP3    H251215   5.370   3.634  12.433 -1.4850 -1.0858  0.1271
 9934TIP3   OH251216   5.143   3.973  11.581 -0.3906 -0.4394 -0.3197
 9934TIP3    H151217   5.139   3.993  11.675  1.0701  0.1005 -0.3461
 9934TIP3    H251218   5.052   3.970  11.553 -0.8387 -0.3843  1.0736
 9935TIP3   OH251219   6.503   2.733  16.786  0.6551  0.1423  0.1162
 9935TIP3    H151220   6.412   2.762  16.776  0.4614  0.0036  1.2984
 9935TIP3    H251221   6.547   2.762  16.707 -0.4319  0.1860 -0.4820
 9936TIP3   OH251222   0.599   5.263   0.294 -0.7687 -0.4059  0.3274
 9936TIP3    H151223   0.537   5.304   0.233  0.0653 -0.2055 -0.4134
 9936TIP3    H251224   0.644   5.198   0.241 -0.5800 -0.7867  0.9487
 9937TIP3   OH251225   2.610   4.707  12.300 -0.3540 -0.1251 -0.1050
 9937TIP3    H151226   2.576   4.788  12.338 -0.7626 -0.8119  1.0435
 9937TIP3    H251227   2.628   4.651  12.375  0.9604 -0.7082 -0.8324
 9938TIP3   OH251228   2.402   0.425   1.037  0.3162 -0.1697 -0.4551
 9938TIP3    H151229   2.371   0.509   1.072  2.2070 -0.7425  3.1678
 9938TIP3    H251230   2.495   0.440   1.020  0.3210 -1.1270 -1.3412
 9939TIP3   OH251231   0.486   2.756  11.854 -0.3830  0.3986  0.3503
 9939TIP3    H151232   0.485   2.694  11.927 -0.7762  0.4051  0.3519
 9939TIP3    H251233   0.576   2.753  11.821 -0.8881 -1.7830 -1.0189
 9940TIP3   OH251234   0.468   0.069  16.534 -0.1369 -0.3716 -0.3398
 9940TIP3    H151235   0.483   0.074  16.629 -3.4899 -0.4853  0.3426
 9940TIP3    H251236   0.464  -0.025  16.516  1.2915 -0.3639 -0.8018
 9941TIP3   OH251237   3.295   5.885   1.994 -0.2167  0.5697  0.5963
 9941TIP3    H151238   3.334   5.820   2.053 -0.6641 -0.5530 -0.3049
 9941TIP3    H251239   3.369   5.936   1.963  0.9364 -2.5032 -2.3033
 9942TIP3   OH251240   2.218   0.455  11.316  0.3923 -0.0049  0.1860
 9942TIP3    H151241   2.165   0.377  11.301 -0.5604  0.4126  1.2741
 9942TIP3    H251242   2.228   0.494  11.229  1.2996 -1.5769 -0.4549
 9943TIP3   OH251243   5.852   3.644  14.373 -1.1006 -0.0343  0.2299
 9943TIP3    H151244   5.776   3.636  14.431 -4.7336 -0.5100 -4.0495
 9943TIP3    H251245   5.855   3.560  14.326 -0.6099  1.4503 -2.5851
 9944TIP3   OH251246   0.744   6.091  12.259  0.3931 -0.1848  0.3637
 9944TIP3    H151247   0.672   6.057  12.204  0.7640  0.0311 -0.2705
 9944TIP3    H251248   0.717   6.071  12.348  0.2301 -1.4629  0.0623
 9945TIP3   OH251249   2.912   6.463   5.368 -0.0555  0.0901 -0.2251
 9945TIP3    H151250   2.907   6.398   5.437  0.1190 -0.5738 -0.8243
 9945TIP3    H251251   2.991   6.514   5.388  1.1716 -1.4142 -1.0345
 9946TIP3   OH251252   0.770   3.590  11.927 -0.3676  0.1527 -0.3424
 9946TIP3    H151253   0.706   3.518  11.935 -1.1275  0.9687  1.4822
 9946TIP3    H251254   0.770   3.612  11.834 -1.6991 -0.8136 -0.6032
 9947TIP3   OH251255   2.859   0.045  12.124 -0.2753 -0.0999 -0.1835
 9947TIP3    H151256   2.849   0.007  12.211 -1.0043 -1.3320 -0.7808
 9947TIP3    H251257   2.773   0.036  12.084 -0.2148  1.3689 -0.6884
 9948TIP3   OH251258   6.385   5.745  17.066 -0.0661  0.1510 -0.4563
 9948TIP3    H151259   6.448   5.795  17.015 -0.0283 -0.8024 -1.3876
 9948TIP3    H251260   6.308   5.801  17.070  0.1435  0.4953 -1.0362
 9949TIP3   OH251261   2.952   5.909  14.960 -0.1442  0.7395  0.0340
 9949TIP3    H151262   2.920   5.915  14.869  0.8399 -0.6274 -0.4297
 9949TIP3    H251263   2.879   5.943  15.012 -1.7425 -0.7377 -1.0985
 9950TIP3   OH251264   3.286   3.654   4.764  0.0343  0.3472  0.3224
 9950TIP3    H151265   3.332   3.585   4.717  1.1165  1.7465 -0.7478
 9950TIP3    H251266   3.252   3.611   4.842  0.1020 -1.5339 -0.6214
 9951TIP3   OH251267   1.094   0.772   5.286  0.0465  0.6304  0.8128
 9951TIP3    H151268   1.095   0.799   5.194 -0.2542  0.4248  0.7488
 9951TIP3    H251269   1.185   0.746   5.304 -0.6365 -3.5915 -0.7101
 9952TIP3   OH251270   4.701   2.611  12.641  0.2869 -0.9277 -0.3564
 9952TIP3    H151271   4.722   2.702  12.620 -2.3778 -0.2533 -0.4729
 9952TIP3    H251272   4.670   2.613  12.731 -1.8294 -1.2466 -0.9944
 9953TIP3   OH251273   3.569   4.394   1.316 -0.1109  0.2908 -0.4843
 9953TIP3    H151274   3.646   4.445   1.339  0.2409 -0.1293 -0.7322
 9953TIP3    H251275   3.511   4.403   1.392  0.3458  0.2824 -0.1320
 9954TIP3   OH251276   1.104   0.278   3.515  0.5971  0.1397  0.2101
 9954TIP3    H151277   1.120   0.354   3.572  3.0591 -0.0673 -0.1026
 9954TIP3    H251278   1.078   0.316   3.432  1.2798  0.6390  0.2162
 9955TIP3   OH251279   6.319   6.692  14.333 -0.0877  0.5009 -0.0394
 9955TIP3    H151280   6.372   6.752  14.385  1.0747 -1.1446  0.7632
 9955TIP3    H251281   6.273   6.638  14.397 -1.8600  1.0991 -0.7400
 9956TIP3   OH251282   4.524   0.457  11.651  0.0787 -0.4997  0.0111
 9956TIP3    H151283   4.607   0.489  11.614  0.5444 -2.2610 -0.5753
 9956TIP3    H251284   4.538   0.363  11.662 -1.6586 -0.7325  0.4424
 9957TIP3   OH251285   2.614   5.792   4.660 -0.1691  0.1219 -0.4334
 9957TIP3    H151286   2.538   5.741   4.631 -0.1166 -0.1981 -0.0288
 9957TIP3    H251287   2.683   5.768   4.600 -0.3350  0.2610 -0.6811
 9958TIP3   OH251288   0.732   0.511   4.349  0.6668 -0.2366 -0.3382
 9958TIP3    H151289   0.786   0.436   4.372 -1.4337 -1.2119  1.9176
 9958TIP3    H251290   0.642   0.480   4.364 -0.3908  2.0663 -1.4875
 9959TIP3   OH251291   2.418   5.416  17.005 -0.2348  0.4474  0.5058
 9959TIP3    H151292   2.326   5.412  17.033 -0.2449 -1.6900  0.3535
 9959TIP3    H251293   2.441   5.325  16.986  0.8543  1.2613 -2.8561
 9960TIP3   OH251294   0.067   5.898   0.093 -0.2171 -0.3036  0.0243
 9960TIP3    H151295  -0.009   5.938   0.135  0.3530 -1.4240  2.2986
 9960TIP3    H251296   0.140   5.914   0.153  0.7733 -1.6061 -0.7480
 9961TIP3   OH251297   1.963   2.907   2.128 -0.0350 -0.3378  0.3863
 9961TIP3    H151298   2.058   2.901   2.131 -0.0271 -1.3473 -0.9300
 9961TIP3    H251299   1.945   2.983   2.072  0.0332 -1.3306 -1.0230
 9962TIP3   OH251300   0.851   0.931  12.638 -0.7691 -0.0387 -0.6864
 9962TIP3    H151301   0.924   0.981  12.673 -1.3375  1.0936 -1.0939
 9962TIP3    H251302   0.808   0.990  12.575 -1.4310 -1.0360 -1.2064
 9963TIP3   OH251303   0.246   2.265  17.393 -0.4419  0.2333 -0.4073
 9963TIP3    H151304   0.159   2.234  17.367  0.1991 -2.5618  0.4056
 9963TIP3    H251305   0.260   2.225  17.479  1.1922  1.6140  0.0061
 9964TIP3   OH251306   0.583   0.315   0.228 -0.2803 -0.8840 -0.3208
 9964TIP3    H151307   0.634   0.296   0.307 -1.1655  3.1846  1.5008
 9964TIP3    H251308   0.522   0.242   0.220  1.1937 -2.4200  1.5006
 9965TIP3   OH251309   0.101   6.305  12.379 -0.4665 -0.0195 -0.6881
 9965TIP3    H151310   0.169   6.372  12.368 -0.5356  0.1157 -0.3095
 9965TIP3    H251311   0.023   6.355  12.405  0.2696 -0.4843  2.9035
 9966TIP3   OH251312   0.651   3.535   4.976 -0.6986 -0.5868  0.3012
 9966TIP3    H151313   0.649   3.449   4.935 -0.4485 -0.8228  0.7757
 9966TIP3    H251314   0.742   3.547   5.003 -0.7137 -0.1374  0.1647
 9967TIP3   OH251315   0.932   3.304   4.669  0.3437  0.3749 -0.2971
 9967TIP3    H151316   0.920   3.382   4.615  1.3298  0.2851 -0.6616
 9967TIP3    H251317   0.987   3.246   4.616 -1.7863 -1.3253 -0.7631
 9968TIP3   OH251318   3.583   5.123  11.153 -0.8667 -0.3763 -0.0609
 9968TIP3    H151319   3.594   5.209  11.112 -1.8427 -0.3826 -0.3645
 9968TIP3    H251320   3.663   5.076  11.132  0.3330  0.9379  1.3462
 9969TIP3   OH251321   3.899   0.924  16.437  0.2939  0.0980  0.0100
 9969TIP3    H151322   3.815   0.896  16.400  0.6064  0.8179 -1.3024
 9969TIP3    H251323   3.875   0.978  16.513 -0.5644  2.1564 -1.6164
 9970TIP3   OH251324   5.698   6.288  16.289  0.0468  0.7391  0.0461
 9970TIP3    H151325   5.693   6.348  16.215  2.3725  0.2564 -0.6171
 9970TIP3    H251326   5.775   6.234  16.270  0.6846  0.5346  2.7725
 9971TIP3   OH251327   5.870   5.323  14.625 -0.4633  0.4733 -0.7133
 9971TIP3    H151328   5.887   5.240  14.579 -3.1455 -0.4960 -0.1843
 9971TIP3    H251329   5.864   5.298  14.717 -0.6459  1.3927 -0.4689
 9972TIP3   OH251330   6.220   3.146   4.197 -0.5774  0.4855 -0.0987
 9972TIP3    H151331   6.264   3.065   4.171 -1.1318  0.5125 -1.2182
 9972TIP3    H251332   6.290   3.210   4.205 -0.3171  0.3566 -1.1568
 9973TIP3   OH251333   5.122   5.162   2.024 -0.2838  0.0436  0.0091
 9973TIP3    H151334   5.197   5.123   2.070 -1.8743 -1.8919  1.1259
 9973TIP3    H251335   5.061   5.186   2.095 -0.8595  1.3708 -0.8876
 9974TIP3   OH251336   2.760   6.100  11.662  0.2414 -0.2709 -0.3628
 9974TIP3    H151337   2.729   6.112  11.752  0.0236  0.4791 -0.5323
 9974TIP3    H251338   2.808   6.180  11.642 -0.9717  0.2234 -1.4235
 9975TIP3   OH251339   1.011   3.325  10.663 -0.4659 -0.1354  1.1269
 9975TIP3    H151340   0.998   3.419  10.667 -0.7733 -0.1059 -0.1674
 9975TIP3    H251341   1.105   3.314  10.647 -0.8973  0.1479 -2.4754
 9976TIP3   OH251342   0.032   4.036   3.327 -0.0083  0.2918  0.6789
 9976TIP3    H151343  -0.031   3.974   3.364 -0.2428 -0.3684 -0.7853
 9976TIP3    H251344  -0.016   4.119   3.323 -0.4194  0.0525  0.6094
 9977TIP3   OH251345   6.419   1.588  17.114 -0.6203  0.2160  0.3780
 9977TIP3    H151346   6.467   1.652  17.061 -1.3544 -0.0644 -0.6517
 9977TIP3    H251347   6.454   1.600  17.202  1.9516 -0.5523 -0.4379
 9978TIP3   OH251348   1.129   5.676   1.292  0.0842  0.4209  0.2936
 9978TIP3    H151349   1.039   5.682   1.323 -0.1811 -2.1903  0.2821
 9978TIP3    H251350   1.175   5.628   1.360  1.6898  2.2707  0.6061
 9979TIP3   OH251351   3.556   3.740   4.683  0.2335 -0.9682  0.0343
 9979TIP3    H151352   3.462   3.748   4.668  0.6451  4.1823 -1.5296
 9979TIP3    H251353   3.594   3.735   4.595  1.5407 -0.8292  0.5699
 9980TIP3   OH251354   6.435   2.948   1.661 -0.1382 -0.3116  0.2507
 9980TIP3    H151355   6.503   2.902   1.712 -1.1633  0.8525  2.8718
 9980TIP3    H251356   6.385   2.877   1.620  0.5393 -1.3748  1.1783
 9981TIP3   OH251357   3.443   5.626  16.175 -0.0656 -0.6556 -0.1531
 9981TIP3    H151358   3.375   5.693  16.188 -0.2093 -1.1022  1.8530
 9981TIP3    H251359   3.450   5.584  16.261  4.0726  0.6161  0.3142
 9982TIP3   OH251360   3.382   5.828  12.516 -0.0703 -0.0975 -0.0817
 9982TIP3    H151361   3.320   5.840  12.587 -0.8178  0.2897 -0.7865
 9982TIP3    H251362   3.330   5.795  12.443  0.9680 -2.2188  0.0438
 9983TIP3   OH251363   3.572   4.851   4.502  0.4001  0.1456  0.3437
 9983TIP3    H151364   3.537   4.763   4.488 -1.1847  0.7519  0.2025
 9983TIP3    H251365   3.621   4.846   4.583  0.3651 -0.8816  0.3069
 9984TIP3   OH251366   2.346   0.738  11.914 -0.1979  0.3612  0.2294
 9984TIP3    H151367   2.409   0.678  11.874 -2.1316 -3.1318  1.9429
 9984TIP3    H251368   2.279   0.751  11.847 -0.2278 -0.1998  0.1446
 9985TIP3   OH251369   5.332   6.026  11.119  0.5372 -0.4512  0.3554
 9985TIP3    H151370   5.327   6.067  11.032  1.2830  0.3057  0.6535
 9985TIP3    H251371   5.386   5.949  11.106  0.1195 -0.6988  0.0280
 9986TIP3   OH251372   0.247   5.077   6.189 -0.1543 -0.2320  0.2473
 9986TIP3    H151373   0.252   5.121   6.105 -0.5043  0.5667  0.6306
 9986TIP3    H251374   0.289   4.992   6.175 -2.0125 -0.9583 -1.2590
 9987TIP3   OH251375   1.588   1.575   0.328 -0.2545  0.0691  0.5271
 9987TIP3    H151376   1.629   1.576   0.415 -0.0055  1.8355  0.4216
 9987TIP3    H251377   1.517   1.639   0.334  0.0724  0.5675 -0.7100
 9988TIP3   OH251378   1.659   4.355   3.623 -0.1352 -0.4722 -0.2403
 9988TIP3    H151379   1.610   4.315   3.551  0.1750 -1.5525  0.1272
 9988TIP3    H251380   1.678   4.444   3.593  0.4434 -1.0648 -1.7227
 9989TIP3   OH251381   4.379   4.679  17.281  0.5140  0.6558  0.3012
 9989TIP3    H151382   4.434   4.602  17.296 -0.7460 -0.1169  1.0849
 9989TIP3    H251383   4.369   4.719  17.368 -0.5702  0.5008  0.2550
 9990TIP3   OH251384   1.690   2.455   3.854 -0.5299 -0.2678 -0.6126
 9990TIP3    H151385   1.777   2.415   3.846 -0.1527  0.8333 -3.1825
 9990TIP3    H251386   1.632   2.383   3.876  0.8620 -1.2402  0.0025
 9991TIP3   OH251387   2.231   6.729  11.717  0.4224  0.0147  0.0024
 9991TIP3    H151388   2.198   6.769  11.637  1.4156  0.8788  0.0038
 9991TIP3    H251389   2.322   6.759  11.723  0.7121 -0.9718  0.8471
 9992TIP3   OH251390   0.404   6.279  13.186 -0.1658  0.0767  0.2443
 9992TIP3    H151391   0.314   6.311  13.199  0.1561  1.3200 -0.3936
 9992TIP3    H251392   0.458   6.338  13.238  0.3716  0.0403 -0.2602
 9993TIP3   OH251393   1.077   3.674  11.119  0.0859  0.4189 -0.1289
 9993TIP3    H151394   1.126   3.666  11.201  0.4002 -0.6036 -0.4119
 9993TIP3    H251395   1.112   3.605  11.063 -1.9444 -0.6137 -0.2089
 9994TIP3   OH251396   0.604   1.550   0.138 -0.4300 -0.8602  0.2148
 9994TIP3    H151397   0.573   1.562   0.228  0.3198  0.7203  0.2960
 9994TIP3    H251398   0.670   1.619   0.126 -0.5181 -1.0428 -1.5506
 9995TIP3   OH251399   0.635   0.373  11.857 -0.3258  0.4739  0.1863
 9995TIP3    H151400   0.621   0.284  11.888  0.6576 -0.0278 -0.7110
 9995TIP3    H251401   0.700   0.410  11.917  0.3454  0.0709 -0.2722
 9996TIP3   OH251402   4.957   5.558   4.312  0.3023 -0.0799 -0.0974
 9996TIP3    H151403   5.040   5.559   4.361  0.5312 -0.3205 -0.4715
 9996TIP3    H251404   4.978   5.603   4.230  0.4663 -1.4152 -0.8137
 9997TIP3   OH251405   3.590   4.610   1.897 -0.3249 -0.1908  0.3861
 9997TIP3    H151406   3.514   4.554   1.878  0.2377 -0.0264 -2.9309
 9997TIP3    H251407   3.660   4.548   1.919 -0.5058 -0.5975 -0.1580
 9998TIP3   OH251408   4.931   3.751   0.416 -0.4477 -0.0265  0.3077
 9998TIP3    H151409   4.871   3.692   0.461 -0.1714 -0.4421  0.1348
 9998TIP3    H251410   4.924   3.833   0.465  0.1027 -0.5704  1.3349
 9999TIP3   OH251411   2.031   4.838  16.591  0.5702  1.0981  0.1522
 9999TIP3    H151412   1.982   4.861  16.670  1.5434  1.3824  0.6981
 9999TIP3    H251413   1.965   4.810  16.528 -0.1658  0.2226  1.2876
10000TIP3   OH251414   3.981   6.276  11.602 -0.2976  0.0749  0.2738
10000TIP3    H151415   4.005   6.360  11.563 -0.5980  0.4533  0.8861
10000TIP3    H251416   4.049   6.260  11.668  1.3085 -1.4962 -1.6566
10001TIP3   OH251417   4.897   0.224   3.191  0.3822  0.6420  0.2416
10001TIP3    H151418   4.815   0.176   3.199  0.2209  1.0063  0.8665
10001TIP3    H251419   4.965   0.159   3.210  0.3354  0.0066 -1.5909
10002TIP3   OH251420   4.423   3.014   6.117  0.1296  0.3723  0.4487
10002TIP3    H151421   4.515   3.032   6.101 -0.0414  0.3348 -0.6883
10002TIP3    H251422   4.408   2.927   6.078 -0.1699 -0.0620  1.4915
10003TIP3   OH251423   0.891   4.428  16.379  0.9305 -0.6685 -0.5981
10003TIP3    H151424   0.894   4.417  16.475 -1.9872 -2.3881 -0.5709
10003TIP3    H251425   0.958   4.368  16.347  0.2126 -2.0485  0.3507
10004TIP3   OH251426   6.149   3.959  16.301 -0.2619 -0.9641  0.3993
10004TIP3    H151427   6.229   3.967  16.352  0.6861 -2.5801 -0.7589
10004TIP3    H251428   6.158   4.024  16.232  0.6008 -1.9135 -0.3984
10005TIP3   OH251429   2.923   0.563   5.087 -0.3485 -0.1823 -0.1317
10005TIP3    H151430   2.961   0.638   5.041 -0.2414  0.1758  0.5319
10005TIP3    H251431   2.993   0.531   5.143  0.0771 -1.7013 -1.4819
10006TIP3   OH251432   6.154   0.381  11.207  0.0092  0.1631  0.3059
10006TIP3    H151433   6.207   0.352  11.133  0.1874  1.3604 -0.0437
10006TIP3    H251434   6.141   0.301  11.258 -1.4639 -1.0667 -1.8129
10007TIP3   OH251435   3.921   5.978  14.665  0.3744 -0.2752  0.2460
10007TIP3    H151436   3.950   5.983  14.756  0.1507  3.7248  0.2524
10007TIP3    H251437   3.995   6.011  14.615  0.9006 -3.4048 -1.2911
10008TIP3   OH251438   1.088   3.428  12.359  0.0699 -0.0241 -0.7932
10008TIP3    H151439   1.082   3.481  12.439 -0.1672  0.7513 -1.3106
10008TIP3    H251440   1.037   3.477  12.294  0.3557 -0.5840 -1.4524
10009TIP3   OH251441   1.031   4.646  17.282  0.0377  0.1829  0.2366
10009TIP3    H151442   1.060   4.578  17.343 -1.2738 -0.5609  0.0840
10009TIP3    H251443   1.055   4.728  17.324  0.4500 -0.3529  1.0731
10010TIP3   OH251444   6.598   4.410   6.505  0.0151 -0.0170  0.0017
10010TIP3    H151445   6.557   4.446   6.427  0.0521  1.3336  0.5672
10010TIP3    H251446   6.605   4.316   6.489 -0.1048  0.2262 -1.5411
10011TIP3   OH251447   3.062   2.889   4.076 -0.1507 -0.5457  0.3115
10011TIP3    H151448   3.042   2.861   4.166  1.1191  1.0625  1.1528
10011TIP3    H251449   3.131   2.954   4.086 -0.4736  0.2088 -1.8001
10012TIP3   OH251450   4.886   0.351  12.571  0.5159 -0.1825 -0.8200
10012TIP3    H151451   4.805   0.393  12.541  0.1669 -1.7085 -2.1191
10012TIP3    H251452   4.863   0.315  12.656  0.0222 -0.0732 -0.9006
10013TIP3   OH251453   5.313   2.094  14.641  0.0298 -0.4828  0.0049
10013TIP3    H151454   5.241   2.148  14.608 -0.0420  0.2938  1.3990
10013TIP3    H251455   5.323   2.026  14.574 -0.1339  1.0018 -1.5944
10014TIP3   OH251456   6.750   6.731  13.919  0.2025 -0.2800 -0.1924
10014TIP3    H151457   6.707   6.816  13.909  0.4785 -0.3072 -1.9463
10014TIP3    H251458   6.727   6.683  13.839  1.0290 -1.4084  0.2233
10015TIP3   OH251459   3.595   0.904  15.106  0.0790  0.2710 -0.5849
10015TIP3    H151460   3.570   0.843  15.037 -3.4795  2.9133 -1.9343
10015TIP3    H251461   3.679   0.939  15.079  1.2628 -2.4619 -0.7568
10016TIP3   OH251462   2.778   5.479   1.750  0.2948 -0.2777 -0.2387
10016TIP3    H151463   2.787   5.438   1.664  1.1372  0.4352 -0.5123
10016TIP3    H251464   2.718   5.423   1.797 -0.1740 -0.6940 -1.2927
10017TIP3   OH251465   1.379   6.665  11.911 -0.5846 -0.6945  0.1883
10017TIP3    H151466   1.390   6.653  12.005  1.8261  1.2850  0.2470
10017TIP3    H251467   1.452   6.618  11.872  0.3704  1.1602 -0.4071
10018TIP3   OH251468   5.167   3.795  15.110 -0.2493 -0.0899 -0.2638
10018TIP3    H151469   5.230   3.865  15.096  0.9073 -0.6995  1.5853
10018TIP3    H251470   5.082   3.837  15.099  0.4017  1.7251  1.1551
10019TIP3   OH251471   3.439   0.779   1.326  0.3686 -0.3633 -0.1615
10019TIP3    H151472   3.508   0.770   1.391  0.1131  0.0193  0.1665
10019TIP3    H251473   3.378   0.708   1.345  0.5986 -0.6223 -0.3705
10020TIP3   OH251474   0.773   1.699   2.938 -0.1579 -0.6734 -0.4973
10020TIP3    H151475   0.692   1.749   2.926  1.5745  1.9281 -2.4887
10020TIP3    H251476   0.803   1.723   3.026 -0.2844  0.3456 -0.7259
10021TIP3   OH251477   5.488   4.850  12.346  0.4181  0.0907  0.1075
10021TIP3    H151478   5.501   4.941  12.371  2.0936 -0.0141 -0.2317
10021TIP3    H251479   5.571   4.824  12.306 -0.2887 -1.3608 -0.5021
10022TIP3   OH251480   5.190   5.966   5.530  0.1411 -0.3521  0.0832
10022TIP3    H151481   5.194   6.061   5.521 -0.7975 -0.3550 -0.5779
10022TIP3    H251482   5.232   5.947   5.614 -0.7498  0.7561  0.8069
10023TIP3   OH251483   1.646   5.647  17.341 -0.1104  0.6707 -0.0590
10023TIP3    H151484   1.619   5.555  17.340 -0.0484  0.6517 -0.0258
10023TIP3    H251485   1.653   5.671  17.248  1.0681  0.2840 -0.0866
10024TIP3   OH251486   1.807   4.289   0.698  0.2639  0.6429  0.4538
10024TIP3    H151487   1.827   4.343   0.622 -0.3365  0.5400  0.2174
10024TIP3    H251488   1.811   4.350   0.772  0.5857  0.7976  0.3106
10025TIP3   OH251489   0.101   2.692   1.039  0.5515 -0.1001  0.0560
10025TIP3    H151490   0.126   2.776   1.000 -0.5221 -0.6668 -2.0355
10025TIP3    H251491   0.142   2.627   0.983  0.0310 -0.9712  0.6669
10026TIP3   OH251492   2.689   1.895   3.413 -0.2175  0.1624 -0.5057
10026TIP3    H151493   2.649   1.816   3.377  1.6911 -0.9340 -0.3456
10026TIP3    H251494   2.682   1.960   3.343  1.8006 -1.3891 -2.2801
10027TIP3   OH251495   2.857   1.687  17.274  0.1530 -0.0858 -0.0954
10027TIP3    H151496   2.911   1.625  17.225 -1.4317 -0.8685 -0.9344
10027TIP3    H251497   2.769   1.648  17.272 -0.2225  0.4964  2.2820
10028TIP3   OH251498   3.817   4.657   3.618 -0.3546 -1.0891  0.1328
10028TIP3    H151499   3.804   4.728   3.555  0.0090 -0.7019  0.4899
10028TIP3    H251500   3.732   4.645   3.659 -0.3504 -0.6748  0.2639
10029TIP3   OH251501   4.716   5.465  13.602  0.1964 -0.5495 -0.3129
10029TIP3    H151502   4.754   5.424  13.680  1.2034 -2.5292 -1.7334
10029TIP3    H251503   4.786   5.461  13.537 -1.8601 -3.1160 -2.6366
10030TIP3   OH251504   0.769   6.307   4.703  0.2349 -0.0259  0.1733
10030TIP3    H151505   0.710   6.252   4.755 -0.8121  0.7325 -0.1728
10030TIP3    H251506   0.716   6.383   4.680  0.7369 -0.2435 -1.8259
10031TIP3   OH251507   3.724   3.051  15.893  0.3934  0.4471 -0.6980
10031TIP3    H151508   3.690   3.125  15.842 -1.0132  0.4900  0.2274
10031TIP3    H251509   3.700   3.071  15.983  0.2596 -0.9879 -0.3853
10032TIP3   OH251510   3.752   5.837   1.780  0.2360  0.1553  0.1918
10032TIP3    H151511   3.838   5.825   1.739  1.3175  2.4805  1.5667
10032TIP3    H251512   3.746   5.765   1.844  0.7136 -0.5612 -0.5428
10033TIP3   OH251513   4.798   1.470   4.252 -0.1365 -0.1632 -0.1259
10033TIP3    H151514   4.738   1.431   4.315 -0.8624 -0.0806 -0.7501
10033TIP3    H251515   4.792   1.564   4.267 -0.7421 -0.1055 -0.6837
10034TIP3   OH251516   2.380   5.705  16.398 -0.3427  0.0894  0.4990
10034TIP3    H151517   2.310   5.770  16.392  0.0844  0.5272  0.2495
10034TIP3    H251518   2.459   5.756  16.418 -0.3110 -0.5094  2.1276
10035TIP3   OH251519   5.083   4.146   1.723 -0.3073 -0.0486 -0.3863
10035TIP3    H151520   5.105   4.170   1.633 -0.2377  1.8195  0.0781
10035TIP3    H251521   5.051   4.228   1.762  1.6845 -0.2596  1.8906
10036TIP3   OH251522   2.779   3.553   6.359  0.1557 -0.0888  0.1014
10036TIP3    H151523   2.725   3.500   6.418  2.1413 -1.3951  0.8730
10036TIP3    H251524   2.835   3.604   6.418  2.3568 -1.5961 -0.5571
10037TIP3   OH251525   5.265   4.190  15.719 -1.4211 -0.5130  0.0278
10037TIP3    H151526   5.186   4.136  15.712 -2.3485  0.6375  0.9618
10037TIP3    H251527   5.317   4.148  15.787 -1.1594 -1.3376 -0.6613
10038TIP3   OH251528   4.373   1.639   0.020 -0.2467  0.3018  0.0535
10038TIP3    H151529   4.432   1.708   0.049  0.6270 -0.9792  1.4682
10038TIP3    H251530   4.399   1.621  -0.070 -0.0725  1.3601 -0.1168
10039TIP3   OH251531   3.776   5.097  14.170  0.4718  0.1794 -0.7912
10039TIP3    H151532   3.800   5.184  14.203  1.0935 -0.3724  0.2632
10039TIP3    H251533   3.694   5.112  14.122 -0.3224  1.0922  0.7519
10040TIP3   OH251534   5.154   2.148  17.224  0.4557 -0.1046  0.3409
10040TIP3    H151535   5.090   2.217  17.208  0.3102 -0.2962  0.0769
10040TIP3    H251536   5.232   2.176  17.176  0.2771 -0.2973 -0.0667
10041TIP3   OH251537   5.540   6.693   0.290  0.1666  0.1648  0.0489
10041TIP3    H151538   5.514   6.625   0.352  2.2054  0.4744  1.3392
10041TIP3    H251539   5.605   6.745   0.338  0.3319  1.6445 -1.6867
10042TIP3   OH251540   1.487   0.773   5.746  0.1171 -0.6671  0.1336
10042TIP3    H151541   1.413   0.741   5.695 -0.6309 -1.0222  1.3837
10042TIP3    H251542   1.448   0.802   5.829  1.2042  0.4581  0.2906
10043TIP3   OH251543   5.195   4.862   3.909 -0.4728 -0.9296 -0.3778
10043TIP3    H151544   5.144   4.785   3.933 -2.1877  0.0187 -0.8006
10043TIP3    H251545   5.179   4.874   3.816 -0.2438 -0.0646 -0.3161
10044TIP3   OH251546   3.780   4.625  15.578 -0.3837  0.5354  0.4901
10044TIP3    H151547   3.760   4.536  15.606 -1.8914 -0.2131 -2.5419
10044TIP3    H251548   3.696   4.660  15.548  0.6076  2.0780 -0.6820
10045TIP3   OH251549   6.748   4.286   0.456 -0.0145 -0.9293 -0.0254
10045TIP3    H151550   6.803   4.349   0.409 -0.1862 -1.1961 -0.6001
10045TIP3    H251551   6.699   4.242   0.387  1.1380 -2.7040  0.2202
10046TIP3   OH251552   4.053   4.791  17.178 -0.6478  0.0318  0.1718
10046TIP3    H151553   4.055   4.713  17.233  0.3434 -0.2817 -0.2826
10046TIP3    H251554   4.051   4.758  17.088 -1.8161  0.5407 -0.0128
10047TIP3   OH251555   0.600   3.953   5.243 -0.1603  0.0961 -0.2504
10047TIP3    H151556   0.619   3.957   5.150 -0.1464  0.7923 -0.2262
10047TIP3    H251557   0.666   3.893   5.279 -0.7737 -0.9503 -0.8277
10048TIP3   OH251558   6.204   2.989  14.939 -0.4846  0.7051  0.3877
10048TIP3    H151559   6.202   2.913  14.998 -0.2476  1.5746  1.5631
10048TIP3    H251560   6.298   3.005  14.925 -0.5306  0.8391  0.2361
10049TIP3   OH251561   0.843   1.526  15.462 -0.5214  0.3286  0.6413
10049TIP3    H151562   0.853   1.617  15.433 -0.0755  0.3307  0.7895
10049TIP3    H251563   0.805   1.533  15.550 -1.2559  0.3427  0.3275
10050TIP3   OH251564   2.256   3.635   0.855  0.3839 -0.2128  0.0829
10050TIP3    H151565   2.307   3.616   0.934 -0.9921  0.6868  1.2686
10050TIP3    H251566   2.170   3.663   0.889  0.4786  2.5494 -1.5902
10051TIP3   OH251567   1.173   1.472  16.759  0.4692  0.2399 -0.3677
10051TIP3    H151568   1.219   1.552  16.735 -0.4752  0.4662 -1.5210
10051TIP3    H251569   1.097   1.503  16.809  0.0072  0.0868 -0.9672
10052TIP3   OH251570   0.031   4.469  14.462 -0.0987 -0.1169  0.4653
10052TIP3    H151571  -0.051   4.424  14.483  0.8324 -2.0033  0.3540
10052TIP3    H251572   0.012   4.516  14.381 -1.8316  1.8173  1.9012
10053TIP3   OH251573   5.140   2.552   4.399 -0.2269 -0.0718 -0.2204
10053TIP3    H151574   5.233   2.531   4.409 -0.4262 -0.3697  1.1074
10053TIP3    H251575   5.117   2.597   4.480 -0.5521  2.6797 -1.7129
10054TIP3   OH251576   1.270   3.755   0.508  0.5189 -0.8711 -0.2038
10054TIP3    H151577   1.251   3.681   0.565  0.5391 -1.3098 -0.7526
10054TIP3    H251578   1.348   3.729   0.459  1.0807 -0.1033  0.2456
10055TIP3   OH251579   6.258   0.273  14.013  0.3203 -0.0121  0.3603
10055TIP3    H151580   6.268   0.312  14.100  1.1467  0.3052  0.1320
10055TIP3    H251581   6.242   0.347  13.955 -0.5519 -0.2527  0.2761
10056TIP3   OH251582   0.981   3.461  13.822  0.6673  0.0074  0.4586
10056TIP3    H151583   0.966   3.552  13.799  1.3839 -0.6252 -3.0301
10056TIP3    H251584   1.074   3.458  13.847  0.1319  0.5087  2.8011
10057TIP3   OH251585   2.672   4.351   5.424  0.2849  0.2565 -0.0687
10057TIP3    H151586   2.608   4.313   5.364  1.2551 -0.3902 -0.7174
10057TIP3    H251587   2.632   4.433   5.453 -1.1949 -0.5190  0.1932
10058TIP3   OH251588   4.629   1.341   1.856  0.3623 -0.4062  0.2681
10058TIP3    H151589   4.581   1.421   1.835  0.1568 -1.0823 -2.0820
10058TIP3    H251590   4.589   1.310   1.937 -1.2366  0.5448 -0.1038
10059TIP3   OH251591   2.606   1.184  10.759 -0.0278 -0.0113  0.4386
10059TIP3    H151592   2.568   1.210  10.843  0.4737 -0.4315  0.8029
10059TIP3    H251593   2.670   1.252  10.740 -1.4936  1.1365 -0.5744
10060TIP3   OH251594   3.488   4.491   2.151  0.1020  0.2388  0.8395
10060TIP3    H151595   3.502   4.546   2.227 -0.5496  1.6855 -0.0379
10060TIP3    H251596   3.396   4.504   2.129  0.0556 -0.8554  0.3315
10061TIP3   OH251597   4.770   2.912   1.497 -0.2270  0.9596 -0.1779
10061TIP3    H151598   4.712   2.958   1.437 -2.1484  0.1840  0.9724
10061TIP3    H251599   4.728   2.923   1.583  0.6817 -0.6598  0.5095
10062TIP3   OH251600   2.969   0.030   0.407 -0.1913  0.0277  0.2458
10062TIP3    H151601   2.988   0.123   0.416 -2.2616  0.6547 -0.9703
10062TIP3    H251602   2.877   0.022   0.433 -0.0386 -1.6961  0.3816
10063TIP3   OH251603   6.128   6.664  13.377 -0.4880 -0.1434  0.0879
10063TIP3    H151604   6.078   6.710  13.310 -1.6347 -1.8870 -0.2958
10063TIP3    H251605   6.166   6.589  13.332  0.1801 -0.3728  1.0065
10064TIP3   OH251606   0.828   6.044  15.505  0.0908 -0.2076  0.2301
10064TIP3    H151607   0.883   5.990  15.448  1.3478 -0.4463  1.6311
10064TIP3    H251608   0.863   6.132  15.497 -0.5626  0.0095 -0.3498
10065TIP3   OH251609   4.353   3.172   2.043  0.2128  0.0167 -0.0157
10065TIP3    H151610   4.333   3.185   2.136  1.1907 -0.3235  0.2527
10065TIP3    H251611   4.301   3.239   1.998  0.4460  0.8152  0.8550
10066TIP3   OH251612   1.658   4.370   0.412 -0.3951  0.1335  0.0441
10066TIP3    H151613   1.654   4.451   0.361 -0.6163  0.4640  0.5840
10066TIP3    H251614   1.574   4.366   0.457 -1.0424 -1.2046 -1.1925
10067TIP3   OH251615   5.148   4.496  15.503  0.4020 -0.0498 -0.0773
10067TIP3    H151616   5.239   4.507  15.529  0.5987 -2.1166  0.2809
10067TIP3    H251617   5.152   4.471  15.410  0.4946 -2.9035  0.5849
10068TIP3   OH251618   5.534   4.692  16.852 -0.2797 -0.0367 -0.3342
10068TIP3    H151619   5.456   4.662  16.806  0.3168 -0.6615 -0.9705
10068TIP3    H251620   5.501   4.739  16.928 -1.3407  2.2183 -2.0655
10069TIP3   OH251621   2.928   6.502   1.548  0.1149 -0.1272 -0.7368
10069TIP3    H151622   2.953   6.410   1.560 -2.6821 -0.7952  0.8784
10069TIP3    H251623   2.963   6.525   1.462  1.6125 -2.4275 -0.8323
10070TIP3   OH251624   3.161   2.152  13.196  0.2092 -0.5056  0.4515
10070TIP3    H151625   3.096   2.208  13.154  1.4487  0.0171 -0.8439
10070TIP3    H251626   3.179   2.196  13.279 -1.9197 -1.3047  1.4208
10071TIP3   OH251627   5.587   4.471  15.297  0.6914  0.0092 -0.1060
10071TIP3    H151628   5.593   4.499  15.205 -0.6243 -2.7847 -1.1498
10071TIP3    H251629   5.672   4.431  15.315  0.8666  0.3409 -0.1849
10072TIP3   OH251630   6.478   1.480  10.958  0.3141 -0.5042  0.0109
10072TIP3    H151631   6.518   1.480  11.045 -0.8300 -0.9979  0.5507
10072TIP3    H251632   6.419   1.406  10.959  0.6530 -0.8099 -1.3785
10073TIP3   OH251633   5.955   5.469  12.213  0.2480 -0.0633 -0.1774
10073TIP3    H151634   5.956   5.547  12.156  2.0561 -1.2925 -1.9820
10073TIP3    H251635   6.048   5.448  12.226 -0.1920 -1.5200  0.8588
10074TIP3   OH251636   5.522   4.347  17.401 -0.3562  0.1881 -0.2072
10074TIP3    H151637   5.505   4.302  17.318  3.5092 -1.4810 -0.2942
10074TIP3    H251638   5.545   4.436  17.375 -0.3200  0.0116 -0.8035
10075TIP3   OH251639   0.299   5.421   0.797 -0.5345 -0.1878  0.6710
10075TIP3    H151640   0.291   5.326   0.804  0.9542 -0.3492  0.5220
10075TIP3    H251641   0.231   5.446   0.735  0.1918 -1.4027 -0.6762
10076TIP3   OH251642   6.353   3.216   1.713  0.0386  0.3266  0.4445
10076TIP3    H151643   6.279   3.207   1.652  1.3223  0.5969 -1.2290
10076TIP3    H251644   6.398   3.132   1.708 -0.2326  0.1069  1.5758
10077TIP3   OH251645   3.948   4.184   0.640 -0.0163 -0.5400  0.2225
10077TIP3    H151646   4.026   4.136   0.670  0.8279 -0.5926 -1.8584
10077TIP3    H251647   3.922   4.237   0.715 -0.0411 -3.0541  2.1099
10078TIP3   OH251648   5.289   2.557   2.545 -0.2524  0.1033  0.2823
10078TIP3    H151649   5.286   2.488   2.478 -0.6903 -0.9616  1.3789
10078TIP3    H251650   5.201   2.595   2.545 -0.3309 -0.0787  0.4397
10079TIP3   OH251651   2.520   4.413   0.575 -0.2390  0.2885  0.2426
10079TIP3    H151652   2.507   4.437   0.483 -1.6219  0.0159  0.3438
10079TIP3    H251653   2.455   4.344   0.591  0.1587  0.1544  1.3531
10080TIP3   OH251654   6.651   0.677   4.888  0.0516  0.6059 -0.2787
10080TIP3    H151655   6.706   0.623   4.945  0.4179  1.5367  0.2856
10080TIP3    H251656   6.570   0.688   4.937 -0.3026 -0.0289 -0.7162
10081TIP3   OH251657   1.226   4.705  15.512 -0.8607  0.1040 -0.0835
10081TIP3    H151658   1.172   4.728  15.436 -0.1424 -0.0805 -0.6646
10081TIP3    H251659   1.316   4.700  15.477 -0.7024 -1.4881  0.4409
10082TIP3   OH251660   2.678   1.516   0.941 -0.2439 -0.1053  0.4029
10082TIP3    H151661   2.687   1.543   1.033  0.7064 -1.8634  0.8803
10082TIP3    H251662   2.722   1.584   0.891  0.6309  0.0803  1.3992
10083TIP3   OH251663   5.266   5.874  14.970  0.5895 -0.8120 -0.0850
10083TIP3    H151664   5.192   5.857  15.029  1.2450 -2.2725  0.3523
10083TIP3    H251665   5.344   5.862  15.024  1.1881  1.5311 -0.3296
10084TIP3   OH251666   4.770   1.306  14.542  0.4330  0.0486 -0.1958
10084TIP3    H151667   4.852   1.257  14.539  0.4868  0.0766  0.5299
10084TIP3    H251668   4.791   1.383  14.596  0.5166  1.1909 -1.7910
10085TIP3   OH251669   5.868   0.674  11.850 -0.0315  0.3210  0.4445
10085TIP3    H151670   5.952   0.717  11.835  0.5689 -1.1994 -0.8280
10085TIP3    H251671   5.887   0.601  11.908 -0.8476  1.0774  1.7122
10086TIP3   OH251672   1.194   4.662  12.729  0.4966  0.0919 -0.1382
10086TIP3    H151673   1.258   4.601  12.692 -1.2130 -1.2666 -0.9730
10086TIP3    H251674   1.155   4.705  12.652  0.7179  1.2850  0.3853
10087TIP3   OH251675   0.902   3.823  14.799  0.1076  0.3522 -0.0272
10087TIP3    H151676   0.859   3.752  14.751  2.3900  0.0815 -1.8825
10087TIP3    H251677   0.871   3.814  14.889 -2.1814 -0.9225 -0.8657
10088TIP3   OH251678   0.232   1.737   0.760 -0.5333  0.1939 -0.2196
10088TIP3    H151679   0.216   1.754   0.853 -0.3909 -2.1913  0.3270
10088TIP3    H251680   0.266   1.647   0.759 -0.5306  0.1755 -2.5881
10089TIP3   OH251681   2.418   2.587   1.049  0.5095 -0.6026 -0.0772
10089TIP3    H151682   2.443   2.610   1.139 -0.0702  0.3992 -0.1560
10089TIP3    H251683   2.454   2.499   1.036  2.6079  0.1252  0.3430
10090TIP3   OH251684   5.238   0.185  17.098  0.7981  0.0964 -0.1639
10090TIP3    H151685   5.224   0.152  17.187 -0.8738  1.8554  0.2775
10090TIP3    H251686   5.159   0.161  17.050  0.5193  1.4565 -0.4273
10091TIP3   OH251687   3.006   5.387   3.462  0.5805  0.3173 -0.6017
10091TIP3    H151688   2.966   5.397   3.375  0.3334  0.8021 -0.4373
10091TIP3    H251689   2.938   5.414   3.523  0.5885 -0.5040 -0.2239
10092TIP3   OH251690   2.667   5.391  14.259 -0.8863 -0.4883 -0.1217
10092TIP3    H151691   2.576   5.421  14.262 -1.3878 -1.9848  0.5899
10092TIP3    H251692   2.692   5.381  14.350 -0.0406 -0.1936 -0.3194
10093TIP3   OH251693   5.911   1.829   1.426 -0.3219  0.2631  0.2833
10093TIP3    H151694   5.903   1.913   1.381 -0.4979  0.3634  0.5005
10093TIP3    H251695   6.001   1.802   1.409  1.2597  2.5617  3.7318
10094TIP3   OH251696   0.682   2.460   6.165 -0.3411  0.3115 -0.5243
10094TIP3    H151697   0.680   2.381   6.218  1.4112 -0.8401 -2.0402
10094TIP3    H251698   0.594   2.496   6.173 -2.6401 -3.9681 -2.8506
10095TIP3   OH251699   0.595   5.723   0.088 -0.2659  0.3495  0.1643
10095TIP3    H151700   0.626   5.799   0.039  0.8387 -0.2499 -0.1061
10095TIP3    H251701   0.610   5.649   0.029  2.1294 -0.5532  1.7360
10096TIP3   OH251702   2.859   4.547   1.348  0.1535  0.7049  0.0845
10096TIP3    H151703   2.823   4.472   1.396  2.3594 -0.3270  0.2429
10096TIP3    H251704   2.828   4.534   1.258  0.1208 -0.1571  0.2076
10097TIP3   OH251705   0.471   6.529   1.389  0.2226  0.3787 -0.0313
10097TIP3    H151706   0.510   6.446   1.416 -0.5588  0.0731  0.1783
10097TIP3    H251707   0.544   6.579   1.353  0.9058  0.0281  0.8428
10098TIP3   OH251708   6.677   6.730  15.194  0.1943  0.2260 -0.3955
10098TIP3    H151709   6.667   6.739  15.099  2.3923  0.9087 -0.6318
10098TIP3    H251710   6.705   6.640  15.207  2.5434  0.8376 -0.7506
10099TIP3   OH251711   1.401   5.060  17.107 -0.1027 -0.7421  0.1258
10099TIP3    H151712   1.379   5.049  17.200 -0.2657  0.5249  0.2540
10099TIP3    H251713   1.386   4.973  17.069  0.8448 -1.5120  1.4430
10100TIP3   OH251714   1.593   0.315   2.830  0.2082  0.7612 -0.3206
10100TIP3    H151715   1.512   0.267   2.810 -0.7824  2.4522 -0.5027
10100TIP3    H251716   1.658   0.246   2.844 -1.3624 -0.6575  0.3501
10101TIP3   OH251717   5.313   3.048  13.112 -0.2295  0.5832  0.9541
10101TIP3    H151718   5.407   3.064  13.102 -0.2884  0.0149 -1.1054
10101TIP3    H251719   5.304   2.954  13.098 -1.3214  0.9722 -1.5961
10102TIP3   OH251720   4.213   1.386  12.537 -0.2954 -0.4085  0.4167
10102TIP3    H151721   4.119   1.400  12.545 -0.2262 -0.1357  0.8253
10102TIP3    H251722   4.227   1.360  12.446 -0.7648 -0.4568  0.3579
10103TIP3   OH251723   5.947   0.529  14.460  0.0165 -0.2738  0.4242
10103TIP3    H151724   5.903   0.446  14.475 -1.4989  0.1445 -1.3105
10103TIP3    H251725   5.889   0.595  14.498 -0.6626  0.2405 -1.4008
10104TIP3   OH251726   3.268   3.535   0.198  0.0740 -0.3228  0.4859
10104TIP3    H151727   3.217   3.593   0.141  0.1284  0.1214  0.8896
10104TIP3    H251728   3.359   3.555   0.176  0.1663  1.4552  2.2838
10105TIP3   OH251729   2.254   0.029   1.045 -0.2488 -0.1831 -0.1320
10105TIP3    H151730   2.278   0.016   1.137 -2.0274 -1.0316  0.2728
10105TIP3    H251731   2.189   0.100   1.047 -1.7491 -1.4743 -0.4276
10106TIP3   OH251732   3.600   6.034  16.995  0.0058  0.2722  0.4041
10106TIP3    H151733   3.692   6.007  16.989 -0.2473 -0.4448 -0.5181
10106TIP3    H251734   3.603   6.129  17.002  0.8465  0.1950  1.2002
10107TIP3   OH251735   3.058   1.019   2.462 -0.0995 -0.5291 -0.4011
10107TIP3    H151736   2.995   1.090   2.478 -1.1752 -1.4498 -0.3583
10107TIP3    H251737   3.030   0.980   2.379  1.2865 -0.0827 -1.0955
10108TIP3   OH251738   5.511   6.516   0.497  0.2838 -0.4386  0.2628
10108TIP3    H151739   5.553   6.496   0.580 -0.6835 -0.1973  0.8248
10108TIP3    H251740   5.509   6.432   0.450 -1.9438 -1.3092  1.7702
10109TIP3   OH251741   2.781   1.888   3.947  0.2336  1.0844  0.7283
10109TIP3    H151742   2.806   1.962   3.891  0.3264 -0.2882 -1.1502
10109TIP3    H251743   2.686   1.896   3.955 -0.0716  0.2778 -1.3088
10110TIP3   OH251744   5.550   0.095  12.126 -0.7603 -0.0825 -1.0040
10110TIP3    H151745   5.628   0.147  12.149 -0.8327 -0.9095  1.3182
10110TIP3    H251746   5.483   0.123  12.188 -1.1494 -2.1091 -0.4428
10111TIP3   OH251747   1.330   3.787  11.702 -0.1956 -0.7422 -0.7758
10111TIP3    H151748   1.324   3.792  11.797  0.6107 -1.0911 -0.7024
10111TIP3    H251749   1.366   3.700  11.684  1.5757  0.0401 -1.2937
10112TIP3   OH251750   4.300   6.432   4.997  0.6831 -0.1806  0.4523
10112TIP3    H151751   4.370   6.408   5.058  1.7536  1.1964 -0.1779
10112TIP3    H251752   4.298   6.528   5.001 -0.2717 -0.1518 -0.5321
10113TIP3   OH251753   0.223   5.544  17.038  0.5180  0.2776 -0.0917
10113TIP3    H151754   0.182   5.464  17.006 -1.1919 -0.0442  2.5739
10113TIP3    H251755   0.156   5.612  17.024  1.6410  1.1133 -1.5997
10114TIP3   OH251756   5.674   2.090  14.042 -0.2119  0.2137 -0.2063
10114TIP3    H151757   5.604   2.026  14.059  0.4993 -0.6159 -0.3508
10114TIP3    H251758   5.696   2.126  14.128  1.1069 -1.5783  0.2595
10115TIP3   OH251759   6.107   1.053   2.370 -0.6511  0.8891  0.2343
10115TIP3    H151760   6.077   1.008   2.449 -1.7566 -1.4544 -1.3964
10115TIP3    H251761   6.106   1.146   2.394 -1.6904  0.3403  2.7028
10116TIP3   OH251762   0.701   4.572  14.319  0.3275 -0.3463  0.8588
10116TIP3    H151763   0.741   4.606  14.399 -0.8086 -0.4376  1.4798
10116TIP3    H251764   0.607   4.573  14.336  0.0443 -0.1821 -0.5505
10117TIP3   OH251765   2.674   2.866  15.469  0.5258  0.8897 -0.0147
10117TIP3    H151766   2.671   2.945  15.416 -0.2153  1.5290  0.9404
10117TIP3    H251767   2.583   2.834  15.468  0.3957  1.1833  1.2444
10118TIP3   OH251768   6.066   0.362   4.871 -0.6917 -0.3799 -0.0287
10118TIP3    H151769   6.131   0.431   4.886 -0.8662 -0.5919  1.9861
10118TIP3    H251770   6.111   0.299   4.815  0.7430 -0.3384  1.0148
10119TIP3   OH251771   0.663   0.521   2.072 -0.0070  0.3653  0.1004
10119TIP3    H151772   0.739   0.580   2.074  0.5472 -0.3593  1.0173
10119TIP3    H251773   0.680   0.457   2.141 -0.6221 -0.8526 -0.8382
10120TIP3   OH251774   0.067   6.053   0.383  0.1469 -0.3980  0.6774
10120TIP3    H151775   0.071   6.147   0.361  2.2119 -0.3137  1.1895
10120TIP3    H251776   0.003   6.017   0.323  0.1183  1.1679 -0.2881
10121TIP3   OH251777   3.745   5.961   4.393  0.4466  0.3026  0.3314
10121TIP3    H151778   3.698   5.917   4.464 -1.1263  1.8534  0.3013
10121TIP3    H251779   3.677   5.987   4.331  1.8062 -1.3345 -2.0109
10122TIP3   OH251780   0.701   0.674  14.198  0.7222  0.0633  0.0756
10122TIP3    H151781   0.713   0.759  14.241  1.0885 -0.2182  0.5499
10122TIP3    H251782   0.662   0.619  14.266  0.6573 -0.1972 -0.1735
10123TIP3   OH251783   0.695   0.010   3.698 -0.1652 -0.1163 -0.4955
10123TIP3    H151784   0.736  -0.068   3.659  0.8576 -0.0831  0.4584
10123TIP3    H251785   0.766   0.073   3.707 -1.1741  1.3605 -2.1865
10124TIP3   OH251786   5.010   3.500   1.504  0.2987 -0.0506  0.2698
10124TIP3    H151787   5.062   3.499   1.424  1.3154 -1.5976  0.8962
10124TIP3    H251788   5.000   3.593   1.525 -0.0428  0.3828 -1.6553
10125TIP3   OH251789   3.435   6.285   5.934  0.1586 -0.0986  0.2717
10125TIP3    H151790   3.482   6.324   5.860  0.3979 -0.5334  0.1902
10125TIP3    H251791   3.422   6.358   5.995  0.5151  0.1299  0.0811
10126TIP3   OH251792   4.891   0.955  16.673  0.5240 -0.7100 -0.4032
10126TIP3    H151793   4.826   0.945  16.603  0.6885 -0.9376 -0.5233
10126TIP3    H251794   4.947   0.878  16.664  1.1977 -0.1909 -0.6982
10127TIP3   OH251795   1.133   5.365  15.542  0.4198 -0.1455  0.4388
10127TIP3    H151796   1.135   5.451  15.501 -2.3990 -0.2983 -0.2459
10127TIP3    H251797   1.224   5.347  15.567  1.2394  2.5412 -0.3393
10128TIP3   OH251798   3.492   6.359   3.270 -0.2949 -0.3074 -0.4414
10128TIP3    H151799   3.496   6.444   3.314 -1.4384  0.4066 -1.6247
10128TIP3    H251800   3.441   6.304   3.330  0.0253 -0.0140  0.1081
10129TIP3   OH251801   5.825   3.088  11.240  0.2332  0.1284 -0.0070
10129TIP3    H151802   5.860   3.017  11.186 -0.4493 -0.0696 -0.1995
10129TIP3    H251803   5.868   3.078  11.324 -1.7763 -2.1553  0.8491
10130TIP3   OH251804   5.547   4.732   4.370 -0.2986  0.1853  0.0860
10130TIP3    H151805   5.470   4.727   4.312 -0.1546 -0.8266 -0.0309
10130TIP3    H251806   5.537   4.816   4.415 -0.8768  0.5895 -0.7634
10131TIP3   OH251807   3.846   2.788  15.829 -0.5661  0.0178  0.4271
10131TIP3    H151808   3.847   2.884  15.835  1.7995  0.1550 -1.0607
10131TIP3    H251809   3.853   2.758  15.920  0.3491  1.2858  0.7984
10132TIP3   OH251810   2.295   0.401  16.405 -0.4270  0.0088 -0.0359
10132TIP3    H151811   2.334   0.446  16.330 -0.2434 -0.0924  0.0007
10132TIP3    H251812   2.322   0.452  16.481 -0.2870 -0.1145 -0.0020
10133TIP3   OH251813   3.723   5.182  15.439  0.8492  0.6956  0.8476
10133TIP3    H151814   3.661   5.254  15.443  0.7729  0.8563 -1.4872
10133TIP3    H251815   3.804   5.222  15.409  1.1309  0.0044  0.6679
10134TIP3   OH251816   1.989   0.301  15.386  0.2638 -0.0159 -0.2652
10134TIP3    H151817   1.992   0.265  15.474 -1.4723 -0.2967 -0.2727
10134TIP3    H251818   2.075   0.339  15.372  0.8485 -0.7199  1.2249
10135TIP3   OH251819   3.664   3.473   4.267  0.1279  0.1980  0.2849
10135TIP3    H151820   3.727   3.439   4.204 -0.9066 -0.2137 -0.5566
10135TIP3    H251821   3.644   3.561   4.237  0.7178  0.5437  0.8798
10136TIP3   OH251822   3.137   5.380  15.848  0.5580 -0.5317 -0.3166
10136TIP3    H151823   3.163   5.452  15.791 -0.9697 -0.5406 -1.0880
10136TIP3    H251824   3.055   5.348  15.810 -0.8680 -0.1697  2.1810
10137TIP3   OH251825   6.026   6.225   2.816  0.3465  0.0584 -0.7104
10137TIP3    H151826   6.090   6.235   2.886 -0.9647 -0.0172  0.5560
10137TIP3    H251827   6.043   6.139   2.779  1.3212  0.2726 -0.7673
10138TIP3   OH251828   2.208   2.662  11.880  0.4951  0.2508 -0.2842
10138TIP3    H151829   2.302   2.680  11.876  0.4923  0.6877  1.0764
10138TIP3    H251830   2.192   2.642  11.972 -0.8619  0.8480 -0.3722
10139TIP3   OH251831   2.657   5.728  14.808 -0.4946 -0.2263  0.1592
10139TIP3    H151832   2.631   5.806  14.857 -0.9262 -0.7763  0.8227
10139TIP3    H251833   2.681   5.761  14.721 -3.3200  0.3589 -0.4808
10140TIP3   OH251834   0.472   5.148   5.928 -0.2108  0.5455 -0.9534
10140TIP3    H151835   0.444   5.132   5.838 -0.6017  2.0090 -1.1219
10140TIP3    H251836   0.567   5.163   5.921 -0.4872  2.3583 -1.4194
10141TIP3   OH251837   5.169   2.047  14.910  0.7006  0.0470  0.0223
10141TIP3    H151838   5.212   2.039  14.825  2.1644  0.6620  0.6784
10141TIP3    H251839   5.239   2.033  14.974 -0.5558 -1.4544  1.1586
10142TIP3   OH251840   4.684   4.968   5.376  0.5129 -0.4593 -0.4421
10142TIP3    H151841   4.735   4.918   5.440  1.0971  0.9275  0.2150
10142TIP3    H251842   4.624   4.904   5.338 -0.7911 -1.1060  2.4213
10143TIP3   OH251843   6.655   4.313   1.141  0.4749  0.0868 -0.1163
10143TIP3    H151844   6.741   4.305   1.100  0.7490 -0.9720  0.6369
10143TIP3    H251845   6.606   4.370   1.082  1.5746  0.4219 -0.7371
10144TIP3   OH251846   2.637   0.686   2.878  0.3810  0.0191  0.1475
10144TIP3    H151847   2.655   0.619   2.812  0.1278  0.3472 -0.2589
10144TIP3    H251848   2.672   0.766   2.840  0.0776  0.2434  0.3371
10145TIP3   OH251849   5.062   5.856   2.193  0.4674 -0.3088 -0.4918
10145TIP3    H151850   5.033   5.938   2.233  2.1023  0.5107 -0.8953
10145TIP3    H251851   4.988   5.797   2.204 -0.1318  0.6893  1.3429
10146TIP3   OH251852   3.014   3.777   3.757 -0.6685 -0.0522 -0.0603
10146TIP3    H151853   3.036   3.812   3.843  1.4964 -0.3151 -0.4520
10146TIP3    H251854   3.067   3.828   3.695 -2.6495  0.5633 -1.3425
10147TIP3   OH251855   1.445   1.175   2.988 -0.1019  0.7223 -0.0889
10147TIP3    H151856   1.473   1.099   2.937  0.5795  0.4181  0.7176
10147TIP3    H251857   1.495   1.248   2.952 -0.8653  0.8288 -0.9625
10148TIP3   OH251858   0.073   3.742   3.594 -0.2128  0.1631 -0.2288
10148TIP3    H151859  -0.015   3.751   3.558 -0.5231 -0.7749  0.2637
10148TIP3    H251860   0.107   3.831   3.598 -0.6842  0.4184 -1.5425
10149TIP3   OH251861   4.854   1.241   1.765 -0.0947 -0.4828 -0.3322
10149TIP3    H151862   4.870   1.311   1.701 -0.1539  1.1055  1.3181
10149TIP3    H251863   4.772   1.267   1.808 -0.2075 -1.6744  0.1905
10150TIP3   OH251864   3.590   1.693  16.823 -0.2981  0.0212 -0.7272
10150TIP3    H151865   3.512   1.709  16.876 -0.1319  1.1959 -0.8227
10150TIP3    H251866   3.569   1.729  16.737  0.2478  0.0786 -0.8407
10151TIP3   OH251867   4.431   6.643  13.790  0.4217  0.0236 -0.2792
10151TIP3    H151868   4.465   6.641  13.700  0.9282 -0.2632 -0.0844
10151TIP3    H251869   4.352   6.696  13.784 -0.6974 -1.6427 -1.2868
10152TIP3   OH251870   5.973   5.316   3.020 -0.4950  0.3668  0.0331
10152TIP3    H151871   5.942   5.299   2.931 -1.6409  0.2520  0.4364
10152TIP3    H251872   6.047   5.375   3.009  1.7123 -2.3899 -1.2362
10153TIP3   OH251873   5.959   4.707  15.600  0.4225  0.3755  0.3418
10153TIP3    H151874   6.049   4.708  15.633  1.6474 -1.0254 -2.6066
10153TIP3    H251875   5.938   4.614  15.588 -1.0867  0.7129  0.1322
10154TIP3   OH251876   6.312   6.523  13.809 -0.7104 -0.1581 -0.3069
10154TIP3    H151877   6.397   6.489  13.780 -1.6842 -1.1397 -2.2478
10154TIP3    H251878   6.324   6.618  13.812  1.1196 -0.3457  1.9473
10155TIP3   OH251879   5.098   0.729  16.708 -0.2369  0.1727 -0.2091
10155TIP3    H151880   5.081   0.641  16.673 -0.0449  0.4272 -0.9496
10155TIP3    H251881   5.024   0.747  16.766 -1.0547  0.1319 -1.2182
10156TIP3   OH251882   2.502   0.414  13.353 -0.1567 -0.1864  0.2456
10156TIP3    H151883   2.530   0.506  13.353 -0.1254 -0.1245 -2.2214
10156TIP3    H251884   2.493   0.392  13.445  0.2739  2.1603  0.9250
10157TIP3   OH251885   6.163   5.009   4.357  0.1152 -0.8591 -0.2253
10157TIP3    H151886   6.170   4.961   4.439  1.9481  1.5987  1.1986
10157TIP3    H251887   6.113   5.087   4.380  1.5083  0.3575 -1.1449
10158TIP3   OH251888   0.228   1.725   1.020  0.3328  0.3831 -0.8656
10158TIP3    H151889   0.247   1.774   1.100  1.4266 -0.4757 -0.5696
10158TIP3    H251890   0.295   1.656   1.018  0.2483  0.3111 -2.4521
10159TIP3   OH251891   4.354   0.253   5.149 -0.5266  0.2076 -0.1624
10159TIP3    H151892   4.320   0.172   5.186  1.2520 -0.6714 -0.3585
10159TIP3    H251893   4.380   0.305   5.225 -0.0371 -0.1519 -0.0838
10160TIP3   OH251894   1.582   4.839  13.755  0.2004 -0.3132 -0.3152
10160TIP3    H151895   1.588   4.921  13.705  0.4888  1.8397  2.9585
10160TIP3    H251896   1.636   4.778  13.705  1.6743  2.0687 -1.8827
10161TIP3   OH251897   4.544   5.844   3.629 -0.7162  0.3815  0.0702
10161TIP3    H151898   4.506   5.931   3.641 -1.7442  0.1741 -1.4188
10161TIP3    H251899   4.496   5.807   3.554  1.0031 -0.7179 -0.5436
10162TIP3   OH251900   1.542   3.669   0.428 -0.4970  0.0406  0.0102
10162TIP3    H151901   1.545   3.639   0.518 -1.0668 -1.6205 -0.4809
10162TIP3    H251902   1.633   3.688   0.405 -0.0062 -1.9258  0.1990
10163TIP3   OH251903   3.404   4.428   1.528  0.3298  0.2579  0.1286
10163TIP3    H151904   3.337   4.402   1.465  1.4785 -0.6522 -0.7767
10163TIP3    H251905   3.357   4.443   1.609 -0.9593 -0.4064 -0.4680
10164TIP3   OH251906   6.338   3.612  14.691 -0.2117  0.1103  0.5157
10164TIP3    H151907   6.397   3.687  14.685  1.0659 -0.9470 -1.3010
10164TIP3    H251908   6.396   3.537  14.702 -1.1622 -0.9547 -1.1552
10165TIP3   OH251909   4.248   5.511  16.854  0.1457  0.7966  0.1812
10165TIP3    H151910   4.289   5.473  16.777  1.3098  0.4169  0.9655
10165TIP3    H251911   4.162   5.470  16.859 -0.5168  1.8459 -1.6798
10166TIP3   OH251912   4.940   4.101   4.273 -0.3383  0.1070  1.0925
10166TIP3    H151913   4.851   4.085   4.242 -0.0540  0.0176  0.3142
10166TIP3    H251914   4.947   4.196   4.278 -0.8213  0.0989  2.1858
10167TIP3   OH251915   3.464   4.521   0.257  0.1749 -0.5694 -0.1941
10167TIP3    H151916   3.417   4.465   0.195  0.9708  0.6042 -1.9587
10167TIP3    H251917   3.555   4.518   0.227  0.6802 -0.3298  1.2384
10168TIP3   OH251918   2.423   4.163   5.002  0.1811 -0.2415 -1.0084
10168TIP3    H151919   2.333   4.175   4.971  0.2488  2.0725 -0.5054
10168TIP3    H251920   2.431   4.069   5.018 -1.6112 -0.7273 -2.6245
10169TIP3   OH251921   0.988   5.668  16.405  0.1092 -0.0235 -0.3136
10169TIP3    H151922   0.934   5.600  16.364 -1.7815  0.6976  0.8495
10169TIP3    H251923   0.931   5.746  16.408  1.9574  1.4323 -0.9577
10170TIP3   OH251924   2.026   6.186  12.081  0.2788  0.4306  0.3249
10170TIP3    H151925   2.014   6.224  12.168  2.1942  0.0797  0.7818
10170TIP3    H251926   1.966   6.236  12.025 -0.2947  1.3020  1.6600
10171TIP3   OH251927   3.173   5.370   5.575  0.7274 -0.5328 -0.5141
10171TIP3    H151928   3.221   5.365   5.658 -0.2466  1.2133  0.2201
10171TIP3    H251929   3.096   5.314   5.588  0.1555  0.3745  0.0903
10172TIP3   OH251930   3.478   5.432   2.674 -0.0988  0.1777 -0.9026
10172TIP3    H151931   3.385   5.408   2.670 -0.1147  0.1313 -0.3419
10172TIP3    H251932   3.513   5.380   2.746 -0.0461  1.4888  0.0595
10173TIP3   OH251933   3.934   4.826   1.548  0.0351  0.2787  0.3233
10173TIP3    H151934   3.938   4.862   1.459 -0.5394 -4.3634 -1.8859
10173TIP3    H251935   4.010   4.768   1.553 -1.4797 -1.7049  1.7042
10174TIP3   OH251936   1.532   3.670  15.385  0.1381  0.6755 -0.0067
10174TIP3    H151937   1.616   3.715  15.393  1.0261 -1.0812  1.0353
10174TIP3    H251938   1.503   3.657  15.475 -0.2612 -0.5168 -0.2885
10175TIP3   OH251939   2.765   2.396  14.620  0.0310  0.0178  0.0779
10175TIP3    H151940   2.733   2.317  14.664 -2.5388  0.6862 -0.4238
10175TIP3    H251941   2.792   2.367  14.533  0.4032 -0.4966  0.3605
10176TIP3   OH251942   1.921   1.458  12.871 -0.4987  0.9104  0.2330
10176TIP3    H151943   1.960   1.468  12.958  0.8798 -2.0865  0.0757
10176TIP3    H251944   1.940   1.541  12.827 -0.8189  2.3410  2.5587
10177TIP3   OH251945   2.126   0.924   2.285 -0.3607 -0.1121  0.6386
10177TIP3    H151946   2.182   0.968   2.221  0.5225 -2.2958 -0.2045
10177TIP3    H251947   2.181   0.913   2.362 -0.3923 -0.2285  0.6444
10178TIP3   OH251948   4.509   0.026  16.380  0.0176 -0.2365  0.7764
10178TIP3    H151949   4.458   0.100  16.411 -2.5909 -1.3841 -0.4964
10178TIP3    H251950   4.450  -0.023  16.323  2.1923 -2.3340  0.1131
10179TIP3   OH251951   3.278   5.192  15.295 -0.5288 -0.1461  0.1092
10179TIP3    H151952   3.356   5.152  15.257 -1.6592 -1.8441 -0.5800
10179TIP3    H251953   3.222   5.213  15.220 -0.0045  2.8737  0.4426
10180TIP3   OH251954   4.974   3.643   1.107  0.1586  0.3651  0.0865
10180TIP3    H151955   5.001   3.622   1.196 -0.0717  0.8148  0.2644
10180TIP3    H251956   5.056   3.664   1.062  0.4967 -1.6264 -0.3085
10181TIP3   OH251957   3.226   4.807  13.238  0.7814  0.6109 -0.2164
10181TIP3    H151958   3.232   4.864  13.161  0.9276 -0.5845 -1.1323
10181TIP3    H251959   3.314   4.769  13.246  0.3251 -0.5587 -0.5071
10182TIP3   OH251960   4.648   2.920   5.113 -0.1246 -0.1595  0.4798
10182TIP3    H151961   4.701   2.935   5.035 -1.1400  2.6601  0.1829
10182TIP3    H251962   4.563   2.890   5.079 -0.2067 -0.0124  0.5498
10183TIP3   OH251963   3.928   6.351   3.649  0.0758  0.5152 -0.3506
10183TIP3    H151964   3.887   6.411   3.587 -0.7851  0.0277 -0.2577
10183TIP3    H251965   3.856   6.305   3.690  0.7230 -0.6006 -0.4292
10184TIP3   OH251966   2.200   6.404  15.789 -0.3293 -0.1310 -0.9205
10184TIP3    H151967   2.238   6.462  15.855  0.7285 -2.3123  0.4731
10184TIP3    H251968   2.269   6.392  15.724 -0.8011  0.6665 -1.6077
10185TIP3   OH251969   2.255   4.286  17.311 -0.7571 -0.0737 -0.0536
10185TIP3    H151970   2.224   4.201  17.282 -3.0329 -0.0185  1.8945
10185TIP3    H251971   2.219   4.348  17.247 -0.0107 -0.4334 -0.8511
10186TIP3   OH251972   6.453   6.240  14.967  0.0045  0.1028 -0.3237
10186TIP3    H151973   6.365   6.232  15.005 -0.4338  1.9347 -0.8296
10186TIP3    H251974   6.508   6.183  15.020 -1.1721  0.2030  1.0598
10187TIP3   OH251975   1.848   5.886  15.826  0.4921 -0.3093  0.3982
10187TIP3    H151976   1.833   5.975  15.793 -0.4296 -0.5180  0.2168
10187TIP3    H251977   1.910   5.898  15.898  0.1610  0.5238  0.5675
10188TIP3   OH251978   6.716   4.416  13.608  0.0305  0.0802  0.2230
10188TIP3    H151979   6.791   4.443  13.660 -0.3898 -1.0589  1.4763
10188TIP3    H251980   6.660   4.369  13.669 -0.3759 -1.5184 -1.2834
10189TIP3   OH251981   6.340   3.714  13.084  0.0814 -0.3729 -0.0135
10189TIP3    H151982   6.364   3.805  13.103  1.4583 -0.4639 -1.1426
10189TIP3    H251983   6.300   3.716  12.997  0.1977 -0.8504 -0.0856
10190TIP3   OH251984   3.591   2.785   0.893 -0.1670 -0.0260  0.4494
10190TIP3    H151985   3.642   2.717   0.849 -2.3791 -1.4920  0.0054
10190TIP3    H251986   3.655   2.855   0.910  1.9456 -1.7047 -0.1065
10191TIP3   OH251987   4.540   3.495   4.485 -0.1672  0.0962  0.1965
10191TIP3    H151988   4.597   3.433   4.531  0.4074  0.4347 -0.0487
10191TIP3    H251989   4.530   3.458   4.398 -0.9915 -0.3792  0.4873
10192TIP3   OH251990   5.011   3.617  15.494 -0.1415  0.0273  0.1280
10192TIP3    H151991   4.940   3.680  15.509  0.4819  1.6894 -2.9940
10192TIP3    H251992   5.079   3.668  15.451  0.6344 -2.6784 -2.1193
10193TIP3   OH251993   4.953   4.259  15.911  0.1323  0.0868 -0.4500
10193TIP3    H151994   4.970   4.346  15.874 -0.4074 -0.0336 -1.0045
10193TIP3    H251995   5.016   4.250  15.982 -0.9869  1.6767  0.8165
10194TIP3   OH251996   5.013   0.309   0.067 -0.3526  0.3812  0.0975
10194TIP3    H151997   5.039   0.393   0.027 -0.5082  0.5912  0.4353
10194TIP3    H251998   4.976   0.333   0.152  0.1534 -0.0816  0.4577
10195TIP3   OH251999   5.411   3.461  14.609  0.3191 -0.5574  0.0480
10195TIP3    H152000   5.367   3.540  14.578  0.6473  0.0479  1.0635
10195TIP3    H252001   5.341   3.408  14.647  0.0002 -1.0618 -1.2235
10196TIP3   OH252002   4.821   1.634  13.667 -0.1678 -0.9696  0.2980
10196TIP3    H152003   4.820   1.633  13.571  1.4930 -0.8073  0.2606
10196TIP3    H252004   4.737   1.594  13.691 -1.0008 -0.2511 -1.2061
10197TIP3   OH252005   5.256   2.276   5.902 -0.3302 -0.6228 -0.3655
10197TIP3    H152006   5.191   2.218   5.861  1.4515 -2.1149 -1.2300
10197TIP3    H252007   5.298   2.221   5.968 -0.1980  0.4432  0.4614
10198TIP3   OH252008   3.323   4.005   0.015 -0.5872  0.2737  0.2886
10198TIP3    H152009   3.368   4.087  -0.007 -0.9972 -0.0476 -2.0920
10198TIP3    H252010   3.266   4.027   0.088  1.7699  1.2312  1.9753
10199TIP3   OH252011   3.761   1.768   6.249 -0.8171 -0.3348 -0.3908
10199TIP3    H152012   3.779   1.832   6.180  0.5033 -2.1504 -1.8120
10199TIP3    H252013   3.763   1.820   6.330 -0.4065  1.5206 -1.5205
10200TIP3   OH252014   0.932   5.165   1.358 -0.1198 -0.2432  0.1630
10200TIP3    H152015   0.961   5.244   1.403  2.6188 -1.0495 -0.0265
10200TIP3    H252016   0.851   5.141   1.403  1.3297  0.1806  3.2990
10201TIP3   OH252017   2.012   4.242  14.893  0.5087  0.1441 -0.5796
10201TIP3    H152018   2.018   4.298  14.815  0.3608  0.4269 -0.3902
10201TIP3    H252019   2.086   4.182  14.886  1.6675  1.4489  0.0722
10202TIP3   OH252020   2.270   4.903  16.713  0.2289 -0.1703 -0.0761
10202TIP3    H152021   2.186   4.872  16.680 -0.9343  1.5469  1.1503
10202TIP3    H252022   2.321   4.924  16.634 -1.8582  2.2678 -0.8778
10203TIP3   OH252023   2.094   4.372   5.999 -0.4061 -0.8759  0.0738
10203TIP3    H152024   2.186   4.346   6.007  0.8730  2.5550 -1.4580
10203TIP3    H252025   2.070   4.403   6.087  0.0130 -1.4743  0.4042
10204TIP3   OH252026   4.848   4.281   3.646  0.3257 -0.4168  0.2117
10204TIP3    H152027   4.811   4.222   3.580  0.1039 -0.7869  0.6665
10204TIP3    H252028   4.942   4.262   3.646  0.2541 -0.7731  0.3619
10205TIP3   OH252029   0.459   0.880   6.173 -0.4631  0.1098  0.2155
10205TIP3    H152030   0.460   0.793   6.134  0.7904 -0.1653  0.8213
10205TIP3    H252031   0.408   0.869   6.254  0.7744 -0.3782  0.9507
10206TIP3   OH252032   3.780   1.923  17.180  0.3104  0.5583  0.7483
10206TIP3    H152033   3.694   1.881  17.168  0.0624  1.0833  0.6441
10206TIP3    H252034   3.772   1.968  17.265 -0.6888  3.3056 -0.6839
10207TIP3   OH252035   6.200   1.575   3.751  0.1130 -0.0631  0.3895
10207TIP3    H152036   6.148   1.619   3.819  1.7768 -0.1803  1.8194
10207TIP3    H252037   6.249   1.646   3.710 -1.0801  0.0406 -0.9180
10208TIP3   OH252038   1.444   2.204  11.033  1.0827  0.4976 -0.3059
10208TIP3    H152039   1.468   2.297  11.024  1.5458  0.5215  0.9466
10208TIP3    H252040   1.451   2.169  10.944  3.2933  1.1200 -0.4366
10209TIP3   OH252041   1.034   3.930   2.506 -0.0827  0.3151  0.2029
10209TIP3    H152042   1.086   3.934   2.425 -0.8024 -0.7764 -0.3557
10209TIP3    H252043   1.061   4.006   2.556  0.3341  1.0706 -1.1073
10210TIP3   OH252044   0.935   4.450  13.151 -0.0313  0.4278 -0.0067
10210TIP3    H152045   0.845   4.475  13.171  0.1517  0.8693  0.2854
10210TIP3    H252046   0.970   4.420  13.235 -0.4217 -1.4125 -0.4495
10211TIP3   OH252047   4.294   0.337   3.130 -0.3584  0.8032 -0.2991
10211TIP3    H152048   4.252   0.352   3.215 -0.5945 -0.0531 -0.2614
10211TIP3    H252049   4.379   0.379   3.138  0.1881 -0.4529  0.8604
10212TIP3   OH252050   4.947   0.412   1.691  0.8256 -0.2141  0.3247
10212TIP3    H152051   4.882   0.443   1.754 -0.5837  0.8896 -1.5653
10212TIP3    H252052   4.925   0.321   1.676 -0.1672  0.0998 -0.1523
10213TIP3   OH252053   5.882   2.975  11.509  0.4319  0.0604  0.7495
10213TIP3    H152054   5.798   2.929  11.519 -0.3932  1.1034 -0.8046
10213TIP3    H252055   5.882   3.039  11.579  0.8160 -1.1659  1.9037
10214TIP3   OH252056   0.903   2.445   3.388 -0.6651  0.0834 -0.0578
10214TIP3    H152057   0.974   2.390   3.422 -0.5043  0.4179  0.1574
10214TIP3    H252058   0.919   2.451   3.294  1.2608  2.4503  0.3128
10215TIP3   OH252059   4.247   0.365  15.730 -0.4301  0.0042  0.1668
10215TIP3    H152060   4.184   0.312  15.682 -0.9864  0.0897  0.7878
10215TIP3    H252061   4.194   0.419  15.788  0.2199 -0.0394  0.8245
10216TIP3   OH252062   1.678   2.458  12.696 -0.1062 -0.0795 -0.1011
10216TIP3    H152063   1.692   2.386  12.757  1.1106  0.9525  0.9005
10216TIP3    H252064   1.609   2.511  12.736  0.6519  0.5670  0.3771
10217TIP3   OH252065   1.878   6.142   0.221  0.2796 -0.3146  0.6974
10217TIP3    H152066   1.971   6.165   0.224  0.1309  1.3040 -2.5955
10217TIP3    H252067   1.837   6.200   0.285  1.3939 -0.4405  1.5663
10218TIP3   OH252068   4.994   4.361  14.887  0.4032  0.2393 -0.7231
10218TIP3    H152069   4.983   4.352  14.792 -0.9745  1.0873 -0.6680
10218TIP3    H252070   4.928   4.425  14.913  1.8040  1.2365  0.5940
10219TIP3   OH252071   3.746   5.898  14.990 -0.2732 -0.1579 -0.2926
10219TIP3    H152072   3.658   5.910  14.954  0.0386 -1.7531 -1.7143
10219TIP3    H252073   3.775   5.814  14.954  1.3963 -0.2147  1.0752
10220TIP3   OH252074   6.289   3.004   2.750  0.0837  0.0217 -0.2851
10220TIP3    H152075   6.253   2.937   2.692  0.9884 -1.1426  0.4829
10220TIP3    H252076   6.237   3.082   2.729  0.1370 -0.4385 -2.3978
10221TIP3   OH252077   3.547   5.647   3.033  0.0453 -0.3130 -0.2585
10221TIP3    H152078   3.551   5.743   3.033  0.2842 -0.3135 -1.0321
10221TIP3    H252079   3.460   5.626   3.000 -0.4559 -0.3700  1.0422
10222TIP3   OH252080   4.864   0.458   2.621  0.2653 -0.0036  0.5806
10222TIP3    H152081   4.854   0.553   2.617 -0.9426 -0.1422 -0.1107
10222TIP3    H252082   4.901   0.442   2.708  0.0204  1.0610  0.8973
10223TIP3   OH252083   0.280   4.771  10.780 -0.5395 -0.0471 -0.4648
10223TIP3    H152084   0.231   4.732  10.852  0.7162 -2.0695 -0.6334
10223TIP3    H252085   0.229   4.849  10.756 -2.3993 -0.7799  0.8456
10224TIP3   OH252086   4.204   6.231   2.698 -0.4435 -0.2455 -0.4823
10224TIP3    H152087   4.221   6.312   2.746  0.2385 -0.4525 -0.3644
10224TIP3    H252088   4.176   6.169   2.765  1.9480 -0.9711 -0.0694
10225TIP3   OH252089   0.925   2.303  16.119  0.9648  0.1314 -0.0690
10225TIP3    H152090   0.904   2.341  16.205  0.1848 -0.7520  0.1468
10225TIP3    H252091   1.002   2.352  16.090  1.6074  0.0674  1.3969
10226TIP3   OH252092   4.468   1.701  11.520 -0.0419  0.4296 -0.1269
10226TIP3    H152093   4.549   1.738  11.485  0.0320 -0.1594 -0.5862
10226TIP3    H252094   4.488   1.679  11.611  0.3956  0.0285 -0.3202
10227TIP3   OH252095   2.493   1.327  10.997  0.1200 -0.1226  0.4173
10227TIP3    H152096   2.466   1.345  11.087 -0.2945  1.7503 -0.0517
10227TIP3    H252097   2.446   1.391  10.944  2.3692  0.5923 -0.8606
10228TIP3   OH252098   1.134   5.893  15.590  0.2762  0.2301  0.2521
10228TIP3    H152099   1.111   5.976  15.631 -0.9476 -0.3738  0.8334
10228TIP3    H252100   1.077   5.829  15.632  1.1866 -0.9085 -0.1971
10229TIP3   OH252101   4.075   1.411   4.308  0.2398  0.6449 -0.1722
10229TIP3    H152102   4.104   1.353   4.377 -1.2566  2.5155  2.1996
10229TIP3    H252103   3.991   1.375   4.280  0.5215  0.2692 -0.5454
10230TIP3   OH252104   0.773   0.430  15.005  0.1887  0.6655 -0.4909
10230TIP3    H152105   0.708   0.389  15.061  0.8534 -1.1372 -0.9751
10230TIP3    H252106   0.739   0.418  14.916  0.3489  1.2837 -0.6434
10231TIP3   OH252107   6.352   2.602  17.001 -0.3460  0.3611 -0.2469
10231TIP3    H152108   6.339   2.567  16.912 -0.5283 -1.8401  0.5860
10231TIP3    H252109   6.392   2.688  16.987 -0.9162  0.3332 -2.4684
10232TIP3   OH252110   4.756   1.756  11.818  0.2267  0.0184 -0.1967
10232TIP3    H152111   4.822   1.804  11.769  0.4605 -0.9789 -0.8678
10232TIP3    H252112   4.701   1.824  11.858  1.4015  0.8475  0.0347
10233TIP3   OH252113   2.704   2.700   6.153 -0.2494  0.1100  0.1972
10233TIP3    H152114   2.785   2.725   6.109 -0.0490  1.3766  1.2094
10233TIP3    H252115   2.662   2.637   6.095  2.0961 -1.6172  0.2630
10234TIP3   OH252116   3.812   0.037   0.971 -0.1033 -0.3892  0.4545
10234TIP3    H152117   3.797  -0.024   0.899 -0.3991 -1.0508  1.0648
10234TIP3    H252118   3.780  -0.009   1.049 -2.0480  1.2038  0.7043
10235TIP3   OH252119   1.345   6.458   3.300 -0.0394  0.1392 -0.2548
10235TIP3    H152120   1.265   6.510   3.309  0.3363  0.5889  0.4884
10235TIP3    H252121   1.353   6.411   3.383 -0.1653 -0.8323 -0.7717
10236TIP3   OH252122   3.458   5.123  12.610  0.3206 -0.2243 -0.3005
10236TIP3    H152123   3.513   5.072  12.670 -0.3784  0.4829  0.9804
10236TIP3    H252124   3.501   5.208  12.604  0.7610 -0.5034 -1.3840
10237TIP3   OH252125   4.929   4.428  11.059 -0.0095  0.8651  0.0748
10237TIP3    H152126   4.901   4.350  11.009 -0.6163  1.4683 -0.5503
10237TIP3    H252127   4.917   4.501  10.998  1.0761  1.3933  0.4711
10238TIP3   OH252128   4.448   2.754   5.942  0.5062 -0.1281  0.5838
10238TIP3    H152129   4.463   2.668   5.980  0.9794 -0.0031  0.6926
10238TIP3    H252130   4.531   2.801   5.955  0.9389 -0.3081 -1.2014
10239TIP3   OH252131   4.762   0.573  14.301  0.0481  0.2187 -0.8074
10239TIP3    H152132   4.679   0.543  14.263  0.3234 -0.8090 -0.6277
10239TIP3    H252133   4.821   0.498  14.293  1.2263  1.1947 -1.6555
10240TIP3   OH252134   1.596   3.336  14.367  0.1141  0.5125  0.0667
10240TIP3    H152135   1.676   3.291  14.394 -0.8721 -0.6485  1.1730
10240TIP3    H252136   1.526   3.276  14.389 -1.0340  1.0970 -1.7587
10241TIP3   OH252137   0.863   0.151  17.387  0.5152 -0.4263  0.0013
10241TIP3    H152138   0.928   0.121  17.452  0.0825  1.2916  1.3000
10241TIP3    H252139   0.882   0.244  17.376 -0.9100 -0.1916 -0.5812
10242TIP3   OH252140   0.508   5.200   2.325 -0.1762 -0.1224  0.1925
10242TIP3    H152141   0.450   5.258   2.275 -1.0399 -1.8707 -0.9284
10242TIP3    H252142   0.578   5.177   2.264  0.1247 -0.3058  0.6031
10243TIP3   OH252143   2.258   5.147  13.567 -0.0113  0.8366 -0.4764
10243TIP3    H152144   2.180   5.131  13.619  0.0816  2.2896  0.1797
10243TIP3    H252145   2.300   5.062  13.558 -1.4711  0.0991 -0.5403
10244TIP3   OH252146   3.002   4.479   1.640 -0.3636  0.2751 -0.4186
10244TIP3    H152147   2.928   4.478   1.579 -0.9240 -3.9610  0.0055
10244TIP3    H252148   3.057   4.406   1.612  2.8917  2.2162  0.3402
10245TIP3   OH252149   6.162   2.804   4.780  0.0160  0.2882  0.0628
10245TIP3    H152150   6.169   2.724   4.833  1.3765 -0.4453 -1.1305
10245TIP3    H252151   6.158   2.875   4.844 -1.4078 -0.7322  1.1526
10246TIP3   OH252152   5.760   6.038  13.419 -0.5267  0.3202 -0.1424
10246TIP3    H152153   5.828   5.973  13.406  0.2935  0.8325  1.3418
10246TIP3    H252154   5.710   6.038  13.338  1.6085  0.3601 -1.5242
10247TIP3   OH252155   2.121   6.201  14.504  0.1153  0.5633 -0.4408
10247TIP3    H152156   2.117   6.288  14.545  3.5629  0.8271 -0.3481
10247TIP3    H252157   2.125   6.219  14.410 -1.8928  0.2777 -0.6234
10248TIP3   OH252158   5.813   4.941   1.500 -0.0053  0.2573  0.2074
10248TIP3    H152159   5.812   5.035   1.515 -0.1965  0.5614 -1.6002
10248TIP3    H252160   5.723   4.918   1.479  0.0855 -0.2923  0.3810
10249TIP3   OH252161   1.456   3.016   5.347 -0.6044 -0.0202 -0.2547
10249TIP3    H152162   1.405   3.089   5.383 -0.1699 -1.0163  2.6766
10249TIP3    H252163   1.394   2.944   5.340 -0.3214 -0.3104  0.1597
10250TIP3   OH252164   6.617   2.723   3.142 -0.3081 -0.1416  0.3351
10250TIP3    H152165   6.546   2.761   3.194  1.3686  1.9502  1.2433
10250TIP3    H252166   6.650   2.651   3.196 -1.1052 -0.5153  0.3355
10251TIP3   OH252167   6.470   4.951  12.573 -0.0868 -0.2472 -0.5071
10251TIP3    H152168   6.449   5.023  12.632 -0.8764 -0.3785 -0.6180
10251TIP3    H252169   6.519   4.889  12.627  3.1754  1.5853 -1.0619
10252TIP3   OH252170   4.530   2.263   3.003 -0.3771  0.1391 -0.0751
10252TIP3    H152171   4.610   2.311   3.022 -1.0816  1.2290  0.2856
10252TIP3    H252172   4.505   2.291   2.914  0.3987 -1.3247 -0.7886
10253TIP3   OH252173   5.641   2.343   2.515 -0.1432 -0.0084 -0.0532
10253TIP3    H152174   5.730   2.309   2.503  0.9550  1.7438  2.4176
10253TIP3    H252175   5.622   2.329   2.607 -2.3235  0.0289 -0.4396
10254TIP3   OH252176   3.660   5.989   4.091 -0.2098  0.1576 -0.1860
10254TIP3    H152177   3.694   5.986   4.001  1.8451  1.2830  0.4833
10254TIP3    H252178   3.649   6.083   4.109 -0.5504 -0.0561  0.7503
10255TIP3   OH252179   0.126   1.241  15.639  0.1733 -0.0296  0.1849
10255TIP3    H152180   0.050   1.289  15.674  0.6360 -0.7090  2.2933
10255TIP3    H252181   0.185   1.310  15.608 -0.4478  0.6096  0.3691
10256TIP3   OH252182   0.184   0.162   2.718  0.6725 -0.1869 -0.0486
10256TIP3    H152183   0.204   0.238   2.663  0.2582 -1.0780 -1.4927
10256TIP3    H252184   0.189   0.195   2.807  0.3720  1.5656 -0.6439
10257TIP3   OH252185   2.291   0.976  12.815 -0.6687 -0.0304  0.4294
10257TIP3    H152186   2.342   0.987  12.735 -2.5861  0.7906 -0.7714
10257TIP3    H252187   2.313   1.052  12.869 -0.6777  0.3786 -0.1298
10258TIP3   OH252188   3.934   6.027   3.809  0.2288 -0.3053  0.0342
10258TIP3    H152189   3.864   5.961   3.810  1.2056 -1.4049 -1.0563
10258TIP3    H252190   3.923   6.074   3.891 -1.5123 -0.7406  0.1028
10259TIP3   OH252191   3.988   5.291   5.573  0.2170 -0.0534 -0.6192
10259TIP3    H152192   4.043   5.257   5.644  1.6203  1.4648 -0.9131
10259TIP3    H252193   3.898   5.273   5.601  0.7965 -1.0548  0.7022
10260TIP3   OH252194   4.654   4.709   5.905 -0.1620 -0.4789  0.0472
10260TIP3    H152195   4.582   4.756   5.946  0.8562  1.3249 -0.1069
10260TIP3    H252196   4.695   4.775   5.848  1.0637 -1.7063 -0.5291
10261TIP3   OH252197   1.788   0.154   5.402 -0.2459 -0.0994 -0.8466
10261TIP3    H152198   1.752   0.174   5.488 -0.0956  2.3074 -1.2896
10261TIP3    H252199   1.723   0.096   5.362 -0.5301 -0.8897  0.6838
10262TIP3   OH252200   3.613   2.722  13.078  0.2685  0.3066 -0.0328
10262TIP3    H152201   3.639   2.715  12.987  1.7423 -0.7617  0.4368
10262TIP3    H252202   3.541   2.786  13.078  1.2824  1.5200 -1.7252
10263TIP3   OH252203   0.116   4.155  12.108 -0.3252  0.2340 -1.0543
10263TIP3    H152204   0.174   4.129  12.180 -1.4519  0.1411 -0.1581
10263TIP3    H252205   0.091   4.245  12.128 -0.8572  0.1192 -1.1849
10264TIP3   OH252206   2.239   2.964   4.424  0.0535 -0.2739  0.6892
10264TIP3    H152207   2.195   2.948   4.340 -0.6188  4.2377 -0.0390
10264TIP3    H252208   2.174   2.941   4.490  0.4657 -3.5468  0.1491
10265TIP3   OH252209   0.271   1.906   0.350  0.0069  0.2089  0.0167
10265TIP3    H152210   0.267   1.826   0.297 -1.5794  0.7330 -0.7026
10265TIP3    H252211   0.352   1.948   0.323 -0.0683 -0.2422 -0.9664
10266TIP3   OH252212   3.543   1.469  13.872 -0.2419 -0.3739 -0.1575
10266TIP3    H152213   3.631   1.483  13.905  0.6255 -1.8865 -1.6475
10266TIP3    H252214   3.539   1.375  13.855 -1.3406 -0.0148 -2.2295
10267TIP3   OH252215   3.735   4.234  12.795  0.1893 -0.5486 -0.6974
10267TIP3    H152216   3.694   4.153  12.765  0.1911 -0.8771  0.1371
10267TIP3    H252217   3.662   4.289  12.822  0.2482 -0.8497  0.1045
10268TIP3   OH252218   0.606   1.259   3.241 -0.4276  0.2832  0.2754
10268TIP3    H152219   0.621   1.293   3.153 -1.3135 -1.4197 -0.5815
10268TIP3    H252220   0.690   1.220   3.266 -0.4398 -0.0775 -0.2262
10269TIP3   OH252221   0.256   0.260   6.368 -0.0128 -0.2196 -0.8750
10269TIP3    H152222   0.309   0.189   6.331 -0.8841 -1.9326  1.0102
10269TIP3    H252223   0.170   0.222   6.380 -0.5746  1.2491 -0.0215
10270TIP3   OH252224   4.326   4.853  13.219  0.2317 -0.1979  0.1793
10270TIP3    H152225   4.406   4.800  13.215 -0.3020 -1.0382  0.3129
10270TIP3    H252226   4.345   4.922  13.282  1.1146  0.0713 -0.3684
10271TIP3   OH252227   1.091   0.440   0.227  0.4665  0.5430  0.3414
10271TIP3    H152228   1.088   0.456   0.133  1.7229  1.4930  0.4472
10271TIP3    H252229   1.000   0.452   0.256 -0.4392 -2.1086 -1.0668
10272TIP3   OH252230   1.440   5.862   2.684  0.2669  0.3347  0.2306
10272TIP3    H152231   1.390   5.924   2.631  0.8732 -0.0665 -0.8370
10272TIP3    H252232   1.524   5.854   2.639 -0.3726 -2.5353 -0.6157
10273TIP3   OH252233   4.163   2.860  16.247  0.0243  0.1298  0.5197
10273TIP3    H152234   4.255   2.874  16.268  0.4789  0.2072 -1.3597
10273TIP3    H252235   4.164   2.807  16.167 -1.5912 -0.9055  1.1200
10274TIP3   OH252236   4.238   4.772   3.326 -0.3266  0.2972  0.7302
10274TIP3    H152237   4.175   4.710   3.291  3.1248 -2.7132 -0.8549
10274TIP3    H252238   4.296   4.792   3.253  1.4229  1.6856  2.3787
10275TIP3   OH252239   5.364   1.995  15.116 -1.2435  0.0690 -0.5780
10275TIP3    H152240   5.407   2.043  15.186 -2.2210  0.4636 -0.2408
10275TIP3    H252241   5.426   1.998  15.043  1.6698 -3.7359  1.3799
10276TIP3   OH252242   3.312   5.140  12.399  0.0208 -0.0339 -0.3089
10276TIP3    H152243   3.340   5.123  12.489 -1.6275  0.2315  0.2917
10276TIP3    H252244   3.326   5.057  12.354 -0.9890 -0.7842  0.7089
10277TIP3   OH252245   2.280   0.354  15.853 -0.4042  0.0063  0.1183
10277TIP3    H152246   2.335   0.309  15.789 -0.6517 -0.1396  0.0057
10277TIP3    H252247   2.276   0.294  15.927 -2.0582 -0.9129 -0.6588
10278TIP3   OH252248   0.125   0.668   4.086  0.0152  0.4564 -0.3021
10278TIP3    H152249   0.115   0.703   4.175  1.6855 -0.0223  0.1161
10278TIP3    H252250   0.216   0.640   4.082 -0.2987 -0.4418 -1.8594
10279TIP3   OH252251   2.217   0.599   4.839 -0.4927  0.5195 -0.2675
10279TIP3    H152252   2.242   0.691   4.836 -0.6509  0.5618 -0.2542
10279TIP3    H252253   2.225   0.569   4.748 -2.4989  1.0803 -0.6639
10280TIP3   OH252254   1.978   2.258   0.629  0.2683 -0.0736  0.0118
10280TIP3    H152255   1.981   2.172   0.671 -1.4542 -0.7255 -1.0839
10280TIP3    H252256   1.959   2.319   0.701 -0.3859 -0.8703  0.5322
10281TIP3   OH252257   3.164   3.419  15.189 -0.0477  0.4287 -0.5088
10281TIP3    H152258   3.122   3.503  15.207  0.0147  0.9985 -2.7231
10281TIP3    H252259   3.098   3.370  15.139 -0.3836 -1.2024  1.4224
10282TIP3   OH252260   1.621   1.607  16.446  0.1417 -0.4121  0.4026
10282TIP3    H152261   1.584   1.694  16.463 -0.4745 -0.7641  0.9059
10282TIP3    H252262   1.621   1.600  16.350  0.3654  0.2088  0.3515
10283TIP3   OH252263   2.407   0.453  16.878 -0.0690  0.5491  0.5927
10283TIP3    H152264   2.405   0.362  16.909  0.1779  0.6233  0.8330
10283TIP3    H252265   2.450   0.448  16.792  1.2771  0.6026  1.2294
10284TIP3   OH252266   2.723   5.867   3.453 -0.1586 -0.3372  0.2095
10284TIP3    H152267   2.790   5.826   3.398  1.0469  0.8343  0.7408
10284TIP3    H252268   2.764   5.948   3.484 -1.9072  0.5307  0.3953
10285TIP3   OH252269   4.843   0.867   2.404 -0.4258  0.3805  0.1068
10285TIP3    H152270   4.938   0.881   2.395  0.0653 -1.3011  1.8668
10285TIP3    H252271   4.822   0.806   2.333 -0.2678  1.0049 -0.4881
10286TIP3   OH252272   4.566   3.639   1.632 -0.1333  0.4597  0.2234
10286TIP3    H152273   4.625   3.643   1.707 -0.0415 -2.0075  0.3476
10286TIP3    H252274   4.479   3.625   1.670 -0.1396 -0.4250 -0.1007
10287TIP3   OH252275   4.507   0.290  16.900  0.1147 -0.5409 -0.0537
10287TIP3    H152276   4.528   0.315  16.810  2.8207 -1.4837  0.2404
10287TIP3    H252277   4.430   0.233  16.890 -1.0145  1.1087 -1.4887
10288TIP3   OH252278   4.695   4.767  16.757  0.3831 -0.4913  0.5776
10288TIP3    H152279   4.738   4.718  16.827  1.8207  0.1801  0.1847
10288TIP3    H252280   4.602   4.750  16.771  0.7023 -1.3011  1.9539
10289TIP3   OH252281   5.272   3.950   1.768  0.1210 -0.0597  0.5202
10289TIP3    H152282   5.316   3.940   1.683 -1.1906  0.8089 -0.3076
10289TIP3    H252283   5.199   4.010   1.749 -1.5632 -1.6251  1.7702
10290TIP3   OH252284   5.392   5.004   1.001  0.0732  0.5710  0.2764
10290TIP3    H152285   5.381   4.916   0.964  2.8206 -0.4908  1.6947
10290TIP3    H252286   5.315   5.016   1.057 -0.9615 -0.3806 -0.8757
10291TIP3   OH252287   5.258   6.617  11.964 -0.0011  0.1439  0.0369
10291TIP3    H152288   5.256   6.557  11.890  0.2769 -0.2003  0.3063
10291TIP3    H252289   5.235   6.563  12.040  0.2461  0.3755  0.2797
10292TIP3   OH252290   2.556   3.203   4.055 -0.1321 -0.2491 -0.0137
10292TIP3    H152291   2.632   3.147   4.069  0.9643  1.3170  0.7540
10292TIP3    H252292   2.566   3.237   3.966  1.8427  2.2923  1.0312
10293TIP3   OH252293   2.747   6.610   2.428 -0.1354 -0.1090 -0.1181
10293TIP3    H152294   2.727   6.542   2.363  0.0313 -0.4294  0.1609
10293TIP3    H252295   2.696   6.686   2.400 -0.4185 -0.3877 -0.3656
10294TIP3   OH252296   3.627   1.407   3.005  0.0565  0.0756 -0.2856
10294TIP3    H152297   3.713   1.446   2.992  1.0339 -0.8420  2.7024
10294TIP3    H252298   3.637   1.317   2.974 -0.2881  0.3525 -1.2386
10295TIP3   OH252299   6.120   5.285   5.331  0.2945  0.0808  0.9617
10295TIP3    H152300   6.159   5.337   5.260  2.3433  0.9737  2.6387
10295TIP3    H252301   6.026   5.293   5.317  0.6173  1.1214 -1.0208
10296TIP3   OH252302   3.172   6.076  10.860  0.5273 -0.1754 -0.1856
10296TIP3    H152303   3.101   6.058  10.921 -1.8483  2.3942 -1.9313
10296TIP3    H252304   3.140   6.041  10.776  1.2302  1.0915 -1.0242
10297TIP3   OH252305   0.466   1.558   1.042  0.0447 -0.6834  0.0291
10297TIP3    H152306   0.489   1.613   1.117  0.6392 -0.5977 -0.2074
10297TIP3    H252307   0.488   1.469   1.070  0.0104 -0.6843  0.0538
10298TIP3   OH252308   3.163   1.182  16.903 -0.4284  0.4276  0.2028
10298TIP3    H152309   3.129   1.170  16.992  1.0947 -1.0740  0.6246
10298TIP3    H252310   3.234   1.245  16.914 -0.0263 -0.0075  0.1115
10299TIP3   OH252311   3.425   4.194  11.977 -0.1211  0.0621 -0.1254
10299TIP3    H152312   3.402   4.249  12.052  0.9393 -1.3041  1.2666
10299TIP3    H252313   3.351   4.135  11.967 -0.9308  1.2045 -1.1507
10300TIP3   OH252314   0.140   4.043   1.942 -0.3209 -0.5138  0.0297
10300TIP3    H152315   0.050   4.014   1.958 -0.5047  0.3631  0.6421
10300TIP3    H252316   0.148   4.126   1.990  0.7647 -0.5004 -0.1429
10301TIP3   OH252317   4.205   0.977   1.798  0.1384  0.2802 -0.9124
10301TIP3    H152318   4.145   0.930   1.741  0.5638 -1.1194 -0.2601
10301TIP3    H252319   4.243   1.046   1.743 -0.0079 -0.5685 -2.0945
10302TIP3   OH252320   5.168   1.492  11.765 -0.0337 -0.3027  0.1484
10302TIP3    H152321   5.095   1.444  11.804  0.1612 -1.1050 -0.4217
10302TIP3    H252322   5.172   1.458  11.675  1.5724 -0.9113  0.4246
10303TIP3   OH252323   4.254   4.657  12.714  0.5147 -0.4513 -1.1421
10303TIP3    H152324   4.208   4.731  12.755  1.3517 -0.0723 -0.8750
10303TIP3    H252325   4.264   4.682  12.623  0.1568 -0.5517 -1.2099
10304TIP3   OH252326   1.956   6.606  15.271  0.3649 -0.4380 -0.5569
10304TIP3    H152327   1.952   6.701  15.260 -0.1130 -0.3384  0.4032
10304TIP3    H252328   2.044   6.590  15.304 -0.0481 -0.1488  0.7534
10305TIP3   OH252329   1.784   1.594  11.050 -0.2373  0.0028  0.4501
10305TIP3    H152330   1.690   1.613  11.060 -0.7617 -1.4233 -1.2009
10305TIP3    H252331   1.787   1.527  10.981  2.0870  1.0317 -0.5482
10306TIP3   OH252332   4.086   3.682  12.189  0.3605  0.8105  0.2838
10306TIP3    H152333   4.119   3.743  12.123  0.2844 -0.6798 -1.1952
10306TIP3    H252334   4.084   3.597  12.145 -2.5679  0.2609  1.2463
10307TIP3   OH252335   2.615   3.133  17.260 -0.0195 -0.5195 -0.2571
10307TIP3    H152336   2.576   3.183  17.333  0.0217  1.8905 -1.7691
10307TIP3    H252337   2.689   3.087  17.300 -0.1104  0.5658  1.2698
10308TIP3   OH252338   0.182   1.510   3.881  0.0972  0.6755 -0.1687
10308TIP3    H152339   0.151   1.433   3.928  0.4562 -0.1487 -1.2393
10308TIP3    H252340   0.139   1.583   3.924 -0.8456 -0.1813  0.3869
10309TIP3   OH252341   2.387   1.490  16.684 -0.2506  0.3427  0.2195
10309TIP3    H152342   2.314   1.445  16.642 -0.7982 -1.1836  2.5719
10309TIP3    H252343   2.436   1.420  16.728  1.0305  1.6582  0.9732
10310TIP3   OH252344   4.954   4.809   0.774  0.8017 -0.1633  0.6645
10310TIP3    H152345   4.914   4.855   0.848 -2.6252 -1.3426 -0.2720
10310TIP3    H252346   4.961   4.875   0.705 -1.0811 -0.2366  0.3597
10311TIP3   OH252347   3.835   1.097   3.679 -0.5162  0.4423  0.1346
10311TIP3    H152348   3.898   1.142   3.736 -0.7843  1.4852 -0.3636
10311TIP3    H252349   3.796   1.030   3.735  1.0216 -0.2182  0.4553
10312TIP3   OH252350   3.161   3.947  12.571  0.3648 -0.6155 -0.0570
10312TIP3    H152351   3.094   3.955  12.503  1.6328 -0.7807 -1.3596
10312TIP3    H252352   3.149   4.025  12.626 -0.7834 -0.5701 -0.3456
10313TIP3   OH252353   4.053   6.342  11.241  0.2925  0.2546 -0.0022
10313TIP3    H152354   3.965   6.304  11.251  0.5959 -0.7596 -0.9577
10313TIP3    H252355   4.111   6.280  11.286  0.4256  1.4743  1.5629
10314TIP3   OH252356   0.623   1.795  11.907 -0.2801 -0.2959  0.1355
10314TIP3    H152357   0.593   1.883  11.882  1.8325  0.0588 -1.4156
10314TIP3    H252358   0.573   1.736  11.851  1.1397  0.2270 -1.7714
10315TIP3   OH252359   1.527   2.630  11.256  0.0659  0.6023 -0.0872
10315TIP3    H152360   1.550   2.604  11.346 -2.2790 -2.7424 -0.2692
10315TIP3    H252361   1.606   2.611  11.206  0.2166 -1.2569  0.7454
10316TIP3   OH252362   2.750   5.250   6.157 -0.2213  1.0103  0.0972
10316TIP3    H152363   2.713   5.335   6.136 -0.3955  0.8306 -0.3222
10316TIP3    H252364   2.723   5.233   6.247  0.3527  1.6862  0.4120
10317TIP3   OH252365   0.723   0.395  15.454 -0.0799  0.3202  0.8659
10317TIP3    H152366   0.807   0.352  15.440  0.4021  1.1507  1.1387
10317TIP3    H252367   0.742   0.468  15.513 -0.5379  1.9420 -0.8767
10318TIP3   OH252368   1.607   6.414   0.160  0.1514 -0.2656  0.8897
10318TIP3    H152369   1.701   6.396   0.158 -0.1750 -2.1752  0.0181
10318TIP3    H252370   1.593   6.480   0.093  0.7968 -0.3762  0.6414
10319TIP3   OH252371   4.885   0.674   2.906 -0.8880  0.4652 -0.1948
10319TIP3    H152372   4.927   0.588   2.900 -1.5114  0.0012  1.5363
10319TIP3    H252373   4.926   0.726   2.837  0.3215 -0.8725 -0.5244
10320TIP3   OH252374   5.539   5.494  15.535  0.6392  0.2256  0.0370
10320TIP3    H152375   5.458   5.512  15.581  0.2812 -0.9863 -0.0770
10320TIP3    H252376   5.537   5.400  15.518  0.2612  0.7339 -3.3637
10321TIP3   OH252377   3.479   5.740   6.155  0.0728 -0.2827  0.1143
10321TIP3    H152378   3.402   5.685   6.143  0.1989 -0.4698  0.1501
10321TIP3    H252379   3.517   5.710   6.238 -2.4723  3.0174  2.7304
10322TIP3   OH252380   0.898   2.241  13.890  0.5427 -0.1551 -0.0116
10322TIP3    H152381   0.926   2.159  13.850  1.3752  0.7185 -1.3246
10322TIP3    H252382   0.855   2.288  13.818 -3.4226 -0.9107  1.5541
10323TIP3   OH252383   0.797   2.021   2.678  0.2316 -0.1095  0.3503
10323TIP3    H152384   0.890   2.011   2.698  0.6468  1.2402 -0.7532
10323TIP3    H252385   0.789   1.996   2.586  0.1582  2.7896 -0.5528
10324TIP3   OH252386   3.563   0.754   4.645 -0.7134 -0.2577  0.4631
10324TIP3    H152387   3.471   0.770   4.668 -0.7429 -1.5205  1.3339
10324TIP3    H252388   3.562   0.667   4.604 -0.0876  0.3195 -0.8339
10325TIP3   OH252389   2.578   5.332   1.984  0.3130  0.0837  0.3652
10325TIP3    H152390   2.579   5.267   2.054  0.9569  0.5088  0.7571
10325TIP3    H252391   2.621   5.409   2.021 -0.4589  0.7525 -0.0893
10326TIP3   OH252392   0.383   6.069  12.511  0.1976 -0.3778  0.5274
10326TIP3    H152393   0.461   6.016  12.527  1.3314  0.1487 -2.7016
10326TIP3    H252394   0.406   6.156  12.544  1.0956 -0.1652 -0.6215
10327TIP3   OH252395   3.787   2.666  14.069 -0.1840 -0.3780  0.4367
10327TIP3    H152396   3.836   2.744  14.044  1.3362 -1.5555 -0.4305
10327TIP3    H252397   3.805   2.603  13.999 -3.0831 -0.8637 -0.0042
10328TIP3   OH252398   3.515   5.748  13.456 -0.1619 -0.0622 -0.2424
10328TIP3    H152399   3.496   5.677  13.518 -0.0143  0.3853  0.3194
10328TIP3    H252400   3.435   5.801  13.456  0.6123  1.1772  1.2537
10329TIP3   OH252401   1.466   1.330   3.596  0.0409 -0.2645 -0.1903
10329TIP3    H152402   1.460   1.424   3.584 -0.4413 -0.2290  0.2955
10329TIP3    H252403   1.382   1.305   3.635 -0.2966 -1.0658 -1.3817
10330TIP3   OH252404   2.700   3.187   4.999 -0.0906 -0.4440  0.0719
10330TIP3    H152405   2.740   3.254   4.944  0.3160  0.0541  0.9618
10330TIP3    H252406   2.774   3.131   5.025 -0.3126 -0.7908 -0.0258
10331TIP3   OH252407   6.083   6.030   0.635 -0.0523  0.2181  0.3891
10331TIP3    H152408   6.148   5.971   0.672  0.1364  0.6352  0.7233
10331TIP3    H252409   6.071   6.098   0.701  0.5037  1.1368 -0.4275
10332TIP3   OH252410   6.422   2.217  15.688 -0.2066  0.1823 -0.3530
10332TIP3    H152411   6.464   2.258  15.613 -0.0474  1.1549  0.2474
10332TIP3    H252412   6.488   2.156  15.722 -0.7521 -1.2273 -1.7457
10333TIP3   OH252413   4.524   3.148   0.314 -0.3456  0.0493  0.5894
10333TIP3    H152414   4.595   3.089   0.340  0.5444  1.9267  2.8638
10333TIP3    H252415   4.551   3.234   0.349 -2.0400  1.6129 -1.6602
10334TIP3   OH252416   6.400   6.455  16.247 -0.4452 -0.8527 -0.1451
10334TIP3    H152417   6.422   6.398  16.321  0.4904 -1.1517 -0.6438
10334TIP3    H252418   6.319   6.499  16.274  0.7523  0.3402  1.8058
10335TIP3   OH252419   3.845   6.189   2.579  0.1227  0.2254  0.2402
10335TIP3    H152420   3.911   6.124   2.555 -1.3827 -0.4467 -2.4392
10335TIP3    H252421   3.802   6.152   2.656  0.8961 -0.7589  0.2200
10336TIP3   OH252422   6.743   3.615  14.011 -0.0796  0.3489  0.0324
10336TIP3    H152423   6.715   3.698  14.050  0.4634  0.5395  0.0277
10336TIP3    H252424   6.676   3.552  14.039  1.5040 -0.0815  3.3921
10337TIP3   OH252425   3.310   2.462   1.446  0.2842 -0.8106  0.6095
10337TIP3    H152426   3.354   2.547   1.456 -1.1135  0.0926 -0.6138
10337TIP3    H252427   3.382   2.398   1.448  1.7055  0.6055 -1.2825
10338TIP3   OH252428   5.571   0.545   5.140 -0.0185 -0.3644  0.2285
10338TIP3    H152429   5.599   0.455   5.159  1.8053  0.1052 -0.0691
10338TIP3    H252430   5.571   0.551   5.045 -3.6042 -1.0199  0.0301
10339TIP3   OH252431   1.806   4.339  17.316 -0.0829  0.0081 -0.1139
10339TIP3    H152432   1.715   4.311  17.319  0.3458 -1.6132 -1.0238
10339TIP3    H252433   1.806   4.416  17.260 -0.7813 -0.5645 -0.9291
10340TIP3   OH252434   1.881   4.512   4.356 -0.2902 -0.3636 -0.0476
10340TIP3    H152435   1.922   4.572   4.418 -0.9649 -0.5012  0.5510
10340TIP3    H252436   1.944   4.503   4.285 -0.3468  1.3783 -0.3520
10341TIP3   OH252437   2.610   6.528   6.146 -0.1820  0.0064  0.1092
10341TIP3    H152438   2.634   6.577   6.067  0.5397  0.5913  0.6717
10341TIP3    H252439   2.660   6.570   6.216 -0.9193 -0.4140  0.9065
10342TIP3   OH252440   3.991   2.354   6.638  0.5390  0.0706 -0.3347
10342TIP3    H152441   4.035   2.279   6.598 -0.9697 -1.1766  0.2623
10342TIP3    H252442   4.015   2.350   6.731  0.3789  0.2835 -0.2814
10343TIP3   OH252443   1.361   3.301  14.091  0.1846  0.8781  0.0055
10343TIP3    H152444   1.375   3.396  14.086  0.5082  0.7986 -0.5811
10343TIP3    H252445   1.304   3.282  14.017 -0.4486  0.7088  0.5194
10344TIP3   OH252446   3.533   3.258  12.021 -0.1471 -0.2853 -0.0017
10344TIP3    H152447   3.607   3.211  11.982  1.7055  1.9121  0.6948
10344TIP3    H252448   3.483   3.290  11.945  0.4528 -0.5087 -0.4976
10345TIP3   OH252449   6.011   3.029   0.568  0.2113  0.4040 -0.1935
10345TIP3    H152450   5.928   3.073   0.552  1.1019  1.1385 -3.7291
10345TIP3    H252451   6.071   3.067   0.503  2.3068 -2.6652 -0.2692
10346TIP3   OH252452   2.232   0.752  11.180 -0.5359 -0.0921  0.4149
10346TIP3    H152453   2.318   0.792  11.195 -0.7130 -0.4177  2.8071
10346TIP3    H252454   2.249   0.678  11.123  0.6070  0.4120  0.0777
10347TIP3   OH252455   4.052   0.661  13.315 -0.3953  0.0756  0.6929
10347TIP3    H152456   4.127   0.719  13.326  1.4316 -2.0602  0.1495
10347TIP3    H252457   4.089   0.573  13.316 -2.5050 -1.0120 -2.3391
10348TIP3   OH252458   1.645   1.949  11.117 -0.5174 -0.1238  0.3562
10348TIP3    H152459   1.637   2.038  11.084  1.4622 -0.2158 -0.5106
10348TIP3    H252460   1.615   1.894  11.044  2.6805 -0.2753 -1.0137
10349TIP3   OH252461   2.694   5.875   0.331 -0.2826 -0.5132 -0.2716
10349TIP3    H152462   2.725   5.965   0.335 -0.5586 -0.4543  1.9352
10349TIP3    H252463   2.773   5.823   0.316  0.1387 -0.0154  0.1839
10350TIP3   OH252464   3.943   0.825  13.076 -0.0417  0.1111 -0.2542
10350TIP3    H152465   3.951   0.729  13.071 -1.2670 -0.2941  2.9870
10350TIP3    H252466   4.032   0.857  13.062  0.5913 -1.5718 -0.3526
10351TIP3   OH252467   1.822   0.091  14.735  0.2070 -0.4126  0.6637
10351TIP3    H152468   1.779   0.054  14.812 -0.3611  2.5874  1.9173
10351TIP3    H252469   1.903   0.128  14.768  0.5070 -0.0819 -0.4120
10352TIP3   OH252470   0.295   2.837   4.815 -0.0720  0.3226 -0.4589
10352TIP3    H152471   0.264   2.756   4.855  0.4678  1.7681  3.3382
10352TIP3    H252472   0.374   2.812   4.769  0.1148 -1.3443  0.6574
10353TIP3   OH252473   1.809   3.970   2.013 -0.1524  0.0045 -0.5533
10353TIP3    H152474   1.812   3.876   2.031 -1.2475 -0.0099 -0.3315
10353TIP3    H252475   1.871   3.984   1.942 -1.9534 -1.3587 -2.5004
10354TIP3   OH252476   4.148   4.830   4.859 -0.3491  0.9489  0.0186
10354TIP3    H152477   4.166   4.924   4.865 -1.0613  1.0792  0.3025
10354TIP3    H252478   4.120   4.817   4.768  0.4322  0.8802 -0.2136
10355TIP3   OH252479   1.727   1.289  16.296 -0.1528  0.2979  0.0772
10355TIP3    H152480   1.814   1.326  16.310 -0.1255  0.4782 -0.5650
10355TIP3    H252481   1.687   1.344  16.229 -1.4749  1.3527  1.6727
10356TIP3   OH252482   2.480   6.481  13.558 -0.9527 -0.6930  0.8916
10356TIP3    H152483   2.459   6.574  13.553 -1.1411 -0.8009 -0.7479
10356TIP3    H252484   2.539   6.474  13.633 -1.8091  0.5593  1.7267
10357TIP3   OH252485   1.319   3.840  17.046  0.7178  0.9055 -0.8851
10357TIP3    H152486   1.370   3.858  17.125 -0.7963  1.4216  0.0172
10357TIP3    H252487   1.291   3.926  17.015  0.1840  0.6136 -1.2213
10358TIP3   OH252488   2.836   5.726  13.089  0.4858  0.2637 -0.0169
10358TIP3    H152489   2.917   5.687  13.124  1.2242  0.2366 -1.6358
10358TIP3    H252490   2.848   5.820  13.098  0.5347  0.2444  0.1132
10359TIP3   OH252491   5.821   6.722   2.686  0.0980 -0.1960  0.2500
10359TIP3    H152492   5.853   6.632   2.678  0.1780 -0.2311  0.8689
10359TIP3    H252493   5.730   6.718   2.656 -0.3218 -0.7732  1.4963
10360TIP3   OH252494   0.364   6.387  14.080  0.0256 -0.3503 -0.4129
10360TIP3    H152495   0.308   6.447  14.031 -0.6046 -1.4643 -1.0839
10360TIP3    H252496   0.377   6.430  14.165 -1.5573  0.1086 -0.3824
10361TIP3   OH252497   5.725   2.322   1.586 -0.4947 -0.1583 -0.0765
10361TIP3    H152498   5.689   2.250   1.534  0.1953  1.0085 -2.3450
10361TIP3    H252499   5.790   2.282   1.643 -1.9026 -1.6244  0.5641
10362TIP3   OH252500   1.255   5.196  14.387 -0.1981 -0.3073 -0.1306
10362TIP3    H152501   1.289   5.108  14.405  1.8651  0.7115  1.3452
10362TIP3    H252502   1.168   5.197  14.428 -0.6477 -1.9147 -0.9769
10363TIP3   OH252503   6.452   5.573  11.479  0.5575 -0.0414  0.1489
10363TIP3    H152504   6.392   5.527  11.421 -0.9380  0.1796  1.4393
10363TIP3    H252505   6.507   5.503  11.517 -3.2012 -1.4278  3.8925
10364TIP3   OH252506   1.967   6.436  15.929 -0.7197 -0.2816 -0.4446
10364TIP3    H152507   2.036   6.426  15.864 -1.4376 -1.8998 -1.0124
10364TIP3    H252508   1.938   6.526  15.920  0.3837  0.0239 -1.1348
10365TIP3   OH252509   5.937   5.101  17.063  0.2845  0.1730  0.5871
10365TIP3    H152510   5.845   5.118  17.045  0.1292 -1.4915 -0.3690
10365TIP3    H252511   5.941   5.090  17.158 -0.9922 -2.1085  0.4485
10366TIP3   OH252512   0.801   6.502   5.048 -0.0023  0.3709 -0.0525
10366TIP3    H152513   0.738   6.485   4.979  0.0155 -0.0447  0.0273
10366TIP3    H252514   0.794   6.426   5.106  0.3391  0.4753  0.1316
10367TIP3   OH252515   4.377   2.456  11.657 -0.2483  0.3002  0.0700
10367TIP3    H152516   4.305   2.395  11.645 -0.7140  0.5477  1.4016
10367TIP3    H252517   4.343   2.522  11.718  1.1135  0.3680  0.8019
10368TIP3   OH252518   5.630   4.686  14.525  0.0496 -0.0974 -0.3640
10368TIP3    H152519   5.556   4.682  14.464 -0.2851  1.5946 -0.0908
10368TIP3    H252520   5.608   4.756  14.586  1.6830  0.1520 -0.0166
10369TIP3   OH252521   4.316   0.047   3.299 -0.9113 -0.2244 -0.1706
10369TIP3    H152522   4.311  -0.047   3.315 -2.4686 -0.0009  0.7913
10369TIP3    H252523   4.259   0.062   3.223  0.0329 -0.1517 -0.8898
10370TIP3   OH252524   0.697   4.749  15.969  0.3706 -0.2327 -0.5168
10370TIP3    H152525   0.657   4.724  15.886 -0.2830 -1.3335  0.0973
10370TIP3    H252526   0.686   4.672  16.025  3.4935 -0.6791 -0.3405
10371TIP3   OH252527   3.885   1.975  16.694 -0.7034  0.0254  0.5355
10371TIP3    H152528   3.822   1.994  16.764 -1.8820 -0.2126 -0.4157
10371TIP3    H252529   3.833   1.980  16.614  0.1280 -1.8349 -0.1654
10372TIP3   OH252530   1.338   5.784  15.442 -0.5226  0.3057 -0.2373
10372TIP3    H152531   1.272   5.827  15.497 -0.1922  0.0373  0.3854
10372TIP3    H252532   1.408   5.760  15.504 -1.3377 -2.4885 -0.2643
10373TIP3   OH252533   5.037   5.335  12.807  0.0122 -0.6569 -0.3904
10373TIP3    H152534   5.118   5.335  12.857 -0.3343  1.7922  0.3124
10373TIP3    H252535   5.061   5.368  12.721 -0.1000 -0.8013 -0.4790
10374TIP3   OH252536   0.362   0.404   0.706 -0.1026 -0.1995 -0.2316
10374TIP3    H152537   0.305   0.345   0.657  0.0891 -0.1230 -0.5539
10374TIP3    H252538   0.403   0.459   0.638  0.5528 -0.4309 -0.0272
10375TIP3   OH252539   0.173   5.256   4.923 -0.0798 -0.0837  0.6206
10375TIP3    H152540   0.151   5.301   4.841 -1.0567  0.6760  1.2762
10375TIP3    H252541   0.243   5.309   4.961  1.6874 -1.4579 -0.5651
10376TIP3   OH252542   2.225   5.633  15.435 -0.1643 -0.3594  0.2518
10376TIP3    H152543   2.275   5.715  15.425 -1.6817  0.4806 -0.7368
10376TIP3    H252544   2.290   5.570  15.466  1.2394  1.0025  0.2276
10377TIP3   OH252545   4.108   3.878  11.665  0.4432  0.4294  0.2140
10377TIP3    H152546   4.201   3.866  11.682  0.7289  1.8368 -0.2152
10377TIP3    H252547   4.068   3.881  11.752  0.2323 -3.5641  0.4336
10378TIP3   OH252548   4.247   3.392   0.966 -0.1509 -0.5720 -0.1083
10378TIP3    H152549   4.203   3.350   1.041  1.8310  0.2922  1.6467
10378TIP3    H252550   4.216   3.482   0.967  0.8490 -0.2229  0.5106
10379TIP3   OH252551   1.536   5.005  16.284 -0.0624  0.3419  1.2808
10379TIP3    H152552   1.523   4.941  16.354  0.4868 -0.3708  0.7455
10379TIP3    H252553   1.474   4.979  16.216  0.3993  0.1673  0.9240
10380TIP3   OH252554   1.680   6.523   4.409 -0.1614  1.0106 -0.4375
10380TIP3    H152555   1.695   6.442   4.360 -1.3819 -0.1685  1.0556
10380TIP3    H252556   1.767   6.564   4.412  0.9988 -1.2828  0.5393
10381TIP3   OH252557   4.924   5.689   0.673  0.1551  0.0461 -0.5785
10381TIP3    H152558   4.934   5.598   0.646  0.3569 -0.3197  0.6794
10381TIP3    H252559   5.013   5.717   0.696 -0.2028 -0.1553  1.1834
10382TIP3   OH252560   4.339   1.458  13.980  0.1607 -0.5141 -0.3335
10382TIP3    H152561   4.254   1.417  13.993  0.3318 -0.3761  1.4048
10382TIP3    H252562   4.401   1.397  14.019  0.5656  0.6382  0.8943
10383TIP3   OH252563   0.120   1.617   2.097 -0.2170  0.3838 -0.6951
10383TIP3    H152564   0.190   1.606   2.034  1.2662  1.0526  0.7728
10383TIP3    H252565   0.080   1.530   2.105  0.0543  0.1329 -1.9642
10384TIP3   OH252566   4.084   6.112   1.504 -0.2927 -0.4794 -0.2038
10384TIP3    H152567   4.101   6.033   1.556  0.5853  0.4985  1.0211
10384TIP3    H252568   4.151   6.174   1.531 -0.9962  0.7216 -1.1356
10385TIP3   OH252569   5.509   2.893  15.572 -0.0101  0.1626  0.3588
10385TIP3    H152570   5.532   2.986  15.577 -1.6365  0.5670  1.2969
10385TIP3    H252571   5.496   2.867  15.663 -0.8437 -0.6336  0.0274
10386TIP3   OH252572   1.209   0.058   3.072 -0.4187  0.2685  0.5178
10386TIP3    H152573   1.244   0.093   3.154  0.5815  0.4441  0.0329
10386TIP3    H252574   1.144   0.122   3.044  0.6336  1.2141  0.1871
10387TIP3   OH252575   3.125   3.122   4.619 -0.1260 -0.9047  0.0757
10387TIP3    H152576   3.216   3.109   4.595  0.3734 -1.2692  1.9998
10387TIP3    H252577   3.084   3.159   4.541  2.0246  0.8167 -0.3228
10388TIP3   OH252578   1.098   4.740   6.269  0.2091  0.2780 -0.0277
10388TIP3    H152579   1.145   4.741   6.353  0.0252  0.2423  0.0767
10388TIP3    H252580   1.165   4.762   6.204  0.3816  0.1815  0.1139
10389TIP3   OH252581   6.352   0.625  12.595  0.0746 -0.7385  0.2393
10389TIP3    H152582   6.289   0.587  12.657  0.2254 -0.8598  0.3182
10389TIP3    H252583   6.394   0.549  12.555 -0.5117 -0.6750 -0.5210
10390TIP3   OH252584   5.389   1.527  11.447 -0.5673  0.3344  0.4915
10390TIP3    H152585   5.426   1.473  11.376  0.4186 -1.0668  1.9955
10390TIP3    H252586   5.295   1.519  11.436 -0.4333 -0.6799 -0.0910
10391TIP3   OH252587   5.181   1.963  13.468  0.4184 -0.6807  0.2048
10391TIP3    H152588   5.125   1.910  13.525  1.4152  0.1635  2.0711
10391TIP3    H252589   5.256   1.906  13.449 -0.2405 -1.2108 -0.8847
10392TIP3   OH252590   0.484   2.148  16.844  0.1959 -0.4740 -0.2222
10392TIP3    H152591   0.466   2.222  16.787 -0.6070 -2.3349 -2.5617
10392TIP3    H252592   0.397   2.115  16.868  0.5158  0.1880  2.0793
10393TIP3   OH252593   0.853   5.612  15.876  0.2302  0.4021  0.3846
10393TIP3    H152594   0.797   5.680  15.914  0.4675  1.2684 -0.7674
10393TIP3    H252595   0.856   5.633  15.783  1.7773 -0.1368  0.2931
10394TIP3   OH252596   2.662   6.652   5.168 -0.2485  0.2352 -0.3482
10394TIP3    H152597   2.729   6.608   5.115 -0.9112  0.5942 -1.5280
10394TIP3    H252598   2.707   6.728   5.205  0.1312  0.1954 -0.7168
10395TIP3   OH252599   1.868   5.540  14.209 -0.6277 -0.3720 -0.1874
10395TIP3    H152600   1.947   5.497  14.177  0.1725  1.2416 -0.5097
10395TIP3    H252601   1.879   5.543  14.304  0.6611  1.4802 -0.3317
10396TIP3   OH252602   4.177   2.278   6.833 -0.1388 -0.0020  0.3791
10396TIP3    H152603   4.226   2.277   6.751  0.9389 -0.6639  1.0135
10396TIP3    H252604   4.223   2.342   6.888 -1.7027  1.5475  0.0016
10397TIP3   OH252605   5.468   4.773   3.723  0.0694  0.1181  0.4059
10397TIP3    H152606   5.447   4.680   3.732  1.8756 -0.4524 -0.8205
10397TIP3    H252607   5.382   4.816   3.724 -0.9693 -1.7443 -0.9786
10398TIP3   OH252608   3.778   3.094  12.042 -0.4111 -0.1190  0.6779
10398TIP3    H152609   3.860   3.112  12.088 -0.8420  2.3856  0.6056
10398TIP3    H252610   3.802   3.036  11.970  0.6674 -2.2639  2.6503
10399TIP3   OH252611   5.025   4.634   3.658 -0.1572 -0.3917  0.0511
10399TIP3    H152612   5.014   4.729   3.652 -1.2424 -0.6004 -2.2699
10399TIP3    H252613   4.949   4.603   3.707 -0.2722 -0.1501  0.0246
10400TIP3   OH252614   1.558   1.543  11.314  0.1646 -0.7332 -0.3134
10400TIP3    H152615   1.640   1.556  11.362  0.8594  1.6437 -1.9576
10400TIP3    H252616   1.507   1.623  11.332 -0.2218 -0.5204 -2.1587
10401TIP3   OH252617   1.434   5.396  14.457 -0.3520  0.4362  0.3108
10401TIP3    H152618   1.369   5.336  14.420 -1.3916  1.6922  0.0180
10401TIP3    H252619   1.409   5.482  14.422 -0.3758  1.4343  2.6083
10402TIP3   OH252620   1.285   0.156  10.668 -0.6158  0.0824  0.1369
10402TIP3    H152621   1.322   0.156  10.756 -0.8168 -1.0335  0.2387
10402TIP3    H252622   1.357   0.181  10.611 -0.4528  0.6874  0.6057
10403TIP3   OH252623   5.496   1.290  15.362 -0.8125 -0.1124  0.3053
10403TIP3    H152624   5.554   1.353  15.318 -0.5898 -0.4945  0.0502
10403TIP3    H252625   5.413   1.297  15.315 -0.6848 -0.2535  0.0580
10404TIP3   OH252626   6.228   3.348   5.202  0.3501 -0.8059 -0.3713
10404TIP3    H152627   6.319   3.326   5.182  1.2868  0.9967  1.5569
10404TIP3    H252628   6.206   3.293   5.277  0.8376  0.7264  0.9368
10405TIP3   OH252629   6.658   3.306  12.444  0.4377 -0.1180  0.5288
10405TIP3    H152630   6.687   3.346  12.362  1.9601 -0.0802  1.0678
10405TIP3    H252631   6.625   3.220  12.418  2.0594 -0.6101  0.0031
10406TIP3   OH252632   4.499   3.429  16.047  0.2828  0.1856  0.2236
10406TIP3    H152633   4.546   3.473  16.118 -0.4797  0.1917  0.7408
10406TIP3    H252634   4.438   3.371  16.092 -0.1224  0.0978 -0.4300
10407TIP3   OH252635   2.127   5.242  15.044  0.6555 -0.0908  0.1677
10407TIP3    H152636   2.220   5.262  15.052  0.8632 -0.4201 -1.1064
10407TIP3    H252637   2.091   5.316  14.996  0.2987 -0.0651  0.4735
10408TIP3   OH252638   4.694   2.057  11.550  0.0014  0.0653  0.0940
10408TIP3    H152639   4.641   2.021  11.621  1.3022 -0.8332  0.6454
10408TIP3    H252640   4.748   2.123  11.592  2.2580 -1.8606  0.4639
10409TIP3   OH252641   0.335   2.840  16.727  0.4557 -0.1768 -0.0390
10409TIP3    H152642   0.402   2.908  16.737 -1.1433  1.1213  4.2119
10409TIP3    H252643   0.271   2.878  16.666  1.8041  0.0372 -1.3739
10410TIP3   OH252644   5.874   2.555   0.985 -0.0763  0.0876  0.3976
10410TIP3    H152645   5.897   2.494   0.915 -0.5972  0.1759  0.1441
10410TIP3    H252646   5.780   2.568   0.975 -0.0536  0.5459  0.7620
10411TIP3   OH252647   4.537   4.668   4.333 -0.9840 -0.5058 -0.1375
10411TIP3    H152648   4.561   4.588   4.285 -3.4065 -2.0711  1.0517
10411TIP3    H252649   4.519   4.732   4.264  1.7508 -0.6401 -1.1200
10412TIP3   OH252650   5.395   5.231  13.343 -0.5575 -0.2800  0.2287
10412TIP3    H152651   5.407   5.136  13.353 -1.0945 -0.4756 -0.8613
10412TIP3    H252652   5.339   5.255  13.417 -1.3763 -1.0172 -0.1325
10413TIP3   OH252653   5.376   0.871   6.136 -0.6297  0.4682  0.1196
10413TIP3    H152654   5.437   0.808   6.175  1.6614  1.8059 -1.0944
10413TIP3    H252655   5.310   0.885   6.204 -0.2828 -1.9420  1.0500
10414TIP3   OH252656   3.336   5.921  11.763 -0.0122 -0.2379  0.6168
10414TIP3    H152657   3.278   5.887  11.695  1.9506 -2.7920  0.0537
10414TIP3    H252658   3.401   5.972  11.715 -0.7968  1.2430  1.0695
10415TIP3   OH252659   3.088   4.164   5.576 -0.3774  0.1430 -0.1160
10415TIP3    H152660   3.063   4.072   5.588 -0.7152  0.1127 -0.9428
10415TIP3    H252661   3.178   4.159   5.542 -0.6918  0.0755 -0.9551
10416TIP3   OH252662   3.270   0.352   1.285 -0.4017  0.2820  0.1491
10416TIP3    H152663   3.295   0.277   1.338 -0.4995 -0.2848 -0.6032
10416TIP3    H252664   3.299   0.428   1.337 -0.4340 -0.2582  0.9724
10417TIP3   OH252665   1.664   4.205   1.262 -0.4049  0.1420 -0.5763
10417TIP3    H152666   1.712   4.269   1.209 -0.3224  0.6380  0.0759
10417TIP3    H252667   1.683   4.121   1.222  0.5660  0.3896 -0.6566
10418TIP3   OH252668   1.920   0.152   1.906  0.1393  0.9724 -0.7113
10418TIP3    H152669   1.893   0.213   1.975 -2.0533 -1.3751  0.7141
10418TIP3    H252670   1.997   0.108   1.941 -1.7849 -1.2281  1.0806
10419TIP3   OH252671   1.780   3.145   6.083  0.0610 -0.2200  0.1162
10419TIP3    H152672   1.740   3.207   6.144  0.1164  2.7676 -2.6554
10419TIP3    H252673   1.711   3.082   6.064 -0.8426  0.4432  1.0789
10420TIP3   OH252674   5.322   4.563   5.865  0.3810  0.5008 -0.5082
10420TIP3    H152675   5.400   4.560   5.919 -0.0997 -2.2823  0.1421
10420TIP3    H252676   5.286   4.651   5.880  0.6678  0.1339  3.1397
10421TIP3   OH252677   4.841   4.624  11.810 -0.0429 -0.0578 -0.2731
10421TIP3    H152678   4.851   4.605  11.903  0.3717 -1.4429 -0.5821
10421TIP3    H252679   4.896   4.701  11.795 -1.3283  1.1562  0.9103
10422TIP3   OH252680   5.851   4.732  13.093 -0.7805  0.7014 -0.1445
10422TIP3    H152681   5.792   4.806  13.105  0.0035  1.0983  1.5548
10422TIP3    H252682   5.929   4.755  13.144 -0.5629 -1.3161  0.5296
10423TIP3   OH252683   5.897   2.433   2.897  0.6848 -0.5155  0.2799
10423TIP3    H152684   5.853   2.363   2.946  1.3657  0.9516  3.2197
10423TIP3    H252685   5.991   2.417   2.912  0.8686  0.4857  0.2548
10424TIP3   OH252686   1.307   6.741   5.055 -0.2485  0.1790 -0.7794
10424TIP3    H152687   1.398   6.747   5.027 -0.2329  0.4580 -0.6721
10424TIP3    H252688   1.306   6.781   5.142 -0.2664 -0.7963 -0.3152
10425TIP3   OH252689   0.382   5.411  12.088 -0.0087  0.0314 -0.5472
10425TIP3    H152690   0.301   5.434  12.043 -0.3435 -1.2765 -0.6296
10425TIP3    H252691   0.355   5.355  12.160  0.5101  2.1238  1.3966
10426TIP3   OH252692   5.272   6.365  14.512  0.5195 -0.2221 -0.2642
10426TIP3    H152693   5.312   6.378  14.598 -1.6367  2.5453  0.4536
10426TIP3    H252694   5.290   6.446  14.464 -0.5237 -0.6616 -1.4685
10427TIP3   OH252695   0.907   1.628   2.167 -1.2388  0.0287  0.7451
10427TIP3    H152696   0.881   1.694   2.231  0.1281  1.2306  0.1025
10427TIP3    H252697   1.002   1.624   2.172 -0.9340  1.1507 -2.0808
10428TIP3   OH252698   3.518   2.348   1.146  0.0003  0.1192 -0.3899
10428TIP3    H152699   3.590   2.365   1.206 -1.2945  2.6874  0.5939
10428TIP3    H252700   3.489   2.260   1.168  3.0058 -1.1863 -1.1214
10429TIP3   OH252701   4.448   6.085   3.974 -0.3939  0.1062 -0.1571
10429TIP3    H152702   4.354   6.089   3.989 -0.2257  0.1555  0.9543
10429TIP3    H252703   4.474   5.998   4.003 -0.3410 -0.5724 -2.0865
10430TIP3   OH252704   1.888   6.614  10.948 -0.0183 -0.3710 -0.4518
10430TIP3    H152705   1.920   6.702  10.931  0.1378 -0.2967  0.1835
10430TIP3    H252706   1.793   6.624  10.953  0.1013  0.2042  1.8508
10431TIP3   OH252707   4.915   3.200  11.248  0.2690  0.2017 -0.5541
10431TIP3    H152708   4.983   3.235  11.190  2.2821 -2.7143 -0.1528
10431TIP3    H252709   4.885   3.121  11.205  0.1470 -0.7948  1.2643
10432TIP3   OH252710   2.425   5.970  13.854 -0.4761  0.2213 -0.2286
10432TIP3    H152711   2.351   5.982  13.795 -0.3480  1.1969 -0.1929
10432TIP3    H252712   2.490   6.033  13.825 -1.0024  1.8511  1.9021
10433TIP3   OH252713   4.901   0.543  10.659 -0.2589 -0.0163  0.4981
10433TIP3    H152714   4.942   0.629  10.648  0.6001 -0.6355 -1.8503
10433TIP3    H252715   4.962   0.493  10.712  0.8391 -0.1074 -0.7910
10434TIP3   OH252716   2.142   0.233   1.459  0.3930 -0.0090  0.3037
10434TIP3    H152717   2.156   0.152   1.510  3.2545  0.9430  1.2132
10434TIP3    H252718   2.202   0.225   1.385 -0.6669  0.5162 -0.6371
10435TIP3   OH252719   1.991   0.139  14.469 -0.5954  0.2653 -0.9000
10435TIP3    H152720   2.046   0.206  14.511  1.0312 -1.8746  0.6323
10435TIP3    H252721   1.903   0.155  14.503  0.2693 -0.0110  1.7058
10436TIP3   OH252722   0.349   2.573   0.683  0.2071  0.8335 -0.5235
10436TIP3    H152723   0.398   2.494   0.657  0.3132  0.6014  0.3422
10436TIP3    H252724   0.285   2.585   0.613 -0.3122 -0.4594 -0.3032
10437TIP3   OH252725   5.978   4.629   1.750 -0.0619  0.4067 -0.0504
10437TIP3    H152726   6.054   4.677   1.717 -0.4659 -0.3576 -2.3254
10437TIP3    H252727   6.012   4.570   1.816  1.0188  1.3297  0.2335
10438TIP3   OH252728   0.454   4.545  14.385 -0.1465 -0.2788 -0.2196
10438TIP3    H152729   0.398   4.467  14.386 -2.1055  1.0559 -0.2829
10438TIP3    H252730   0.463   4.569  14.478 -1.3812  0.6377 -0.3196
10439TIP3   OH252731   5.335   6.304  13.461  0.3892  0.1189 -0.1468
10439TIP3    H152732   5.396   6.317  13.389  1.0489 -0.3927  0.3200
10439TIP3    H252733   5.382   6.251  13.525 -0.1573  0.6264  0.7072
10440TIP3   OH252734   3.021   5.056   5.284  0.2620 -0.5799 -0.3578
10440TIP3    H152735   2.992   4.982   5.231 -0.2190 -0.1799 -0.6619
10440TIP3    H252736   2.964   5.128   5.258  0.1993 -0.3053  0.5099
10441TIP3   OH252737   2.983   6.610  15.456  0.0555  0.3478  0.2091
10441TIP3    H152738   3.069   6.572  15.440 -0.0887  0.8290 -2.0513
10441TIP3    H252739   2.934   6.542  15.501  0.9343 -0.7687 -0.4824
10442TIP3   OH252740   2.128   4.909   5.704  0.1612  0.0787  0.1858
10442TIP3    H152741   2.104   4.999   5.684 -0.0791 -0.0896 -0.3065
10442TIP3    H252742   2.046   4.861   5.702  0.1991 -0.0483  1.0744
10443TIP3   OH252743   1.299   1.144   5.163 -0.4786  0.0814  0.4680
10443TIP3    H152744   1.213   1.180   5.143 -0.7611 -0.3601  0.8555
10443TIP3    H252745   1.360   1.202   5.119 -1.0266 -0.2743 -0.8145
10444TIP3   OH252746   2.333   3.879  13.126 -0.1905 -0.1018  0.1388
10444TIP3    H152747   2.326   3.784  13.119  2.5489 -0.4993  1.4083
10444TIP3    H252748   2.368   3.894  13.214 -0.5126  2.0834 -0.0619
10445TIP3   OH252749   2.058   5.729  11.959  0.0066 -0.7959 -0.6277
10445TIP3    H152750   2.021   5.762  12.040 -1.7935 -2.6358 -0.6136
10445TIP3    H252751   2.047   5.800  11.896 -2.9774 -0.9561 -0.4169
10446TIP3   OH252752   3.697   1.898   1.352 -0.1020 -0.1254  0.1154
10446TIP3    H152753   3.748   1.910   1.432 -1.7444 -1.4410  1.4335
10446TIP3    H252754   3.760   1.913   1.281  1.0616  2.5977  1.5710
10447TIP3   OH252755   3.687   0.400  13.182 -0.3460  0.0697 -0.4755
10447TIP3    H152756   3.644   0.344  13.117  0.3613 -1.0379 -0.0128
10447TIP3    H252757   3.671   0.489  13.151 -0.7399 -0.4124 -1.7157
10448TIP3   OH252758   3.813   2.277   5.692 -0.5046  0.2807 -0.0955
10448TIP3    H152759   3.847   2.320   5.771  2.1823  2.2246 -2.0827
10448TIP3    H252760   3.764   2.202   5.724  1.5564  0.2056  3.3840
10449TIP3   OH252761   3.386   0.855  13.999  0.5551  0.0582  0.2944
10449TIP3    H152762   3.304   0.898  13.975  1.0701  1.8349  1.4556
10449TIP3    H252763   3.364   0.762  14.007 -1.1067  0.3712 -0.3383
10450TIP3   OH252764   5.091   0.831  17.393 -0.3185  0.3418  0.7955
10450TIP3    H152765   5.186   0.836  17.393 -0.2642 -0.5841  0.8549
10450TIP3    H252766   5.063   0.908  17.344  0.5361 -0.6101 -1.3213
10451TIP3   OH252767   4.445   1.453  15.667  0.6138 -0.1286  0.0637
10451TIP3    H152768   4.465   1.517  15.735  2.7443 -1.4041  0.7226
10451TIP3    H252769   4.419   1.374  15.714 -1.0554 -0.0848 -0.7155
10452TIP3   OH252770   5.551   3.276  17.326  0.2545  0.4118 -0.1144
10452TIP3    H152771   5.634   3.302  17.365  0.7726 -0.5730 -0.5362
10452TIP3    H252772   5.536   3.187  17.357 -0.2267  0.2769 -0.7105
10453TIP3   OH252773   5.468   3.362  14.362  0.0159 -0.3859  0.1491
10453TIP3    H152774   5.443   3.397  14.448 -0.7276 -0.1207 -0.1609
10453TIP3    H252775   5.388   3.321  14.329  0.5742 -1.3723  0.0089
10454TIP3   OH252776   1.261   2.311   3.014 -0.2956  0.2726 -0.0741
10454TIP3    H152777   1.355   2.311   3.034 -0.3308 -1.9730  0.3388
10454TIP3    H252778   1.256   2.323   2.919  0.5553 -1.5299 -0.3896
10455TIP3   OH252779   0.108   4.286  10.651 -0.4802 -0.5745 -0.7691
10455TIP3    H152780   0.123   4.218  10.585 -1.2260 -0.8488 -0.6656
10455TIP3    H252781   0.026   4.328  10.625 -1.2534 -1.2601  0.4450
10456TIP3   OH252782   3.914   6.355  17.185  0.4271 -0.1001 -0.1412
10456TIP3    H152783   3.980   6.415  17.150  0.6241 -0.5844 -0.6201
10456TIP3    H252784   3.890   6.393  17.270 -0.0457  1.0890 -0.7757
10457TIP3   OH252785   2.729   6.443  12.004 -0.1545 -0.1993 -0.6809
10457TIP3    H152786   2.715   6.355  12.039 -0.3290 -0.0652 -0.4143
10457TIP3    H252787   2.798   6.480  12.059 -1.6595  0.6677  0.6804
10458TIP3   OH252788   5.431   5.022  14.276 -0.2278  0.2254 -0.0378
10458TIP3    H152789   5.514   4.991  14.239 -0.1801 -2.4238  2.0100
10458TIP3    H252790   5.370   5.021  14.202  1.0490  0.1189 -1.1200
10459TIP3   OH252791   5.181   1.254  16.323 -0.1585  0.1546 -0.8985
10459TIP3    H152792   5.228   1.192  16.378  0.4028 -0.6820 -2.2716
10459TIP3    H252793   5.205   1.230  16.233 -0.0241  2.2672 -1.4891
10460TIP3   OH252794   5.283   6.633  17.388 -0.1421  0.2621 -0.0526
10460TIP3    H152795   5.231   6.705  17.351 -0.6669 -0.5196 -0.8686
10460TIP3    H252796   5.278   6.563  17.323  0.4207 -0.4994  0.6923
10461TIP3   OH252797   0.038   2.890   1.420 -0.2090  0.5230  0.2061
10461TIP3    H152798   0.039   2.795   1.415 -1.4405  0.5459 -1.4262
10461TIP3    H252799   0.126   2.917   1.394  0.4179 -0.1605  1.5334
10462TIP3   OH252800   4.439   4.009  11.867 -0.1501  0.2264  0.1589
10462TIP3    H152801   4.520   4.043  11.828  0.2667  0.2211  1.0019
10462TIP3    H252802   4.391   4.088  11.892  0.4238  0.2304  1.3143
10463TIP3   OH252803   3.145   3.501   2.984  0.5991 -0.0653 -0.4905
10463TIP3    H152804   3.076   3.506   3.050 -0.8444 -1.1848 -1.8378
10463TIP3    H252805   3.219   3.460   3.030 -0.8535 -2.1911  0.1213
10464TIP3   OH252806   5.403   4.265  13.575  0.7045  0.1011  0.3683
10464TIP3    H152807   5.408   4.212  13.654 -0.4790 -1.1897 -0.3704
10464TIP3    H252808   5.440   4.350  13.600  1.6556 -0.7243  1.8832
10465TIP3   OH252809   2.768   5.653   0.954 -0.7340  0.6684  0.0351
10465TIP3    H152810   2.769   5.663   1.049 -1.6260  1.5611 -0.0273
10465TIP3    H252811   2.857   5.673   0.926 -0.5597  0.7738  0.6544
10466TIP3   OH252812   5.944   3.833   0.900 -0.5499  0.3870 -0.1444
10466TIP3    H152813   5.907   3.801   0.982  1.4452 -0.2670  0.5732
10466TIP3    H252814   6.033   3.862   0.923 -0.9105  2.9009 -1.5320
10467TIP3   OH252815   1.028   2.293  15.599 -0.0601 -0.1280 -0.0332
10467TIP3    H152816   0.981   2.293  15.515 -0.4234  1.3073  0.1417
10467TIP3    H252817   1.121   2.286  15.574  0.0420  2.5368 -0.7637
10468TIP3   OH252818   2.538   1.906  16.517  0.2834  0.0866  0.3743
10468TIP3    H152819   2.625   1.931  16.549  0.2230 -0.1212  0.7075
10468TIP3    H252820   2.483   1.908  16.595 -0.3058  1.4750 -0.0565
10469TIP3   OH252821   4.702   5.051  16.729 -0.8157  0.1361 -0.0595
10469TIP3    H152822   4.776   5.071  16.672  0.5234 -2.4466  0.5837
10469TIP3    H252823   4.697   4.955  16.728 -2.6640  0.1495  1.7752
10470TIP3   OH252824   5.739   5.793  11.401 -0.1358 -0.0491 -0.1635
10470TIP3    H152825   5.726   5.824  11.491 -1.1836  0.9846 -0.6563
10470TIP3    H252826   5.735   5.697  11.409 -0.2285  0.0257  0.8841
10471TIP3   OH252827   0.325   4.369   4.334  0.2638 -0.3198 -0.1412
10471TIP3    H152828   0.258   4.320   4.382 -0.7006 -1.1090 -2.1920
10471TIP3    H252829   0.279   4.405   4.258  1.4274  2.0606  0.1855
10472TIP3   OH252830   3.827   5.093   2.987 -0.7612 -0.2241 -0.1729
10472TIP3    H152831   3.791   5.137   2.910 -1.9064 -0.6271  0.1124
10472TIP3    H252832   3.845   5.164   3.049  1.7036  0.2990 -1.3417
10473TIP3   OH252833   6.219   4.191   2.012  0.3700 -0.2978 -0.3211
10473TIP3    H152834   6.288   4.245   1.974 -0.5264  0.5855 -0.7440
10473TIP3    H252835   6.218   4.215   2.105  0.1711  0.2314 -0.4514
10474TIP3   OH252836   6.495   1.257  16.343 -0.3504 -0.8612  0.8844
10474TIP3    H152837   6.535   1.233  16.259 -0.6889 -0.9577  0.7501
10474TIP3    H252838   6.417   1.202  16.348 -1.8300  1.0573 -0.0000
10475TIP3   OH252839   3.813   3.787   5.599  0.2271  0.1718  0.1847
10475TIP3    H152840   3.890   3.735   5.573  0.1974  0.1008  0.2381
10475TIP3    H252841   3.808   3.856   5.533  0.5801  0.4209  0.4171
10476TIP3   OH252842   3.141   6.233  14.665  0.3086 -0.1346 -0.2187
10476TIP3    H152843   3.219   6.287  14.652 -0.3410  0.8016 -0.2939
10476TIP3    H252844   3.095   6.274  14.739  0.5011 -1.4022  0.6291
10477TIP3   OH252845   3.878   6.587  14.802  0.0506 -0.0250  0.0687
10477TIP3    H152846   3.796   6.583  14.851  0.3277 -0.4308  0.5036
10477TIP3    H252847   3.899   6.495  14.784 -0.5630  0.1329 -1.6840
10478TIP3   OH252848   0.339   2.033   3.695  0.4147 -0.0263 -0.0639
10478TIP3    H152849   0.280   2.105   3.717  1.3405  0.5863  0.4727
10478TIP3    H252850   0.342   1.979   3.774 -0.8483 -1.0853 -0.7038
10479TIP3   OH252851   3.496   6.329  10.980  0.7173 -0.4267 -0.1134
10479TIP3    H152852   3.442   6.250  10.988 -0.7764  0.4641 -0.9845
10479TIP3    H252853   3.536   6.340  11.066 -1.7925 -0.2135  1.1024
10480TIP3   OH252854   2.701   0.912   6.449  0.1007  0.8641  0.1993
10480TIP3    H152855   2.785   0.867   6.459 -0.8589 -0.9974  0.2650
10480TIP3    H252856   2.659   0.902   6.534  1.3598  5.3743  1.6521
10481TIP3   OH252857   4.500   3.023   6.904 -0.2824 -0.2154  0.0283
10481TIP3    H152858   4.572   3.085   6.912 -0.9255  0.4804  0.4454
10481TIP3    H252859   4.461   3.041   6.818 -1.1931  0.7590  0.6268
10482TIP3   OH252860   3.758   1.872   6.500 -0.4341  0.5335 -0.0533
10482TIP3    H152861   3.665   1.891   6.509 -0.5061 -0.6262  2.2299
10482TIP3    H252862   3.795   1.888   6.586  0.9728 -1.5620 -0.1743
10483TIP3   OH252863   2.778   1.796  14.807  0.3255 -0.1811  0.3325
10483TIP3    H152864   2.724   1.852  14.752 -0.1066 -0.1871  0.7489
10483TIP3    H252865   2.852   1.852  14.832 -0.0564  0.1766  0.6706
10484TIP3   OH252866   0.516   6.557  16.508 -0.7934 -0.2614  0.1376
10484TIP3    H152867   0.432   6.548  16.462 -1.1339  0.3801  0.6208
10484TIP3    H252868   0.518   6.483  16.568 -1.1576 -0.1024  0.3462
10485TIP3   OH252869   0.500   6.718   4.076 -0.1991 -0.2506  0.1317
10485TIP3    H152870   0.450   6.733   3.995 -0.2746  0.0378  0.2293
10485TIP3    H252871   0.549   6.799   4.089  0.7037 -0.7243 -0.2417
10486TIP3   OH252872   2.983   5.297   1.819  0.2489  0.2537 -0.1845
10486TIP3    H152873   2.970   5.263   1.730  0.5230 -0.0819 -0.1012
10486TIP3    H252874   2.923   5.371   1.826 -1.5353 -1.1500  0.1605
10487TIP3   OH252875   5.752   0.229  14.303  0.2100  0.1245 -0.7186
10487TIP3    H152876   5.804   0.275  14.237  0.6179  2.6432  1.1988
10487TIP3    H252877   5.817   0.189  14.361 -0.1117 -0.6749 -0.8992
10488TIP3   OH252878   6.626   4.696   4.769 -0.0533 -0.2710  0.4619
10488TIP3    H152879   6.560   4.631   4.793 -2.8282  2.0004 -0.4641
10488TIP3    H252880   6.588   4.743   4.695  1.0356  3.4165  2.0223
10489TIP3   OH252881   5.913   1.026   3.194 -0.4696 -0.1370  0.3078
10489TIP3    H152882   5.926   0.931   3.202  0.2346 -0.0642  0.0810
10489TIP3    H252883   5.942   1.061   3.277  0.3340 -0.0199 -0.0166
10490TIP3   OH252884   0.161   5.921  15.901 -0.2289 -0.2523 -0.0962
10490TIP3    H152885   0.111   5.999  15.877  1.6482  1.2245  0.5398
10490TIP3    H252886   0.233   5.918  15.838 -0.4287 -1.6773 -0.2928
10491TIP3   OH252887   6.754   1.704   4.052 -0.1804  0.0498 -0.3002
10491TIP3    H152888   6.744   1.627   4.107  0.9782  0.2792  0.2526
10491TIP3    H252889   6.766   1.777   4.114 -3.5247  1.1321 -0.6789
10492TIP3   OH252890   2.083   3.789   4.227  0.3467  0.2284  0.5949
10492TIP3    H152891   2.010   3.728   4.231  0.7207 -0.2054  0.9989
10492TIP3    H252892   2.097   3.817   4.318  0.5302  0.4898  0.4893
10493TIP3   OH252893   5.047   3.479   0.160  0.2056 -0.0061 -0.2539
10493TIP3    H152894   5.000   3.554   0.124 -0.4617 -0.2824  0.0107
10493TIP3    H252895   4.978   3.417   0.185  0.7304 -0.6041 -0.2362
10494TIP3   OH252896   2.193   1.106   1.656 -0.3377 -0.0817 -0.3889
10494TIP3    H152897   2.203   1.017   1.690  0.5958  0.4093  0.7017
10494TIP3    H252898   2.280   1.130   1.625 -0.9127 -0.0666 -2.0858
10495TIP3   OH252899   1.161   3.808  16.260 -0.0540  0.0644  0.4760
10495TIP3    H152900   1.075   3.806  16.300  0.0155 -1.2477  0.6071
10495TIP3    H252901   1.145   3.827  16.168 -0.3875  0.8773  0.6973
10496TIP3   OH252902   4.354   3.456  12.339  0.0734 -0.0977  0.1427
10496TIP3    H152903   4.409   3.534  12.340 -0.9766  0.6635  1.4602
10496TIP3    H252904   4.312   3.458  12.253  2.2659 -0.8879 -1.0437
10497TIP3   OH252905   0.786   1.460   5.999 -0.5880  0.1767  0.1134
10497TIP3    H152906   0.870   1.448   6.042  0.1163  1.6427 -0.7730
10497TIP3    H252907   0.778   1.385   5.940 -1.4315 -1.6979  2.4575
10498TIP3   OH252908   4.982   0.655  11.433 -0.0914 -0.4425 -0.2229
10498TIP3    H152909   5.038   0.653  11.355 -0.0393 -1.1956 -0.1708
10498TIP3    H252910   4.999   0.572  11.477 -1.9330 -1.1267 -0.6974
10499TIP3   OH252911   2.499   2.301   3.240 -0.4982 -0.2553  0.3329
10499TIP3    H152912   2.514   2.213   3.276 -0.0660 -0.2073  0.2749
10499TIP3    H252913   2.546   2.360   3.299 -1.4339  0.0222  0.8205
10500TIP3   OH252914   2.233   6.163  13.375  0.3065  0.3670 -0.5487
10500TIP3    H152915   2.204   6.236  13.320  0.2588  0.2788 -0.6405
10500TIP3    H252916   2.309   6.127  13.329  0.7048  0.7365 -0.2003
10501TIP3   OH252917   5.423   3.730  13.029 -0.3349  0.2246 -0.1258
10501TIP3    H152918   5.398   3.673  13.102  2.1403  0.8774  1.3774
10501TIP3    H252919   5.342   3.773  13.004 -1.6157 -1.3675  1.0284
10502TIP3   OH252920   0.336   6.634  11.695  0.0318 -0.4860 -0.5131
10502TIP3    H152921   0.294   6.667  11.775  1.3814 -1.1040  0.4777
10502TIP3    H252922   0.369   6.713  11.652  0.2407 -0.2391  0.0899
10503TIP3   OH252923   5.613   0.922   4.980  0.2320  0.1060  0.1069
10503TIP3    H152924   5.564   0.870   4.916  1.5362 -0.8273 -0.1814
10503TIP3    H252925   5.579   1.011   4.970 -1.0984 -0.4268 -0.3536
10504TIP3   OH252926   6.352   5.613  10.739 -0.1448 -0.1256 -0.3421
10504TIP3    H152927   6.381   5.687  10.792 -1.2276  1.3216 -1.7067
10504TIP3    H252928   6.319   5.652  10.658  0.8018 -2.2200 -1.8252
10505TIP3   OH252929   5.408   6.149  14.649 -0.7330 -0.2519  0.0057
10505TIP3    H152930   5.380   6.212  14.582 -0.7106  1.5811  1.6300
10505TIP3    H252931   5.433   6.204  14.724  3.3011 -1.9494  0.1403
10506TIP3   OH252932   1.934   1.390  16.843  0.2051 -0.6901  0.0524
10506TIP3    H152933   1.863   1.402  16.780  0.7163  0.7013 -0.2913
10506TIP3    H252934   1.901   1.324  16.904 -1.9845  0.9714  0.7641
10507TIP3   OH252935   5.949   2.381   5.243 -0.1448 -0.1207 -0.5618
10507TIP3    H152936   5.959   2.475   5.257 -0.4465  0.4372 -3.3968
10507TIP3    H252937   6.029   2.342   5.278  0.6896  1.3950 -0.7151
10508TIP3   OH252938   1.124   3.910   5.979  0.1798  0.0063 -0.1152
10508TIP3    H152939   1.134   3.835   5.921  0.3121  0.7156 -1.0373
10508TIP3    H252940   1.050   3.888   6.035 -0.5630 -0.3241 -1.1816
10509TIP3   OH252941   6.393   4.657   5.914 -0.6645 -0.0907 -0.3873
10509TIP3    H152942   6.484   4.664   5.884 -0.5495 -1.5690 -0.4917
10509TIP3    H252943   6.393   4.696   6.001  0.3091 -0.9096  0.0058
10510TIP3   OH252944   0.403   0.775   1.045 -0.7442  0.6147  0.1224
10510TIP3    H152945   0.337   0.707   1.039  0.9708 -1.2417  1.0497
10510TIP3    H252946   0.407   0.798   1.138  0.1960  0.3754  0.1519
10511TIP3   OH252947   1.953   1.327   4.436  0.4191  0.1761 -0.1763
10511TIP3    H152948   1.961   1.348   4.529 -0.3420  2.7388 -0.6398
10511TIP3    H252949   1.862   1.300   4.425  0.9387 -1.9276  0.0675
10512TIP3   OH252950   4.014   4.785   6.090 -0.1343  0.4381  0.5832
10512TIP3    H152951   4.040   4.700   6.054 -1.0746  0.5975 -0.5208
10512TIP3    H252952   4.096   4.823   6.121  0.4028 -0.5884  0.4796
10513TIP3   OH252953   2.052   4.112  13.595  0.0993 -0.0306  0.3953
10513TIP3    H152954   2.029   4.151  13.679 -0.5976 -1.0146  0.6754
10513TIP3    H252955   1.970   4.113  13.545 -0.0893 -1.6795  0.6380
10514TIP3   OH252956   1.916   5.642   3.450  0.4672 -0.2708  0.2237
10514TIP3    H152957   1.845   5.597   3.495 -0.3473  0.8173  0.0490
10514TIP3    H252958   1.975   5.572   3.422 -1.5438 -1.3998 -1.4229
10515TIP3   OH252959   0.996   2.020  17.003  0.1247 -0.1670 -0.2334
10515TIP3    H152960   0.929   2.072  16.958 -3.2913 -1.5940  2.7104
10515TIP3    H252961   1.059   2.085  17.035 -1.0391  1.5492 -1.2375
10516TIP3   OH252962   4.729   4.302   1.876 -0.2788 -0.3558  0.2864
10516TIP3    H152963   4.667   4.374   1.862 -1.8927 -1.6643  0.4875
10516TIP3    H252964   4.776   4.294   1.792  2.0402  2.7354  1.0684
10517TIP3   OH252965   0.383   0.804  13.730 -0.0072 -0.1395 -0.6302
10517TIP3    H152966   0.322   0.877  13.717  0.2489  0.0675 -0.6816
10517TIP3    H252967   0.376   0.782  13.823  0.0189  0.0447 -0.5843
10518TIP3   OH252968   3.424   4.114  12.406  0.4043  0.6653  0.3114
10518TIP3    H152969   3.422   4.138  12.498  1.0147  2.7007 -0.1349
10518TIP3    H252970   3.357   4.169  12.366  1.5851  1.3994 -0.7449
10519TIP3   OH252971   3.193   0.468   3.503  0.0728 -0.0757 -0.3725
10519TIP3    H152972   3.125   0.451   3.438  0.4700 -1.8392 -0.3660
10519TIP3    H252973   3.190   0.393   3.562 -0.8571  1.8397  2.2299
10520TIP3   OH252974   5.673   1.523   4.030  0.1254 -0.2175 -0.3285
10520TIP3    H152975   5.588   1.539   4.070 -0.0256  1.0603 -1.1008
10520TIP3    H252976   5.660   1.543   3.937  1.9456  3.0466 -0.0347
10521TIP3   OH252977   5.851   5.245  12.074 -0.1450  0.6507 -0.6746
10521TIP3    H152978   5.779   5.196  12.035 -0.5416  0.1249  0.6499
10521TIP3    H252979   5.811   5.289  12.150  1.2356 -1.0287  1.1140
10522TIP3   OH252980   3.570   4.045   4.476 -0.0226  0.0671 -0.1086
10522TIP3    H152981   3.646   4.097   4.504 -0.3442  0.3477  0.2512
10522TIP3    H252982   3.498   4.077   4.530  0.0915 -1.8604  1.2938
10523TIP3   OH252983   2.050   2.811   4.593 -0.3174 -0.2394 -0.3045
10523TIP3    H152984   2.082   2.724   4.568 -1.2068 -1.5666  2.7188
10523TIP3    H252985   1.958   2.810   4.565 -0.9698 -1.2418  1.7068
10524TIP3   OH252986   0.838   6.637  12.706 -0.4035  0.0731 -0.2926
10524TIP3    H152987   0.921   6.600  12.736 -0.1344  1.7928  1.2348
10524TIP3    H252988   0.775   6.614  12.774 -0.7597  0.3666 -0.5159
10525TIP3   OH252989   0.955   6.329   3.259 -0.2848 -0.3924 -0.3993
10525TIP3    H152990   0.954   6.415   3.217 -0.6516  0.3518  1.0686
10525TIP3    H252991   0.905   6.273   3.199 -1.4250  0.8074 -0.6185
10526TIP3   OH252992   1.850   0.781  15.444  0.4225 -0.0430 -0.3312
10526TIP3    H152993   1.795   0.842  15.395 -0.4272 -1.3050 -0.9819
10526TIP3    H252994   1.811   0.777  15.531  1.5725  1.7237  0.3298
10527TIP3   OH252995   4.118   5.281   2.983  0.0993  0.6356 -0.4029
10527TIP3    H152996   4.173   5.334   3.041  0.1421  0.3426 -0.1700
10527TIP3    H252997   4.150   5.192   2.996 -3.2716 -0.3564  3.2017
10528TIP3   OH252998   0.560   6.026   0.042  0.4906  0.2237 -0.2522
10528TIP3    H152999   0.641   6.007  -0.006  1.4451 -1.1194  1.7317
10528TIP3    H253000   0.590   6.057   0.127 -1.0601 -1.1736  0.8451
10529TIP3   OH253001   1.425   1.432  16.540  0.1073 -0.3516  0.0134
10529TIP3    H153002   1.470   1.498  16.489 -0.5686  2.0082  2.2702
10529TIP3    H253003   1.338   1.426  16.501 -0.0508  0.6176  0.2125
10530TIP3   OH253004   0.389   3.467  16.753  0.3669 -0.1805 -0.2231
10530TIP3    H153005   0.460   3.506  16.803  0.5384 -0.0687 -0.5517
10530TIP3    H253006   0.334   3.541  16.726  2.3963  0.3251 -3.5977
10531TIP3   OH253007   0.245   5.540   1.345 -0.0534 -0.1250 -0.1851
10531TIP3    H153008   0.217   5.630   1.326 -0.9679  0.3567  2.8693
10531TIP3    H253009   0.338   5.547   1.366 -0.2487  0.2451  0.5955
10532TIP3   OH253010   5.217   0.284   2.147  0.4535  0.0402  0.0899
10532TIP3    H153011   5.193   0.290   2.240  0.9506 -1.9458  0.3848
10532TIP3    H253012   5.143   0.240   2.106  0.7575 -0.1857 -0.2216
10533TIP3   OH253013   2.596   0.463   4.782  0.1721  0.1445 -0.0939
10533TIP3    H153014   2.592   0.549   4.740 -0.2563 -0.7835 -2.0449
10533TIP3    H253015   2.658   0.475   4.854  0.8372  1.8359 -0.8814
10534TIP3   OH253016   3.376   2.860   4.620  0.5076 -0.3557  0.6272
10534TIP3    H153017   3.307   2.873   4.684  1.8337  1.7884  1.7445
10534TIP3    H253018   3.457   2.869   4.670  1.5918 -1.0334 -0.9353
10535TIP3   OH253019   5.261   4.513  12.627  0.4199 -0.3230 -0.0459
10535TIP3    H153020   5.291   4.600  12.599  4.0620 -1.4887 -0.3343
10535TIP3    H253021   5.245   4.466  12.545  0.4552 -0.5294  0.0665
10536TIP3   OH253022   3.811   1.216  16.005  0.1189  0.1068  0.3486
10536TIP3    H153023   3.832   1.283  16.070  0.8461 -0.8360  1.1307
10536TIP3    H253024   3.897   1.189  15.970 -0.2195  0.1517 -0.5552
10537TIP3   OH253025   0.684   1.164  14.767 -0.2039  0.6942 -0.3153
10537TIP3    H153026   0.697   1.153  14.673 -0.2319  1.7804 -0.4571
10537TIP3    H253027   0.686   1.075  14.802  2.4104  0.4189 -0.9911
10538TIP3   OH253028   6.304   5.274  13.823 -0.4539 -0.3268 -0.3261
10538TIP3    H153029   6.248   5.275  13.900 -1.1104 -2.8615 -0.6687
10538TIP3    H253030   6.371   5.208  13.843  0.2169  0.0021 -1.3646
10539TIP3   OH253031   6.687   2.545  13.248 -1.0684  0.0572 -0.0244
10539TIP3    H153032   6.757   2.508  13.303 -1.1821  0.8343  0.6501
10539TIP3    H253033   6.730   2.616  13.201 -1.6054  1.1540  1.0936
10540TIP3   OH253034   3.209   2.925   4.827  0.2724 -0.2461 -0.4070
10540TIP3    H153035   3.182   3.017   4.825  0.7087 -0.1154 -0.4454
10540TIP3    H253036   3.127   2.876   4.823  0.0711  0.1327 -1.1639
10541TIP3   OH253037   1.504   2.492  15.780 -0.1119  0.3698 -0.4691
10541TIP3    H153038   1.504   2.474  15.686 -1.8444 -0.7891 -0.2873
10541TIP3    H253039   1.530   2.409  15.821  0.6024  0.8570  0.0926
10542TIP3   OH253040   1.370   5.135  16.694 -0.4909  0.2802  0.2893
10542TIP3    H153041   1.350   5.206  16.633  0.3773 -0.7292 -1.2096
10542TIP3    H253042   1.364   5.177  16.780 -2.7311  1.5030 -0.3686
10543TIP3   OH253043   3.105   4.549  11.563 -0.3281 -0.1768  0.6339
10543TIP3    H153044   3.120   4.472  11.619 -1.3468  0.0935  1.3036
10543TIP3    H253045   3.015   4.540  11.533  0.1969 -0.3018 -0.9916
10544TIP3   OH253046   4.587   2.721   0.295  0.3820 -0.9189  0.2441
10544TIP3    H153047   4.605   2.755   0.383  0.1691  0.0929 -0.0825
10544TIP3    H253048   4.669   2.733   0.247  0.6115 -1.8138  0.3952
10545TIP3   OH253049   0.292   3.923  13.714  0.3416 -0.3149  0.2274
10545TIP3    H153050   0.247   3.838  13.718  0.6721 -0.7219 -2.7626
10545TIP3    H253051   0.222   3.986  13.698  0.4758 -0.5653 -1.4578
10546TIP3   OH253052   2.889   0.817  14.878  0.0305  0.2841  0.1961
10546TIP3    H153053   2.932   0.842  14.796  0.1605 -0.3478  0.0677
10546TIP3    H253054   2.844   0.735  14.857  1.3239 -0.7015  1.1549
10547TIP3   OH253055   1.930   3.746  11.245 -0.0618 -0.0725 -0.1876
10547TIP3    H153056   1.957   3.817  11.187 -0.4867 -0.1683 -0.5061
10547TIP3    H253057   1.858   3.782  11.296  1.6793  0.7240  1.8303
10548TIP3   OH253058   4.005   3.516   5.206  0.8824 -0.1666  0.3524
10548TIP3    H153059   3.977   3.486   5.120 -0.7699 -0.8378  1.0747
10548TIP3    H253060   3.924   3.539   5.252  1.6142 -0.7176  2.0347
10549TIP3   OH253061   4.335   2.977   0.692  0.0076 -0.0756  0.0850
10549TIP3    H153062   4.319   3.071   0.695 -0.5979  0.0465 -2.9463
10549TIP3    H253063   4.250   2.938   0.713  0.2232  0.0373  1.2027
10550TIP3   OH253064   0.481   4.604  10.769  0.4211  0.6234 -0.3014
10550TIP3    H153065   0.512   4.636  10.854 -0.4011  0.5684  0.0281
10550TIP3    H253066   0.408   4.662  10.747 -0.4688 -0.4192 -0.1530
10551TIP3   OH253067   4.388   1.238   1.361 -0.1396  0.0933  0.2011
10551TIP3    H153068   4.411   1.189   1.282  0.4419  1.1259 -0.2909
10551TIP3    H253069   4.312   1.291   1.335 -0.6450 -0.3910  0.6706
10552TIP3   OH253070   4.798   2.719   5.256  0.4696  0.2062 -0.6457
10552TIP3    H153071   4.826   2.789   5.197 -0.5982  1.4912  0.3040
10552TIP3    H253072   4.703   2.721   5.252  0.3042  1.1772  1.9984
10553TIP3   OH253073   4.400   5.799   4.972  0.4142  0.1177 -0.2513
10553TIP3    H153074   4.436   5.800   4.884  1.2910 -2.4393 -0.0138
10553TIP3    H253075   4.475   5.813   5.029  0.1806 -0.1378  0.1286
10554TIP3   OH253076   5.999   4.759  16.312  0.1400  0.1035 -0.5896
10554TIP3    H153077   6.082   4.711  16.312 -0.3847 -0.8334 -0.4385
10554TIP3    H253078   5.980   4.773  16.220 -0.3979 -1.2624 -0.7139
10555TIP3   OH253079   0.125   1.026  15.214  0.1635  0.2836  0.3569
10555TIP3    H153080   0.221   1.026  15.216  0.1817  0.1806 -0.4221
10555TIP3    H253081   0.100   1.095  15.276  0.6921 -0.9371  1.9998
10556TIP3   OH253082   4.818   2.721  15.643 -0.3284 -0.4773  0.2908
10556TIP3    H153083   4.734   2.715  15.688 -0.4873 -2.0471 -0.1596
10556TIP3    H253084   4.873   2.655  15.685  0.2214 -0.4332 -0.3488
10557TIP3   OH253085   5.871   0.519   5.743  0.3702 -0.1936 -0.0328
10557TIP3    H153086   5.932   0.562   5.683  1.1057 -2.2238 -0.8315
10557TIP3    H253087   5.908   0.533   5.830  1.6565 -0.8113 -0.4542
10558TIP3   OH253088   3.506   1.352   3.255 -0.4410 -0.2096 -0.2125
10558TIP3    H153089   3.544   1.376   3.171 -1.8727  0.7757 -0.6195
10558TIP3    H253090   3.554   1.404   3.319 -0.5189  0.3871 -0.6285
10559TIP3   OH253091   1.677   0.764   4.811 -0.3455 -0.0429 -0.7423
10559TIP3    H153092   1.754   0.754   4.755 -0.0968  0.2185 -0.4532
10559TIP3    H253093   1.652   0.675   4.834 -0.3159 -0.1422 -1.0925
10560TIP3   OH253094   4.425   5.674  16.399 -0.6140  0.2253 -0.2663
10560TIP3    H153095   4.450   5.654  16.489 -0.6810  1.4295  0.0448
10560TIP3    H253096   4.430   5.770  16.394 -1.5358  0.2392 -1.2719
10561TIP3   OH253097   3.878   6.152  11.319  0.2235 -0.6702 -0.2049
10561TIP3    H153098   3.965   6.115  11.307  0.3082 -0.5637  0.0798
10561TIP3    H253099   3.847   6.116  11.402 -0.7067 -2.0773 -1.1199
10562TIP3   OH253100   2.647   3.409  14.705  0.1253 -0.0287  0.5401
10562TIP3    H153101   2.663   3.425  14.798  2.2094 -0.5260  0.3213
10562TIP3    H253102   2.645   3.496  14.666  0.4048  0.1473  0.9084
10563TIP3   OH253103   5.119   0.807  14.965  0.2179 -0.1862 -0.6514
10563TIP3    H153104   5.114   0.715  14.937  1.3809 -0.1364 -1.0650
10563TIP3    H253105   5.179   0.806  15.039 -1.3902 -0.0348  0.6973
10564TIP3   OH253106   3.574   0.108   2.401 -0.7085  0.1818 -0.0087
10564TIP3    H153107   3.507   0.085   2.466 -0.6610  1.1376  0.4041
10564TIP3    H253108   3.646   0.143   2.453 -0.0263 -0.4882 -0.4779
10565TIP3   OH253109   1.593   4.494  15.897 -0.2848 -0.0858 -0.2362
10565TIP3    H153110   1.599   4.567  15.835  3.6094 -2.1563 -2.7882
10565TIP3    H253111   1.518   4.443  15.867 -0.9126  1.0410 -0.6397
10566TIP3   OH253112   5.344   6.358   0.669  0.6748  0.4299  0.8077
10566TIP3    H153113   5.411   6.290   0.666  0.4267  0.2236 -0.2933
10566TIP3    H253114   5.371   6.421   0.602  0.6377  1.1786  1.4785
10567TIP3   OH253115   1.406   4.796   5.754  0.0434  0.3437  0.2813
10567TIP3    H153116   1.483   4.840   5.719 -1.0030  1.0888 -1.1759
10567TIP3    H253117   1.366   4.861   5.812  0.4292 -0.0043  0.9519
10568TIP3   OH253118   3.541   3.375   0.455 -0.0111 -0.5780 -0.0040
10568TIP3    H153119   3.546   3.451   0.513  1.2823  0.5791 -1.5421
10568TIP3    H253120   3.610   3.316   0.486  1.2416  0.4112 -0.8133
10569TIP3   OH253121   1.342   3.597  14.125  0.3238 -0.3286  0.1589
10569TIP3    H153122   1.356   3.659  14.053  0.0431 -0.0375  0.3503
10569TIP3    H253123   1.263   3.628  14.168 -0.1830 -1.2036 -0.1261
10570TIP3   OH253124   2.188   2.499   6.192  0.0312 -0.4901 -0.1070
10570TIP3    H153125   2.207   2.477   6.101 -0.5668 -2.5591  0.2222
10570TIP3    H253126   2.096   2.476   6.203 -0.2865  1.0528  0.6718
10571TIP3   OH253127   1.652   2.369   0.932  0.0843  0.2621 -0.0901
10571TIP3    H153128   1.718   2.338   0.994  1.4904  2.6922 -0.2531
10571TIP3    H253129   1.685   2.343   0.847  1.7876  2.7775 -0.3180
10572TIP3   OH253130   4.839   5.620   4.926  0.2697 -0.3093  0.4493
10572TIP3    H153131   4.927   5.650   4.903 -0.7613  3.0770  0.3060
10572TIP3    H253132   4.834   5.632   5.021  0.3719 -1.8104  0.6589
10573TIP3   OH253133   4.233   5.425  17.224 -0.3742 -0.0409 -0.4522
10573TIP3    H153134   4.178   5.369  17.169 -0.3661  1.0638 -1.6417
10573TIP3    H253135   4.178   5.445  17.300 -0.4112 -1.5364 -0.0497
10574TIP3   OH253136   5.572   1.900   4.280  0.4320 -0.1896  0.0027
10574TIP3    H153137   5.603   1.847   4.207 -0.9491 -1.3075  0.1991
10574TIP3    H253138   5.651   1.920   4.330  1.0272 -1.8837 -0.2033
10575TIP3   OH253139   4.121   5.729   5.749  0.2239 -0.1170 -0.1602
10575TIP3    H153140   4.193   5.785   5.719 -0.1988  0.5311  0.0057
10575TIP3    H253141   4.163   5.660   5.799  0.7998 -0.2172 -0.7735
10576TIP3   OH253142   2.307   4.780  11.900  0.0702 -0.5328 -0.5580
10576TIP3    H153143   2.300   4.837  11.823  0.3946 -1.0246 -0.9544
10576TIP3    H253144   2.337   4.839  11.970  2.2331 -0.5518 -1.4026
10577TIP3   OH253145   1.578   2.207  15.002  0.2696 -0.0833  0.9191
10577TIP3    H153146   1.590   2.276  14.937  0.8199  1.2186  2.3511
10577TIP3    H253147   1.651   2.147  14.987  2.1693  1.7875  2.2116
10578TIP3   OH253148   6.254   1.268   0.656  0.6256  0.2432 -0.4144
10578TIP3    H153149   6.320   1.217   0.610 -0.4993  0.2130 -2.0805
10578TIP3    H253150   6.260   1.356   0.618 -0.0471  0.3255 -0.3529
10579TIP3   OH253151   1.086   5.925  14.939 -0.3597  0.9063  0.1241
10579TIP3    H153152   1.178   5.921  14.913 -0.3189 -0.8155  0.3695
10579TIP3    H253153   1.038   5.900  14.859 -0.4796 -0.0658  0.4793
10580TIP3   OH253154   4.168   6.046   0.756 -0.7852  0.5342  0.0192
10580TIP3    H153155   4.262   6.061   0.746 -1.1733  2.3899 -1.4764
10580TIP3    H253156   4.141   6.109   0.823 -0.8722 -0.4335  0.9032
10581TIP3   OH253157   1.357   2.967   5.020  0.0008  0.3976 -0.6829
10581TIP3    H153158   1.393   2.905   5.083 -2.7236 -0.4325  0.1664
10581TIP3    H253159   1.430   2.985   4.961  1.9420 -0.7058  1.2215
10582TIP3   OH253160   1.041   4.036  13.935 -0.1787 -0.0593 -0.0445
10582TIP3    H153161   1.062   4.076  13.850  0.8715  0.4352  0.4314
10582TIP3    H253162   0.983   4.099  13.978  2.6297  1.8002  1.3163
10583TIP3   OH253163   3.424   0.086   1.844 -0.4566 -0.3013 -0.0162
10583TIP3    H153164   3.463   0.173   1.857 -1.4402  0.1726 -0.0989
10583TIP3    H253165   3.348   0.086   1.903 -0.5903 -1.0276 -0.1885
10584TIP3   OH253166   4.718   1.342   4.519 -0.6284 -0.4745 -0.3205
10584TIP3    H153167   4.661   1.351   4.595  0.7364  0.0024  0.6755
10584TIP3    H253168   4.794   1.397   4.538 -0.3551 -0.1294 -2.1415
10585TIP3   OH253169   6.553   4.497   5.065  0.1471  0.6716  0.8255
10585TIP3    H153170   6.485   4.515   5.000  0.8747  1.2472  0.1911
10585TIP3    H253171   6.538   4.406   5.091 -0.5410  0.6269  0.3117
10586TIP3   OH253172   5.259   2.231  13.399 -0.2817 -0.3155 -0.4388
10586TIP3    H153173   5.347   2.206  13.428  0.1172  1.6221  0.1577
10586TIP3    H253174   5.209   2.150  13.403  1.2386 -1.2771  0.0997
10587TIP3   OH253175   6.511   3.373  16.467 -0.2498 -0.2915  0.2374
10587TIP3    H153176   6.540   3.453  16.424 -1.2119  0.3965  0.8487
10587TIP3    H253177   6.552   3.376  16.554  1.6409 -1.6473 -0.5267
10588TIP3   OH253178   5.002   5.744   1.477 -0.1785  0.3815  0.1184
10588TIP3    H153179   4.989   5.692   1.557 -0.8329 -1.2322 -0.9723
10588TIP3    H253180   4.929   5.718   1.420  1.1274  0.2942 -1.5815
10589TIP3   OH253181   1.825   4.855   5.171  0.5103  0.0584 -0.8084
10589TIP3    H153182   1.786   4.812   5.095 -0.8162  2.5394 -1.6378
10589TIP3    H253183   1.820   4.949   5.151  0.5691  0.7860  2.1274
10590TIP3   OH253184   0.096   0.724  14.131  0.0241  0.3339  0.2863
10590TIP3    H153185   0.079   0.766  14.216  0.2010 -0.3162  0.6544
10590TIP3    H253186   0.018   0.673  14.113 -0.2991  1.0265 -0.2907
10591TIP3   OH253187   1.312   3.790   2.064 -0.3027  0.4094  0.0140
10591TIP3    H153188   1.402   3.822   2.057  0.5289 -1.6851  0.3195
10591TIP3    H253189   1.298   3.742   1.983 -0.3196 -1.1477  0.9028
10592TIP3   OH253190   0.035   2.764  15.466  0.0141  0.0173  0.0133
10592TIP3    H153191   0.128   2.754  15.488  0.0284  0.3557  0.1119
10592TIP3    H253192   0.028   2.730  15.376  0.4467  0.9828 -0.3995
10593TIP3   OH253193   4.902   5.441   1.489 -0.3469  0.0668  0.1206
10593TIP3    H153194   4.860   5.513   1.442  1.1984  1.1695  0.3541
10593TIP3    H253195   4.930   5.480   1.572  1.8431 -0.3417 -0.3571
10594TIP3   OH253196   3.866   1.686  12.529 -0.7612  0.1924  0.0208
10594TIP3    H153197   3.862   1.751  12.599 -0.8474 -0.1167  0.3063
10594TIP3    H253198   3.838   1.604  12.571 -0.8269  0.0094 -0.3774
10595TIP3   OH253199   0.895   0.044   0.471  0.2385  0.0173  0.6159
10595TIP3    H153200   0.928  -0.041   0.501  2.1899 -0.0459 -1.4083
10595TIP3    H253201   0.968   0.104   0.484 -0.0913  0.7282 -0.6305
10596TIP3   OH253202   1.012   1.604   1.582  0.6008 -0.1771  0.0515
10596TIP3    H153203   1.073   1.576   1.651  1.0639  3.0398  1.1229
10596TIP3    H253204   1.050   1.571   1.501  2.5895 -0.1486  0.9134
10597TIP3   OH253205   6.692   6.022   0.727  0.1614 -0.2803 -0.5565
10597TIP3    H153206   6.741   5.940   0.733 -0.4153 -0.6484 -0.8532
10597TIP3    H253207   6.600   5.996   0.718 -0.0178  0.3937 -0.8185
10598TIP3   OH253208   5.567   4.814  16.136 -0.0277  0.3722  0.2958
10598TIP3    H153209   5.635   4.866  16.094  0.8938 -2.4111 -2.0049
10598TIP3    H253210   5.615   4.757  16.197 -0.3508 -0.9748 -0.6731
10599TIP3   OH253211   4.916   2.265  12.754 -0.2614  0.4304 -0.6307
10599TIP3    H153212   4.944   2.281  12.663 -1.2914 -0.9264 -1.2336
10599TIP3    H253213   4.942   2.175  12.771 -1.0937  0.2935 -0.0023
10600TIP3   OH253214   3.891   0.911   3.449 -0.0918 -0.2294 -0.2999
10600TIP3    H153215   3.813   0.862   3.425 -0.5417  0.2307  0.2107
10600TIP3    H253216   3.858   0.992   3.489  0.6382  0.2004 -0.5389
10601TIP3   OH253217   2.237   1.341  12.652 -0.3838  0.1943 -0.2602
10601TIP3    H153218   2.247   1.290  12.572  0.7399  1.0414 -0.6789
10601TIP3    H253219   2.326   1.348  12.687 -1.0886 -2.1178  2.3428
10602TIP3   OH253220   0.307   2.530   2.610 -0.0505  0.8590  0.2142
10602TIP3    H153221   0.233   2.470   2.610  0.2169  0.3592 -2.9727
10602TIP3    H253222   0.277   2.605   2.559  1.8428  0.1809 -2.1045
10603TIP3   OH253223   6.703   4.544   0.806  0.5574 -0.0588 -0.1588
10603TIP3    H153224   6.750   4.495   0.873  0.7778  1.1523  0.5945
10603TIP3    H253225   6.771   4.579   0.749  0.4973  0.6538  0.2047
10604TIP3   OH253226   5.843   0.865   1.528 -0.4739 -0.4375  0.4479
10604TIP3    H153227   5.887   0.944   1.497  0.5908 -1.1349  0.1637
10604TIP3    H253228   5.754   0.872   1.493 -0.6551  1.0212  1.0949
10605TIP3   OH253229   3.973   1.283   0.621  0.1612  0.3295 -0.0822
10605TIP3    H153230   4.030   1.358   0.638 -0.7694  1.1028 -0.2232
10605TIP3    H253231   3.968   1.278   0.525  2.4611 -1.7173 -0.1910
10606TIP3   OH253232   6.158   3.542   1.301  0.2385  0.5048 -0.4152
10606TIP3    H153233   6.235   3.562   1.355 -1.0702  0.6906  1.4752
10606TIP3    H253234   6.093   3.608   1.325 -0.3908  0.6528 -2.3426
10607TIP3   OH253235   1.450   3.291   1.917 -0.0735 -0.1993 -0.9717
10607TIP3    H153236   1.481   3.345   1.845  0.5268  1.4265  0.4305
10607TIP3    H253237   1.530   3.260   1.961 -0.3887  0.7648  0.3449
10608TIP3   OH253238   5.991   2.427  14.983 -0.5780 -0.2442 -0.1038
10608TIP3    H153239   6.074   2.455  15.022 -0.4424 -0.9904  0.1760
10608TIP3    H253240   5.950   2.507  14.951 -0.1917  0.2502  0.6175
10609TIP3   OH253241   5.550   4.805  14.955  0.0626  0.3453  0.1741
10609TIP3    H153242   5.587   4.859  15.025 -0.6562  0.6865  0.3001
10609TIP3    H253243   5.575   4.850  14.874  1.2810 -0.2925  0.1755
10610TIP3   OH253244   0.833   1.287  16.554  0.5873 -0.3226 -0.4288
10610TIP3    H153245   0.829   1.328  16.468  0.5635 -0.3989 -0.4645
10610TIP3    H253246   0.760   1.325  16.603 -0.6839 -1.7845 -1.1078
10611TIP3   OH253247   2.014   4.309  13.792  0.2045 -0.1874  0.3116
10611TIP3    H153248   2.090   4.366  13.785 -1.4712  2.5561  2.3571
10611TIP3    H253249   1.957   4.335  13.720 -0.5759  0.8571  1.2646
10612TIP3   OH253250   3.680   6.277  17.034  0.6767  0.3138 -0.4787
10612TIP3    H153251   3.727   6.302  16.955  1.2878 -0.5524 -0.4129
10612TIP3    H253252   3.745   6.286  17.104  0.3506  0.3974 -0.1868
10613TIP3   OH253253   1.596   1.404   6.392  0.4114  0.1579 -0.4693
10613TIP3    H153254   1.502   1.424   6.396  0.1998 -0.8705  0.3151
10613TIP3    H253255   1.621   1.392   6.484  0.8533 -1.4987 -0.7749
10614TIP3   OH253256   4.060   0.990   5.642  0.1287 -0.3288 -0.7483
10614TIP3    H153257   4.056   0.989   5.738 -1.0434 -0.2254 -0.7827
10614TIP3    H253258   3.988   1.047   5.616  0.6971 -0.0126 -1.6915
10615TIP3   OH253259   6.159   1.428  11.753 -0.1886  0.2008 -0.0204
10615TIP3    H153260   6.235   1.371  11.738  1.3222  2.4827 -1.8617
10615TIP3    H253261   6.187   1.487  11.823 -0.9721 -0.0545  0.5189
10616TIP3   OH253262   5.107   2.974  11.344  0.1073 -0.2063 -0.7229
10616TIP3    H153263   5.169   2.903  11.331  0.1820  0.1103 -2.2341
10616TIP3    H253264   5.022   2.935  11.327 -0.2157 -0.7249  1.6692
10617TIP3   OH253265   4.673   5.800   0.779 -0.4408 -0.3776  0.2997
10617TIP3    H153266   4.766   5.787   0.762 -0.0611  0.9108  1.1631
10617TIP3    H253267   4.628   5.763   0.703  0.9056  1.1000 -1.2831
10618TIP3   OH253268   1.214   3.211  12.566  0.4136  0.5008 -0.4384
10618TIP3    H153269   1.149   3.277  12.542 -0.4256  0.4791  1.6303
10618TIP3    H253270   1.187   3.132  12.518  0.6829  1.2789 -1.9198
10619TIP3   OH253271   4.251   2.845   4.277  0.1717  0.7251  0.3870
10619TIP3    H153272   4.346   2.846   4.278  0.1665  1.1662  0.4773
10619TIP3    H253273   4.225   2.871   4.365 -0.0216 -2.2860  1.3347
10620TIP3   OH253274   2.623   1.144  13.920  0.1310  0.3325  0.0330
10620TIP3    H153275   2.674   1.080  13.871  0.7606 -0.0277  1.1275
10620TIP3    H253276   2.635   1.120  14.011  0.6534  2.2095  0.5108
10621TIP3   OH253277   2.460   4.906   2.918 -0.3349  0.3040  0.0128
10621TIP3    H153278   2.526   4.908   2.848  1.8332 -0.3344  1.9200
10621TIP3    H253279   2.422   4.818   2.912 -1.3973  0.8278 -1.3805
10622TIP3   OH253280   0.734   1.105   4.217 -0.4744  0.2699 -0.0097
10622TIP3    H153281   0.801   1.046   4.252 -1.0442 -0.8206 -0.6814
10622TIP3    H253282   0.696   1.147   4.295  1.9740  2.0794  0.2933
10623TIP3   OH253283   2.486   0.989   3.224  0.1544 -0.0496  0.0828
10623TIP3    H153284   2.423   0.934   3.270 -0.3419  0.3165 -0.1510
10623TIP3    H253285   2.455   1.078   3.237  0.5544  0.1258 -0.1380
10624TIP3   OH253286   6.117   2.545   1.542 -0.1099 -0.1532  0.1372
10624TIP3    H153287   6.104   2.455   1.511  0.0609 -0.4079  0.7836
10624TIP3    H253288   6.163   2.535   1.626  1.3104  0.5901 -0.5056
10625TIP3   OH253289   1.948   1.332  14.200  0.0656  0.2916  0.4991
10625TIP3    H153290   1.992   1.404  14.243  1.2282 -0.5632  0.7717
10625TIP3    H253291   1.988   1.327  14.113 -0.4034  0.3177  0.2745
10626TIP3   OH253292   6.641   3.807   3.426  0.6450 -0.5299 -0.1865
10626TIP3    H153293   6.546   3.803   3.430  0.7078 -1.3672  0.5931
10626TIP3    H253294   6.665   3.744   3.358  0.7374 -1.8944  1.0599
10627TIP3   OH253295   3.353   4.018   6.342 -0.6944  0.1183  0.7311
10627TIP3    H153296   3.324   3.937   6.384  0.9750 -1.1960 -0.4914
10627TIP3    H253297   3.285   4.037   6.277 -0.8463 -0.6108  0.6660
10628TIP3   OH253298   6.100   0.456  16.308 -0.0203 -0.5254  0.8071
10628TIP3    H153299   6.024   0.496  16.266  0.3754 -0.5718  0.0424
10628TIP3    H253300   6.160   0.528  16.325  0.0492 -0.5814  0.8034
10629TIP3   OH253301   0.067   0.373  12.894  0.4762  0.5771 -0.1618
10629TIP3    H153302   0.125   0.389  12.968 -0.9692  1.4162  0.8233
10629TIP3    H253303   0.112   0.413  12.819  2.7541 -1.7169 -0.1637
10630TIP3   OH253304   2.516   5.551  14.512 -0.1282  0.2176  0.5931
10630TIP3    H153305   2.594   5.496  14.518  0.1516  0.3844 -1.0453
10630TIP3    H253306   2.455   5.500  14.458 -0.7977  0.4764  1.0979
10631TIP3   OH253307   5.878   6.459  13.761  0.7568  0.3267  0.0934
10631TIP3    H153308   5.835   6.544  13.750 -0.1169  0.1299  1.6489
10631TIP3    H253309   5.928   6.447  13.681 -0.7394  1.3737 -1.0594
10632TIP3   OH253310   1.340   5.272  16.943 -0.5837 -0.6649  0.0875
10632TIP3    H153311   1.357   5.193  16.995 -0.6412  0.2942  1.6298
10632TIP3    H253312   1.300   5.333  17.005  1.7130  1.4907 -0.3937
10633TIP3   OH253313   3.377   2.082  13.033  0.2765 -0.6113 -0.1655
10633TIP3    H153314   3.322   2.034  12.971 -1.6341  0.5553  0.5269
10633TIP3    H253315   3.315   2.117  13.097  1.5533  2.3915 -0.3859
10634TIP3   OH253316   4.070   0.299  13.726 -0.4427  0.2131 -0.3826
10634TIP3    H153317   4.056   0.383  13.770 -1.7802 -0.9281  1.5212
10634TIP3    H253318   4.164   0.286  13.728 -0.3115  1.1323  0.3573
10635TIP3   OH253319   1.910   2.993   3.074 -0.1264  0.1423 -0.7106
10635TIP3    H153320   1.935   3.077   3.035 -0.6401  0.0879 -1.1804
10635TIP3    H253321   1.853   3.017   3.147  0.8821  0.2472  0.0564
10636TIP3   OH253322   5.102   1.073  14.799  0.3597 -0.2050 -0.2466
10636TIP3    H153323   5.022   1.062  14.749 -1.4202  1.4806  2.0267
10636TIP3    H253324   5.105   0.997  14.858  0.9807 -0.7360 -0.9304
10637TIP3   OH253325   1.106   3.452   1.520 -0.5068  0.4002 -0.2399
10637TIP3    H153326   1.120   3.399   1.598  1.8595  0.1428 -0.7879
10637TIP3    H253327   1.192   3.459   1.479 -1.7297  0.2189 -3.0558
10638TIP3   OH253328   2.085   2.056   3.298  0.5080  0.0725  0.2675
10638TIP3    H153329   2.125   2.142   3.296  0.9757 -0.1375 -1.6880
10638TIP3    H253330   2.060   2.042   3.390  2.7458  1.1898  1.1007
10639TIP3   OH253331   6.367   5.170  11.340  0.0871  0.1276  0.1097
10639TIP3    H153332   6.308   5.105  11.304 -1.4799  0.9817  1.0193
10639TIP3    H253333   6.455   5.138  11.319 -0.6196  0.3417 -4.0146
10640TIP3   OH253334   0.955   0.643   0.431  0.4446 -0.4535 -0.5497
10640TIP3    H153335   1.017   0.631   0.503  0.4363  0.6549 -0.3382
10640TIP3    H253336   0.889   0.574   0.444 -1.0332  1.2805  2.1020
10641TIP3   OH253337   4.003   4.439  15.170  0.0895 -0.6061  0.3743
10641TIP3    H153338   4.023   4.347  15.149 -1.3580 -0.8184 -0.1757
10641TIP3    H253339   4.000   4.441  15.266 -0.7708 -1.3510  0.3768
10642TIP3   OH253340   2.525   2.149   0.066 -0.3496  0.1466 -0.0561
10642TIP3    H153341   2.516   2.083   0.135 -0.9390 -0.3603 -0.6075
10642TIP3    H253342   2.435   2.178   0.049 -0.3218 -0.4357 -1.2834
10643TIP3   OH253343   4.918   3.446  15.897  0.1945  0.4178 -0.6940
10643TIP3    H153344   4.980   3.390  15.851  3.0774  0.9158  2.2027
10643TIP3    H253345   4.947   3.535  15.878 -1.6774  0.8547 -1.7871
10644TIP3   OH253346   0.717   0.395  11.564 -0.3671  0.2418  0.5716
10644TIP3    H153347   0.687   0.331  11.499  0.2577 -0.4561  0.9462
10644TIP3    H253348   0.720   0.346  11.646  0.8757  0.5196  0.7177
10645TIP3   OH253349   3.875   4.344   4.956  0.5068  0.3408  0.5701
10645TIP3    H153350   3.866   4.340   5.051  1.4837  0.0312  0.6607
10645TIP3    H253351   3.934   4.418   4.941  0.5693  0.2217  0.2253
10646TIP3   OH253352   5.962   3.783   0.266 -0.6604 -0.3416  0.0969
10646TIP3    H153353   5.977   3.704   0.215  1.2681  0.1153 -0.1401
10646TIP3    H253354   5.924   3.845   0.204  3.3958  0.8585 -1.5568
10647TIP3   OH253355   5.063   4.953   4.763  0.1392 -0.2861 -0.2417
10647TIP3    H153356   5.081   4.872   4.716 -1.1827 -0.3412 -0.6782
10647TIP3    H253357   5.028   5.013   4.697  2.0383  1.0305 -0.1613
10648TIP3   OH253358   4.728   1.457   3.986  0.1951 -0.7254  0.5466
10648TIP3    H153359   4.779   1.444   4.066 -0.8988 -0.4029  1.3175
10648TIP3    H253360   4.637   1.443   4.013 -0.2457 -0.0004 -0.5015
10649TIP3   OH253361   0.523   4.051  16.293 -0.1455  0.5657 -0.6288
10649TIP3    H153362   0.602   4.054  16.348  0.5996  0.1777 -1.6310
10649TIP3    H253363   0.530   3.967  16.247 -1.3121  0.3898 -0.4955
10650TIP3   OH253364   3.322   6.297  16.840 -0.2236 -0.2967 -0.1507
10650TIP3    H153365   3.341   6.327  16.928  0.5131 -1.7244  0.2119
10650TIP3    H253366   3.238   6.252  16.848 -1.3433  1.5748 -0.6980
10651TIP3   OH253367   6.666   1.804   6.181 -0.1560  0.0742  0.4476
10651TIP3    H153368   6.610   1.796   6.258 -0.2604 -1.4946  0.2431
10651TIP3    H253369   6.742   1.854   6.211  0.5876 -1.8869  2.0676
10652TIP3   OH253370   3.206   5.119   4.276 -0.4692  0.2982 -0.0684
10652TIP3    H153371   3.249   5.159   4.351  1.9493  0.3154 -1.3664
10652TIP3    H253372   3.140   5.184   4.249 -0.2920  0.9737  1.0583
10653TIP3   OH253373   2.011   5.457   1.504  0.5220 -0.2507  0.3818
10653TIP3    H153374   2.041   5.366   1.507  0.1855 -0.4369 -0.9981
10653TIP3    H253375   1.945   5.464   1.573 -0.4717 -1.4718 -0.3952
10654TIP3   OH253376   6.297   4.212   0.900  0.1475 -0.1686 -0.0554
10654TIP3    H153377   6.261   4.186   0.815  1.4290  0.5565 -0.8545
10654TIP3    H253378   6.252   4.293   0.922 -0.6863 -0.7154  0.3159
10655TIP3   OH253379   5.168   6.152  13.182  0.1626  0.5608 -0.5015
10655TIP3    H153380   5.239   6.096  13.214  0.4819  0.3184 -1.6073
10655TIP3    H253381   5.131   6.191  13.262 -1.4323 -2.7481  0.5970
10656TIP3   OH253382   0.289   1.530  10.870  0.0320  0.2415  0.3820
10656TIP3    H153383   0.280   1.586  10.947  0.9524 -1.0621  1.5000
10656TIP3    H253384   0.200   1.508  10.845 -0.2794  0.6327  1.1183
10657TIP3   OH253385   1.108   5.752  15.156  0.1965 -0.7989 -0.8260
10657TIP3    H153386   1.086   5.810  15.083 -1.2091 -0.6537 -0.3195
10657TIP3    H253387   1.195   5.719  15.135  0.1339 -0.1715 -2.1908
10658TIP3   OH253388   1.132   1.341  15.333  0.1057  0.0987 -0.0218
10658TIP3    H153389   1.211   1.351  15.280 -0.0585  0.5649 -0.1836
10658TIP3    H253390   1.079   1.417  15.311 -0.3717 -0.1915  0.1163
10659TIP3   OH253391   3.370   4.279  12.608  0.0704  0.4069  0.4409
10659TIP3    H153392   3.415   4.291  12.692 -1.0302  1.3991  0.9205
10659TIP3    H253393   3.283   4.249  12.632 -0.4449  1.2528 -0.3001
10660TIP3   OH253394   0.908   0.417  12.413  0.1123 -0.5001 -0.0374
10660TIP3    H153395   0.958   0.353  12.463 -0.8954 -1.9813 -0.8467
10660TIP3    H253396   0.887   0.486  12.476  1.4118 -0.8414  0.8004
10661TIP3   OH253397   1.916   0.117   3.524  0.3552  0.2646  0.2947
10661TIP3    H153398   1.919   0.026   3.555  0.2725 -0.0845 -0.6860
10661TIP3    H253399   1.951   0.168   3.597 -1.0949 -0.3721  1.4943
10662TIP3   OH253400   4.806   4.861   3.264 -0.1819  0.1651  0.0737
10662TIP3    H153401   4.790   4.774   3.228 -0.1972 -0.2151  0.9556
10662TIP3    H253402   4.776   4.922   3.196  1.9830 -0.4614 -1.5550
10663TIP3   OH253403   5.193   3.787   2.977 -0.3284 -0.4547 -0.4904
10663TIP3    H153404   5.134   3.799   3.052  0.7254 -0.2024  0.3170
10663TIP3    H253405   5.278   3.765   3.016  1.0186  2.5216 -1.4209
10664TIP3   OH253406   2.440   6.751   0.577 -0.4352  0.0665 -0.4160
10664TIP3    H153407   2.395   6.834   0.563  0.5357  1.2805  2.7468
10664TIP3    H253408   2.397   6.714   0.654 -1.9939 -3.3578 -2.7143
10665TIP3   OH253409   2.893   2.698  13.681  0.3775 -0.2638  0.1224
10665TIP3    H153410   2.951   2.756  13.729  1.0475 -0.2253 -0.7145
10665TIP3    H253411   2.864   2.634  13.746 -1.4346  1.7240  1.3905
10666TIP3   OH253412   6.558   0.470  15.254  0.3139  0.1193  0.3617
10666TIP3    H153413   6.560   0.423  15.337  3.3988  0.3240  0.5087
10666TIP3    H253414   6.626   0.429  15.201  0.0835  1.5855 -1.1504
10667TIP3   OH253415   0.975   0.163  15.693  0.0673 -0.5329 -0.4041
10667TIP3    H153416   1.058   0.132  15.656 -0.2762 -0.6526 -1.0889
10667TIP3    H253417   0.951   0.096  15.756  1.4394  0.4279  1.2145
10668TIP3   OH253418   5.778   0.931  13.499 -0.0975  0.0770  0.0276
10668TIP3    H153419   5.752   1.022  13.515 -0.6829 -0.2509  0.9996
10668TIP3    H253420   5.874   0.934  13.496 -0.0748  0.5961  0.9189
10669TIP3   OH253421   2.055   6.502  14.718 -0.2630  0.1038 -0.4715
10669TIP3    H153422   2.041   6.505  14.813 -1.4350 -0.8621 -0.5832
10669TIP3    H253423   1.985   6.445  14.686 -0.1008  0.7135 -1.9656
10670TIP3   OH253424   0.639   5.217  15.412  0.3128  0.2303  0.2387
10670TIP3    H153425   0.644   5.167  15.330  1.0156 -1.0099  1.0044
10670TIP3    H253426   0.729   5.247  15.427  0.1288  0.6992  0.4163
10671TIP3   OH253427   3.105   1.913   3.099 -0.0715 -0.2182 -0.3687
10671TIP3    H153428   3.017   1.943   3.079 -0.3236 -1.2639 -0.8548
10671TIP3    H253429   3.158   1.941   3.025 -0.3884 -1.3046 -1.0239
10672TIP3   OH253430   1.052   0.385  14.979 -0.5830  0.4891 -0.6842
10672TIP3    H153431   1.090   0.365  15.064 -0.0556 -2.1929 -1.4592
10672TIP3    H253432   0.970   0.430  14.999 -0.9747 -0.9511  1.2902
10673TIP3   OH253433   6.752   5.199   6.236 -0.2080 -0.1502  0.0854
10673TIP3    H153434   6.826   5.160   6.282  0.2903  0.0531 -0.5354
10673TIP3    H253435   6.752   5.291   6.262  0.0291 -0.0514 -0.2595
10674TIP3   OH253436   0.362   0.600  15.496 -0.0238  0.1215  0.2805
10674TIP3    H153437   0.318   0.631  15.576 -0.3931  1.4108 -0.3899
10674TIP3    H253438   0.339   0.508  15.490 -3.0815  0.8315 -0.2762
10675TIP3   OH253439   5.985   5.519   5.981  0.5529  0.6437  0.0153
10675TIP3    H153440   6.062   5.575   5.980  0.5925  0.5992  0.4245
10675TIP3    H253441   5.927   5.559   6.046 -0.8641  2.1276 -1.9931
10676TIP3   OH253442   3.656   0.507   3.430 -0.5485  0.0252 -0.1485
10676TIP3    H153443   3.617   0.533   3.346 -0.8581  0.7620  0.2108
10676TIP3    H253444   3.649   0.411   3.431 -1.4237  0.0760 -0.5426
10677TIP3   OH253445   5.632   0.970  15.712  0.2601 -0.0125 -0.0851
10677TIP3    H153446   5.622   0.983  15.618  2.4988  0.2466 -0.3414
10677TIP3    H253447   5.644   1.058  15.748 -1.5324 -0.0229  0.6075
10678TIP3   OH253448   4.723   5.354   6.370  0.1674 -0.3020 -0.1026
10678TIP3    H153449   4.690   5.443   6.359 -0.3902 -0.7424 -2.5257
10678TIP3    H253450   4.791   5.361   6.437 -1.3914  1.5167  1.3873
10679TIP3   OH253451   2.286   6.573   3.058  0.0778 -0.1883  0.0418
10679TIP3    H153452   2.374   6.561   3.023 -0.3284  0.7145 -1.3855
10679TIP3    H253453   2.274   6.502   3.121  1.5142 -0.7971 -0.3511
10680TIP3   OH253454   4.895   2.773   1.251  0.4016  0.3229 -0.4792
10680TIP3    H153455   4.903   2.850   1.308  1.2706 -0.7185  0.8720
10680TIP3    H253456   4.802   2.751   1.253  0.3719  0.4851  0.2951
10681TIP3   OH253457   4.985   1.996  12.762  0.2766 -0.0531 -0.6012
10681TIP3    H153458   5.013   1.978  12.852  0.8208 -0.2054 -0.8016
10681TIP3    H253459   4.935   1.918  12.737  0.6305 -0.2651 -0.6410
10682TIP3   OH253460   3.188   0.189  15.123  0.0274  0.2557 -0.0903
10682TIP3    H153461   3.093   0.185  15.115  0.0485  0.2200 -0.3208
10682TIP3    H253462   3.207   0.138  15.202 -0.2110  0.9702  0.4314
10683TIP3   OH253463   1.524   1.720  10.410  0.4770  0.6555 -0.1703
10683TIP3    H153464   1.536   1.778  10.486 -0.6509 -0.0502  0.5813
10683TIP3    H253465   1.535   1.777  10.334  2.5694  1.2111  0.4768
10684TIP3   OH253466   4.559   4.068   3.817  0.1838 -0.0622  0.2606
10684TIP3    H153467   4.616   4.125   3.869 -2.4727  1.1434  2.1243
10684TIP3    H253468   4.570   4.098   3.727  1.6170  0.8588  0.7088
10685TIP3   OH253469   5.913   3.977   6.476  0.7221 -0.1609 -0.1529
10685TIP3    H153470   5.858   4.046   6.513 -0.7178 -1.1785 -0.3220
10685TIP3    H253471   5.934   4.007   6.387  1.2351  0.6532  0.2315
10686TIP3   OH253472   0.326   4.460  11.829 -0.2988 -0.0512  0.3701
10686TIP3    H153473   0.231   4.447  11.826 -0.0858 -1.5839 -0.6501
10686TIP3    H253474   0.336   4.551  11.857 -2.1134  0.8535 -1.6109
10687TIP3   OH253475   4.051   2.965  13.753 -0.3369  0.0461  0.4841
10687TIP3    H153476   4.054   2.979  13.658 -0.8741  0.3683  0.5122
10687TIP3    H253477   4.135   2.923  13.773 -0.4476 -0.5455 -0.2128
10688TIP3   OH253478   3.218   0.861  16.484  0.1376  0.3553  0.3434
10688TIP3    H153479   3.150   0.805  16.522 -1.9097  1.6253 -1.1768
10688TIP3    H253480   3.297   0.843  16.534 -1.6088 -0.3737  2.9859
10689TIP3   OH253481   6.421   2.722   5.614  0.5021  0.4853  0.3202
10689TIP3    H153482   6.398   2.808   5.649  3.6698  1.8032 -0.4704
10689TIP3    H253483   6.513   2.730   5.588  0.8459 -3.0744 -0.1036
10690TIP3   OH253484   2.929   1.707   3.173  0.0055  0.2107 -0.2455
10690TIP3    H153485   3.008   1.760   3.178  0.2615  0.0334 -1.9478
10690TIP3    H253486   2.931   1.654   3.252  1.0922  0.8721  0.1968
10691TIP3   OH253487   5.905   0.056   4.775 -0.2109 -0.0610 -0.3966
10691TIP3    H153488   5.895   0.040   4.868  1.7670 -0.1057 -0.1598
10691TIP3    H253489   5.980   0.114   4.768 -0.2091 -0.2025 -1.9727
10692TIP3   OH253490   1.964   1.351  14.796  0.0691 -0.3103  0.0597
10692TIP3    H153491   1.938   1.281  14.737 -0.0622 -0.0990 -0.1331
10692TIP3    H253492   2.052   1.326  14.825 -0.5036 -1.2483  1.0579
10693TIP3   OH253493   3.101   5.880   3.119 -0.2468  0.3983  0.0410
10693TIP3    H153494   3.029   5.844   3.171  0.4614  0.6193  1.2199
10693TIP3    H253495   3.179   5.837   3.154  0.2260  0.3842 -1.0215
10694TIP3   OH253496   1.209   0.011   5.874  0.2599  0.3930  0.2235
10694TIP3    H153497   1.180   0.088   5.922 -0.3858  0.5261 -0.3694
10694TIP3    H253498   1.261  -0.038   5.937 -0.9218  0.3482  1.2075
10695TIP3   OH253499   6.358   5.780   4.952 -0.6228 -0.5900  0.2474
10695TIP3    H153500   6.347   5.874   4.961 -1.0908 -0.6372  0.1799
10695TIP3    H253501   6.413   5.754   5.026  0.4054 -0.1060 -0.3228
10696TIP3   OH253502   0.110   2.245   3.680 -0.3801 -0.0389 -0.2975
10696TIP3    H153503   0.163   2.322   3.661 -1.3605  0.2843 -1.9461
10696TIP3    H253504   0.022   2.281   3.698 -0.5777 -0.7030  0.0905
10697TIP3   OH253505   6.006   2.553  17.361 -0.4459  0.6725  0.4068
10697TIP3    H153506   6.011   2.645  17.336  0.0634  0.6209  0.3075
10697TIP3    H253507   6.065   2.509  17.301  0.8924  0.5517  1.7620
10698TIP3   OH253508   6.647   1.719   4.349 -0.7266 -0.2719 -0.3093
10698TIP3    H153509   6.658   1.635   4.394 -0.4213 -0.3106 -0.4533
10698TIP3    H253510   6.734   1.739   4.315 -1.2442 -1.0095 -2.2107
10699TIP3   OH253511   6.129   1.598  14.548 -0.0117  0.3354  0.0555
10699TIP3    H153512   6.140   1.614  14.454  1.8801  0.4501  0.2469
10699TIP3    H253513   6.120   1.503  14.556 -3.4668  0.4980 -0.4475
10700TIP3   OH253514   1.555   5.366  17.409  0.3650  0.4995  0.2711
10700TIP3    H153515   1.556   5.378  17.504  1.4999 -0.1655  0.3566
10700TIP3    H253516   1.465   5.344  17.388 -0.5040  3.1036  0.8552
10701TIP3   OH253517   6.514   1.573  16.692  0.5364 -0.5368 -0.0473
10701TIP3    H153518   6.518   1.545  16.601 -0.0596 -1.0097  0.0583
10701TIP3    H253519   6.590   1.629  16.704  0.0600  0.3761 -1.1180
10702TIP3   OH253520   6.487   1.451   1.662 -0.0182  0.2729  0.2402
10702TIP3    H153521   6.564   1.477   1.713 -0.5784  1.0544  0.7113
10702TIP3    H253522   6.474   1.359   1.683 -0.0165  0.4884  1.2428
10703TIP3   OH253523   3.771   6.657  11.749  0.3494 -0.4718  0.6192
10703TIP3    H153524   3.685   6.670  11.788  1.2799  1.8679  2.0841
10703TIP3    H253525   3.752   6.637  11.657 -1.7666 -1.8458  1.2839
10704TIP3   OH253526   2.475   3.452   3.057  0.5371 -0.1033 -0.4024
10704TIP3    H153527   2.476   3.382   3.121  0.8516  0.3909  0.1388
10704TIP3    H253528   2.516   3.414   2.979 -1.1172 -1.1546 -0.8135
10705TIP3   OH253529   6.636   0.746  14.640 -0.3965  0.1106 -0.4504
10705TIP3    H153530   6.550   0.705  14.652 -0.1668 -0.2495  0.0056
10705TIP3    H253531   6.646   0.804  14.715  0.6380 -1.4270  0.6786
10706TIP3   OH253532   4.599   5.282   5.612  0.1825  0.0069 -0.6488
10706TIP3    H153533   4.586   5.220   5.684  1.4669  0.9794  0.4674
10706TIP3    H253534   4.566   5.236   5.535  0.8381 -1.9514  0.1796
10707TIP3   OH253535   0.812   0.291  16.963 -0.3389  0.1885  0.3294
10707TIP3    H153536   0.872   0.240  17.017  0.1242  1.6678  1.2851
10707TIP3    H253537   0.727   0.249  16.974 -0.2402  0.4158  2.2055
10708TIP3   OH253538   3.444   6.065   0.280  1.1678  0.5622 -1.1165
10708TIP3    H153539   3.433   6.082   0.187  0.2228 -0.0776 -1.1369
10708TIP3    H253540   3.357   6.077   0.317  1.1852 -0.7882 -0.5883
10709TIP3   OH253541   1.532   6.307   6.048  0.0274  0.0532  0.0394
10709TIP3    H153542   1.488   6.229   6.082  1.3805 -1.0135 -0.5570
10709TIP3    H253543   1.469   6.346   5.988  0.3263 -2.2392 -1.9154
10710TIP3   OH253544   4.656   6.047  10.819 -0.2298 -0.4399 -0.0539
10710TIP3    H153545   4.618   6.134  10.827 -1.5108 -1.0328  0.7733
10710TIP3    H253546   4.750   6.060  10.832  0.0321  1.1759 -2.8325
10711TIP3   OH253547   2.710   4.518   2.171 -0.0477  0.3022  0.0036
10711TIP3    H153548   2.791   4.519   2.121 -0.8480 -1.7409 -1.4410
10711TIP3    H253549   2.671   4.604   2.154  1.4655  1.0686  0.2121
10712TIP3   OH253550   4.085   2.003   5.405 -0.4946  0.0320 -0.4713
10712TIP3    H153551   4.088   2.061   5.482  0.4032  0.8790 -1.1204
10712TIP3    H253552   4.020   2.043   5.348  1.3307  1.4606 -1.6852
10713TIP3   OH253553   4.901   3.448   3.092  0.4492  0.0307 -0.5147
10713TIP3    H153554   4.963   3.406   3.152 -0.6850 -0.3519  0.4312
10713TIP3    H253555   4.918   3.407   3.008  2.2900  0.8000 -0.5582
10714TIP3   OH253556   3.231   5.476  12.769 -0.6240 -0.0901 -0.2560
10714TIP3    H153557   3.280   5.554  12.745 -0.8694  0.3519  0.6378
10714TIP3    H253558   3.297   5.409  12.785 -0.3668  0.2014 -0.1048
10715TIP3   OH253559   4.716   1.076   1.508 -0.3031 -0.8060 -0.1257
10715TIP3    H153560   4.621   1.065   1.497 -0.2509 -0.3448 -1.2464
10715TIP3    H253561   4.746   0.994   1.545 -1.2436 -0.6884  0.9335
10716TIP3   OH253562   0.912   3.453  11.372  0.0014  0.3578  0.6569
10716TIP3    H153563   0.860   3.472  11.294  0.6054  1.2342  0.4560
10716TIP3    H253564   0.850   3.411  11.432 -0.4724 -0.3112 -0.2773
10717TIP3   OH253565   1.015   5.846   6.461 -0.2034 -0.6113 -0.1266
10717TIP3    H153566   0.959   5.780   6.502 -0.3192 -0.4908 -0.0916
10717TIP3    H253567   1.073   5.874   6.531  3.6294 -4.5839 -1.2689
10718TIP3   OH253568   2.008   0.246  11.158 -0.1372 -0.1935 -0.4070
10718TIP3    H153569   1.924   0.234  11.114  0.9970 -2.2128 -2.2180
10718TIP3    H253570   2.065   0.287  11.093  0.0973  2.1127  1.1213
10719TIP3   OH253571   0.309   1.246  14.596  0.0083  0.4170 -0.0266
10719TIP3    H153572   0.339   1.283  14.679  0.0890  0.5438 -0.1121
10719TIP3    H253573   0.233   1.299  14.572 -2.1289 -1.6656  1.6391
10720TIP3   OH253574   4.307   5.841  12.832 -0.2245  0.3790  0.5365
10720TIP3    H153575   4.341   5.929  12.850 -1.8027  1.1859 -0.2503
10720TIP3    H253576   4.383   5.792  12.802  0.3193  2.0702 -1.0136
10721TIP3   OH253577   3.345   6.120  11.062  0.2890  0.5224 -0.2070
10721TIP3    H153578   3.287   6.087  10.993 -0.6358  0.1653  0.7073
10721TIP3    H253579   3.384   6.042  11.100 -0.1926  0.6212  0.5051
10722TIP3   OH253580   3.966   6.349   5.455  0.6671 -0.3285 -0.5440
10722TIP3    H153581   4.023   6.421   5.427 -0.0590  1.2000  1.6470
10722TIP3    H253582   3.975   6.347   5.550 -2.2408 -0.5694 -0.1894
10723TIP3   OH253583   0.132   0.590   4.591  0.2329 -0.3524  0.5615
10723TIP3    H153584   0.189   0.617   4.663 -0.8931 -0.2182  1.4393
10723TIP3    H253585   0.050   0.566   4.634 -0.5180 -0.1152 -0.7014
10724TIP3   OH253586   2.575   4.927   3.187 -0.1730 -0.0800 -0.0172
10724TIP3    H153587   2.586   4.904   3.095 -2.4056  0.5684 -0.5034
10724TIP3    H253588   2.517   4.860   3.223 -0.4633  0.4519  0.5359
10725TIP3   OH253589   5.676   1.010  16.448 -0.3023 -0.7384  0.3098
10725TIP3    H153590   5.668   0.978  16.538 -0.3947  1.6698  1.2321
10725TIP3    H253591   5.594   0.983  16.406 -1.5648  0.5366  1.8249
10726TIP3   OH253592   4.772   0.660   2.086 -0.1137  0.0869  0.2656
10726TIP3    H153593   4.834   0.622   2.147 -0.7073 -1.6371 -0.1335
10726TIP3    H253594   4.686   0.633   2.119 -0.4073 -2.4832 -2.2037
10727TIP3   OH253595   1.274   3.156   1.573  0.4780  0.4240 -0.3895
10727TIP3    H153596   1.255   3.077   1.522  0.0060  0.7484 -0.7183
10727TIP3    H253597   1.366   3.175   1.554  0.8884 -0.5943  0.4530
10728TIP3   OH253598   3.361   3.826  12.373 -0.6163  0.4648 -0.2924
10728TIP3    H153599   3.426   3.777  12.423 -0.9610 -0.9066 -1.1285
10728TIP3    H253600   3.380   3.918  12.392  0.6820  0.0523  0.5403
10729TIP3   OH253601   0.283   5.052   5.269 -0.1858 -0.2220 -0.4275
10729TIP3    H153602   0.226   5.063   5.193  0.5104  0.9965 -0.8157
10729TIP3    H253603   0.282   4.959   5.288 -1.1594 -0.4028 -1.3157
10730TIP3   OH253604   1.300   1.541   1.955 -0.2346  0.6518 -0.3176
10730TIP3    H153605   1.285   1.635   1.960 -0.0807  0.7605 -1.5014
10730TIP3    H253606   1.393   1.532   1.934 -0.1950  0.2217  0.0135
10731TIP3   OH253607   5.203   4.863   0.062 -0.3163 -0.1947  0.3201
10731TIP3    H153608   5.145   4.789   0.044  0.2615 -0.6117  0.1484
10731TIP3    H253609   5.275   4.826   0.114  0.3653  0.0835 -0.4002
10732TIP3   OH253610   0.106   2.444   2.066 -0.2455 -0.4436 -0.2646
10732TIP3    H153611   0.085   2.523   2.115 -1.1207 -0.1648 -1.0470
10732TIP3    H253612   0.100   2.373   2.130 -1.2312 -0.0703  0.0811
10733TIP3   OH253613   2.265   0.294  13.274  0.3460  0.4702 -0.1167
10733TIP3    H153614   2.241   0.357  13.206  0.5936 -0.1919 -0.8391
10733TIP3    H253615   2.356   0.313  13.295  1.4353 -1.5251 -2.5409
10734TIP3   OH253616   2.413   1.707   2.085 -0.0930 -0.3378  0.7842
10734TIP3    H153617   2.407   1.802   2.094 -0.3195 -0.2489 -0.2167
10734TIP3    H253618   2.506   1.690   2.068 -0.1262 -0.2575  0.5248
10735TIP3   OH253619   1.501   5.193   4.431  0.3172 -0.1876  0.2127
10735TIP3    H153620   1.464   5.198   4.344 -1.0023 -1.0757  0.6956
10735TIP3    H253621   1.588   5.232   4.423 -0.4654  1.3974 -1.0902
10736TIP3   OH253622   1.361   4.889   3.868  0.0665  0.5916  0.3679
10736TIP3    H153623   1.431   4.826   3.881 -1.1621 -0.8980  0.0588
10736TIP3    H253624   1.290   4.858   3.925 -0.9701  1.0241 -0.6438
10737TIP3   OH253625   4.939   0.198  13.396 -0.1970  0.3736 -0.2404
10737TIP3    H153626   4.862   0.237  13.353 -1.3308 -1.6184 -0.1528
10737TIP3    H253627   4.915   0.193  13.488  1.1124  2.0564  0.2359
10738TIP3   OH253628   5.889   1.056  12.073 -0.2573 -0.7029 -0.1143
10738TIP3    H153629   5.966   1.006  12.046  1.1239  1.7430 -1.0240
10738TIP3    H253630   5.834   1.060  11.996  0.7646  1.0530 -0.8258
10739TIP3   OH253631   5.709   3.447   4.316  0.6602 -0.6572 -0.8432
10739TIP3    H153632   5.787   3.448   4.371 -0.3129 -0.4754  0.5795
10739TIP3    H253633   5.687   3.354   4.307  2.0525 -0.8670 -2.8144
10740TIP3   OH253634   0.747   0.595  11.210  0.4897 -0.1754  0.2484
10740TIP3    H153635   0.686   0.527  11.184  0.0340 -0.7939  2.7599
10740TIP3    H253636   0.827   0.574  11.162 -0.4895 -0.7648 -1.2094
10741TIP3   OH253637   2.712   3.158  12.925  0.4630  0.1339 -0.3582
10741TIP3    H153638   2.658   3.153  12.846 -0.8922  1.7405  0.3936
10741TIP3    H253639   2.745   3.248  12.925  0.6912  0.0566  0.7341
10742TIP3   OH253640   3.451   2.440   2.427  0.6663 -0.3245  0.0061
10742TIP3    H153641   3.454   2.400   2.514  0.1320 -2.8281 -1.0238
10742TIP3    H253642   3.515   2.511   2.430  0.3688 -0.0960  2.5332
10743TIP3   OH253643   1.261   6.210  13.833 -0.3993 -0.1934 -0.3725
10743TIP3    H153644   1.350   6.178  13.818 -0.4555 -0.6238  0.1732
10743TIP3    H253645   1.244   6.191  13.925 -0.3638  1.6358  0.0429
10744TIP3   OH253646   6.702   5.566   5.970 -0.5710  0.2048 -0.3947
10744TIP3    H153647   6.746   5.541   5.889  0.2445  2.3032 -0.6595
10744TIP3    H253648   6.772   5.576   6.034 -0.8988  1.2330 -0.1794
10745TIP3   OH253649   5.543   0.259   4.227  0.6054  0.4309  0.1103
10745TIP3    H153650   5.618   0.204   4.250  1.9956  1.4658 -1.7427
10745TIP3    H253651   5.571   0.348   4.248  0.7190  1.0550 -2.3937
10746TIP3   OH253652   1.204   3.614   4.732  0.6646  0.2189 -0.3359
10746TIP3    H153653   1.110   3.609   4.748  0.8192 -0.5043  0.4352
10746TIP3    H253654   1.243   3.622   4.819  1.2506  2.2037 -0.7271
10747TIP3   OH253655   0.780   2.086   2.424  0.0885  0.1630  1.2367
10747TIP3    H153656   0.746   2.151   2.485  0.4580 -0.1660  1.8059
10747TIP3    H253657   0.861   2.125   2.390 -0.7966  0.9326 -0.0950
10748TIP3   OH253658   0.062   1.969   3.836 -0.0440 -0.0074  0.0352
10748TIP3    H153659   0.062   1.973   3.741  1.2446 -0.1204  0.0072
10748TIP3    H253660   0.149   1.935   3.859  0.1832  1.3006  1.2958
10749TIP3   OH253661   2.266   1.255  16.077  0.4786 -0.6115 -0.5921
10749TIP3    H153662   2.211   1.256  16.156  0.7364  0.7871 -0.4032
10749TIP3    H253663   2.343   1.305  16.102  0.4240  0.1218 -1.8283
10750TIP3   OH253664   5.704   2.813   4.686  0.2132  0.0237 -0.7112
10750TIP3    H153665   5.711   2.796   4.592  1.9717 -0.2837 -0.5756
10750TIP3    H253666   5.719   2.727   4.726 -2.3072 -0.2210 -0.1270
10751TIP3   OH253667   5.742   5.839   0.114 -0.0475  0.6371 -0.2752
10751TIP3    H153668   5.809   5.794   0.062  0.7321  2.8738 -1.3491
10751TIP3    H253669   5.700   5.769   0.165  2.9176 -0.9076  0.2940
10752TIP3   OH253670   1.610   3.090   1.530 -0.0673 -0.1176 -0.2028
10752TIP3    H153671   1.630   3.169   1.481  1.0765  0.0217  0.4707
10752TIP3    H253672   1.695   3.054   1.556 -0.5506 -1.6450 -0.6084
10753TIP3   OH253673   4.815   3.273  12.158  0.0463  0.1407 -0.2263
10753TIP3    H153674   4.724   3.298  12.142 -0.0138  0.3647  0.4510
10753TIP3    H253675   4.865   3.354  12.146  0.0217  0.2703  0.5292
10754TIP3   OH253676   1.173   0.625   6.503  0.4970  0.0650  0.2073
10754TIP3    H153677   1.190   0.572   6.581  0.7300  0.0828  0.1706
10754TIP3    H253678   1.253   0.677   6.491  0.8586 -0.6356 -0.5931
10755TIP3   OH253679   4.094   6.534  13.863  0.3986  0.2659 -0.1203
10755TIP3    H153680   4.154   6.557  13.791  1.1330  1.2846  0.7863
10755TIP3    H253681   4.009   6.569  13.835  0.9488  1.8057  0.0601
10756TIP3   OH253682   1.210   0.031  17.297  0.3722  0.0681  0.3556
10756TIP3    H153683   1.252  -0.002  17.218 -0.7249  1.6953 -0.9722
10756TIP3    H253684   1.169  -0.046  17.337  3.0712 -1.2561  0.8131
10757TIP3   OH253685   3.837   2.933  11.840  0.1328 -0.1545  0.0185
10757TIP3    H153686   3.873   2.993  11.775 -1.2686  1.2872  0.4891
10757TIP3    H253687   3.766   2.888  11.794  0.7409 -0.9833 -0.1348
10758TIP3   OH253688   2.637   1.282   1.474  0.1519 -0.0377 -0.0574
10758TIP3    H153689   2.589   1.362   1.452  0.1101 -0.2509 -0.7628
10758TIP3    H253690   2.595   1.214   1.421 -0.8733 -0.8526  1.7001
10759TIP3   OH253691   0.868   2.487  11.976  0.0884  0.4181  0.6296
10759TIP3    H153692   0.922   2.565  11.989  1.8511 -0.8064  0.9819
10759TIP3    H253693   0.914   2.417  12.022 -1.5432 -0.8234  0.5034
10760TIP3   OH253694   3.417   3.243   0.253  0.0029 -0.1025  0.2261
10760TIP3    H153695   3.507   3.228   0.226  0.4129  0.1564  1.3720
10760TIP3    H253696   3.424   3.296   0.332 -1.2454  2.5719 -1.3155
10761TIP3   OH253697   0.774   0.149  13.470 -0.4334 -0.4534  0.0782
10761TIP3    H153698   0.856   0.101  13.480 -1.4041 -1.8556  2.1179
10761TIP3    H253699   0.713   0.103  13.528 -2.1578  1.6961  0.0746
10762TIP3   OH253700   2.892   2.038  14.438  0.6151 -0.3423 -0.1379
10762TIP3    H153701   2.869   2.124  14.400  1.2502 -0.1445 -0.0818
10762TIP3    H253702   2.814   2.013  14.487 -0.0902 -0.4228 -1.2501
10763TIP3   OH253703   4.431   0.768   0.832  0.0777  0.7679  0.3443
10763TIP3    H153704   4.473   0.734   0.753 -0.4000 -0.3549  0.5408
10763TIP3    H253705   4.498   0.762   0.899 -0.8254 -2.9694  1.1488
10764TIP3   OH253706   1.609   0.934   2.030  0.2411 -0.0440  0.4260
10764TIP3    H153707   1.646   1.003   1.975 -1.0386 -0.4612 -1.0190
10764TIP3    H253708   1.684   0.903   2.082  1.6023  0.1394 -1.3261
10765TIP3   OH253709   0.607   5.892   2.224  0.3137  0.4231  0.5078
10765TIP3    H153710   0.571   5.813   2.185  2.8811 -1.1549  1.0895
10765TIP3    H253711   0.576   5.963   2.168  0.4134 -1.2983 -1.8989
10766TIP3   OH253712   5.433   4.518   4.776 -0.8778  0.0429  0.9002
10766TIP3    H153713   5.372   4.457   4.734 -1.0265  0.3705  0.6353
10766TIP3    H253714   5.481   4.464   4.838 -1.2479 -0.2751  0.9168
10767TIP3   OH253715   4.187   4.280   0.285  0.1592 -0.5051 -0.7581
10767TIP3    H153716   4.165   4.371   0.308  1.1628 -0.0776 -1.3889
10767TIP3    H253717   4.272   4.265   0.327  0.7371 -0.6065 -1.9152
10768TIP3   OH253718   1.325   1.253   4.006  0.2787  0.0489 -0.4531
10768TIP3    H153719   1.243   1.292   4.036  1.1120  2.3711 -0.9704
10768TIP3    H253720   1.301   1.202   3.928 -1.1313 -2.1584  1.2880
10769TIP3   OH253721   4.337   5.780   5.393  0.1645  0.0179  0.6132
10769TIP3    H153722   4.352   5.766   5.486 -0.4252 -0.5848  0.6160
10769TIP3    H253723   4.405   5.843   5.368 -0.6827  1.4623  1.7985
10770TIP3   OH253724   4.904   6.000  10.913 -0.1844 -0.2005  0.1496
10770TIP3    H153725   4.941   6.017  11.000  1.4838 -1.1326 -0.3234
10770TIP3    H253726   4.974   6.024  10.853 -1.2258  0.1634 -0.9403
10771TIP3   OH253727   6.327   1.840   4.744 -0.5620  0.1582  0.2275
10771TIP3    H153728   6.348   1.753   4.711 -0.5355  0.1166  0.3541
10771TIP3    H253729   6.232   1.842   4.749 -0.5991  0.3623 -0.3895
10772TIP3   OH253730   1.261   4.464  13.635 -0.3762 -0.5034 -0.7153
10772TIP3    H153731   1.328   4.504  13.690  0.5428 -1.6413 -0.9590
10772TIP3    H253732   1.180   4.473  13.685  0.3587 -1.1169  0.6444
10773TIP3   OH253733   5.772   0.670  15.544 -0.3187 -0.1465 -0.1982
10773TIP3    H153734   5.680   0.697  15.536 -0.0459  0.9894  0.2489
10773TIP3    H253735   5.821   0.747  15.516  0.5101  0.1988  2.0346
10774TIP3   OH253736   0.675   6.538  16.271 -0.6031 -0.1100 -0.5419
10774TIP3    H153737   0.624   6.528  16.351  1.1087  0.9556  0.7608
10774TIP3    H253738   0.663   6.630  16.247  0.7609  0.2084 -0.1081
10775TIP3   OH253739   2.774   6.325  15.218  0.2977  0.5001 -0.0654
10775TIP3    H153740   2.858   6.362  15.192 -0.1940  0.4640 -1.7865
10775TIP3    H253741   2.727   6.398  15.259 -0.4428  1.7339 -2.9015
10776TIP3   OH253742   2.399   0.021   5.054  0.1479 -0.1160  0.1809
10776TIP3    H153743   2.384   0.106   5.014 -2.2219 -0.6840 -0.3000
10776TIP3    H253744   2.494   0.018   5.069  0.5428  1.8450 -1.4195
10777TIP3   OH253745   0.397   1.411   4.764  0.3671  0.7693  0.2737
10777TIP3    H153746   0.329   1.474   4.786  0.1333  1.4666 -2.1739
10777TIP3    H253747   0.472   1.436   4.818 -0.0635  2.4820  0.1160
10778TIP3   OH253748   3.166   0.312  11.791  0.6597  0.0509  0.4739
10778TIP3    H153749   3.131   0.386  11.743  1.4281  0.8736  1.1460
10778TIP3    H253750   3.092   0.252  11.801  0.0654  0.6596 -0.1847
10779TIP3   OH253751   4.481   4.806  12.229 -0.1641 -0.1590 -0.5321
10779TIP3    H153752   4.485   4.854  12.146  0.7358  0.6571 -0.0334
10779TIP3    H253753   4.508   4.870  12.295 -0.4442 -0.9225  0.3428
10780TIP3   OH253754   5.114   2.276  14.597 -0.5288  0.7051  0.0953
10780TIP3    H153755   5.038   2.299  14.544  0.1341  0.2940 -1.0744
10780TIP3    H253756   5.125   2.349  14.657 -2.2562  0.4484  0.7695
10781TIP3   OH253757   0.655   6.582  12.929 -0.2503  0.6612 -0.0198
10781TIP3    H153758   0.559   6.571  12.927 -0.3505  1.2304  0.9595
10781TIP3    H253759   0.678   6.565  13.020  0.6116  0.3618 -0.2907
10782TIP3   OH253760   3.463   1.573  14.128 -0.1483  0.2989 -0.1458
10782TIP3    H153761   3.369   1.592  14.129 -0.0524  0.8018 -0.3227
10782TIP3    H253762   3.481   1.542  14.039 -0.0499  0.7057 -0.2676
10783TIP3   OH253763   4.948   1.031   2.183 -0.3386 -0.0300  0.0915
10783TIP3    H153764   5.026   0.980   2.158 -0.6566 -0.7831  0.5867
10783TIP3    H253765   4.962   1.117   2.144  0.3010 -0.4434 -0.6221
10784TIP3   OH253766   5.586   0.556   3.148 -0.3627  0.5389  0.2003
10784TIP3    H153767   5.518   0.498   3.183  2.2363 -2.9544 -0.0245
10784TIP3    H253768   5.668   0.512   3.168  1.8680  4.0368 -0.4468
10785TIP3   OH253769   4.264   4.381   3.353 -0.2099 -0.0856 -0.1685
10785TIP3    H153770   4.271   4.295   3.394  0.5946  0.1498  0.1868
10785TIP3    H253771   4.170   4.393   3.341 -0.4939 -0.0313  1.8627
10786TIP3   OH253772   6.131   6.588   6.577 -0.1231  0.7436 -0.0132
10786TIP3    H153773   6.152   6.525   6.508  0.9299  1.6709 -0.5769
10786TIP3    H253774   6.039   6.610   6.563 -0.6670 -1.0376  0.5202
10787TIP3   OH253775   2.260   1.851   0.993  0.3074  0.9501 -0.8369
10787TIP3    H153776   2.348   1.814   0.991 -0.1346 -0.1923 -0.0027
10787TIP3    H253777   2.204   1.784   0.955 -0.7215  0.0375  2.0099
10788TIP3   OH253778   2.719   0.056   3.121  0.2059 -0.9544  0.3211
10788TIP3    H153779   2.649   0.078   3.060 -0.1339  0.0693  1.0556
10788TIP3    H253780   2.675   0.012   3.194  0.7527 -3.2895 -0.6576
10789TIP3   OH253781   5.790   3.505   3.527  0.1846  0.0506 -0.1638
10789TIP3    H153782   5.831   3.467   3.449  0.2369 -0.4396  0.0990
10789TIP3    H253783   5.860   3.555   3.569  0.2263  0.1011 -0.2933
10790TIP3   OH253784   6.443   2.562  15.760 -0.0732  0.0703 -0.5628
10790TIP3    H153785   6.502   2.615  15.813  0.0938  0.3643 -1.0416
10790TIP3    H253786   6.412   2.493  15.820  0.2078  0.3257 -0.1216
10791TIP3   OH253787   4.026   5.571  11.886  0.4697 -0.2934  0.4017
10791TIP3    H153788   4.084   5.498  11.908  0.5497 -0.3684 -0.0535
10791TIP3    H253789   3.962   5.573  11.958 -1.2858 -2.6234 -0.9555
10792TIP3   OH253790   5.921   2.791  12.803 -0.3339 -0.0200 -0.5172
10792TIP3    H153791   5.958   2.755  12.883  0.4952  0.5906 -0.6174
10792TIP3    H253792   5.907   2.883  12.821 -0.1271  0.1268 -1.0704
10793TIP3   OH253793   2.982   4.720  14.012  0.4967  0.2115 -0.1453
10793TIP3    H153794   2.992   4.672  13.930 -0.0917 -1.0543  0.4876
10793TIP3    H253795   3.060   4.699  14.063  1.6808  2.3029 -0.9525
10794TIP3   OH253796   2.892   5.014  15.195 -0.4411  0.0311 -0.0417
10794TIP3    H153797   2.941   4.936  15.172 -2.2457 -0.7793 -1.3683
10794TIP3    H253798   2.800   4.989  15.186 -1.0841  2.2373 -0.3148
10795TIP3   OH253799   5.581   1.213   0.101  0.2449  0.2736 -0.1967
10795TIP3    H153800   5.576   1.181   0.191 -0.9091  1.2295  0.1056
10795TIP3    H253801   5.674   1.231   0.087  0.5171 -0.4528  0.5828
10796TIP3   OH253802   3.028   1.627  11.116  0.1906  0.4335 -0.5925
10796TIP3    H153803   3.010   1.561  11.049 -1.6742 -0.1143  0.3777
10796TIP3    H253804   3.023   1.711  11.070 -2.7106  0.1859 -0.9221
10797TIP3   OH253805   1.098   2.314   2.450  0.2300  0.2070  0.1394
10797TIP3    H153806   1.167   2.343   2.391  0.1829  0.9479  0.4367
10797TIP3    H253807   1.144   2.280   2.526  0.3663 -2.7283 -1.1417
10798TIP3   OH253808   4.341   4.520   1.977  0.1183 -0.3859 -0.1889
10798TIP3    H153809   4.280   4.594   1.985  0.2730 -0.2498 -0.2576
10798TIP3    H253810   4.403   4.533   2.049  0.9885  0.3445 -1.0381
10799TIP3   OH253811   6.717   3.107   0.074 -0.9548  0.1395  0.1203
10799TIP3    H153812   6.680   3.023   0.047 -0.1094  0.1916 -1.2566
10799TIP3    H253813   6.664   3.133   0.150 -0.1506 -2.4294  1.6775
10800TIP3   OH253814   1.677   4.623   3.547  0.1515  0.0082  0.5440
10800TIP3    H153815   1.738   4.670   3.490 -0.7841  0.7363  0.1249
10800TIP3    H253816   1.706   4.645   3.635 -0.1679  1.2564  0.3561
10801TIP3   OH253817   3.210   2.812   1.898 -0.2279 -1.0796  0.0135
10801TIP3    H153818   3.187   2.720   1.888 -3.1813 -0.1731 -4.2035
10801TIP3    H253819   3.218   2.845   1.808  0.2616  2.8960  1.3123
10802TIP3   OH253820   4.216   5.500   6.401  0.1460  0.3827  0.4304
10802TIP3    H153821   4.173   5.420   6.372 -0.6443  1.1149 -0.5041
10802TIP3    H253822   4.221   5.492   6.496  0.3660 -0.8987  0.3267
10803TIP3   OH253823   0.222   3.250  16.792 -0.2012 -0.4798  0.5805
10803TIP3    H153824   0.212   3.326  16.848 -2.5675 -0.0656 -0.3190
10803TIP3    H253825   0.303   3.266  16.744  0.3414  0.5111  1.7829
10804TIP3   OH253826   3.281   2.626  14.786  0.4122  0.1058 -0.4682
10804TIP3    H153827   3.315   2.563  14.850  1.1469 -0.0362 -0.9779
10804TIP3    H253828   3.286   2.579  14.703  0.8730  0.7989 -0.8403
10805TIP3   OH253829   5.498   3.681   5.654  0.0373  0.0076 -0.6546
10805TIP3    H153830   5.430   3.739   5.688  0.2090  0.0309 -0.3468
10805TIP3    H253831   5.552   3.737   5.599  0.4572  0.2434 -0.0151
10806TIP3   OH253832   1.351   3.583  15.978  0.1729 -0.3525  0.5143
10806TIP3    H153833   1.288   3.654  15.964 -0.3052 -0.1765  3.0038
10806TIP3    H253834   1.301   3.503  15.964 -0.0524 -0.2106  0.5093
10807TIP3   OH253835   6.181   5.772   1.563  0.4194 -0.0527 -0.0222
10807TIP3    H153836   6.225   5.698   1.604  0.0890  0.5896  1.5734
10807TIP3    H253837   6.097   5.778   1.608  0.2363  0.9832 -0.4613
10808TIP3   OH253838   3.819   5.457   3.942 -0.3943  0.1977  0.4364
10808TIP3    H153839   3.757   5.422   4.007  0.0379  0.7005  1.1262
10808TIP3    H253840   3.892   5.491   3.993 -0.3805  1.2912 -0.2623
10809TIP3   OH253841   5.766   6.726   6.144  0.3351 -0.3989 -0.6411
10809TIP3    H153842   5.785   6.817   6.169  1.6217 -0.9491  0.5160
10809TIP3    H253843   5.693   6.701   6.201  1.7436 -0.9047  1.0310
10810TIP3   OH253844   1.337   0.316   0.682  0.0843  0.7260  0.5744
10810TIP3    H153845   1.301   0.328   0.595 -1.1256 -1.0773  0.7870
10810TIP3    H253846   1.361   0.405   0.710 -1.2161  1.5744 -0.8450
10811TIP3   OH253847   1.177   0.890   3.552  0.1635 -0.3872  0.3891
10811TIP3    H153848   1.102   0.941   3.582  0.3749  1.5120 -2.0182
10811TIP3    H253849   1.240   0.896   3.624 -0.0334  2.3896  0.4261
10812TIP3   OH253850   1.919   5.346   3.462  0.0117  0.2259  0.2572
10812TIP3    H153851   1.840   5.353   3.516 -0.1367  0.6274 -0.0129
10812TIP3    H253852   1.989   5.382   3.516 -0.0569  0.2254  0.3461
10813TIP3   OH253853   4.242   4.855   3.841  0.5491  0.0042 -0.3157
10813TIP3    H153854   4.163   4.816   3.804  0.7580  0.5249 -1.3433
10813TIP3    H253855   4.310   4.789   3.828  0.5062 -0.0234 -0.3995
10814TIP3   OH253856   4.171   2.439  12.798 -0.1290  0.0150 -0.4469
10814TIP3    H153857   4.119   2.405  12.871  0.3448 -0.4721 -0.3352
10814TIP3    H253858   4.121   2.515  12.767  0.1344  0.8464  1.0218
10815TIP3   OH253859   3.315   2.898  12.600 -0.0897 -0.2896 -0.3261
10815TIP3    H153860   3.394   2.943  12.572 -1.0088  0.8790 -1.1527
10815TIP3    H253861   3.331   2.805  12.581  0.4967  0.1086 -1.8907
10816TIP3   OH253862   1.090   4.406  13.374  0.0785 -0.5521 -0.0805
10816TIP3    H153863   1.151   4.333  13.368  1.9623  0.8978  0.6094
10816TIP3    H253864   1.130   4.467  13.436  0.1243  2.4732 -2.7986
10817TIP3   OH253865   0.300   5.956   5.923  0.4830 -0.2403 -0.6213
10817TIP3    H153866   0.312   5.864   5.897 -0.3596 -1.0987  1.7753
10817TIP3    H253867   0.245   5.993   5.854  1.7281 -1.2001 -2.2075
10818TIP3   OH253868   0.321   6.612   6.026 -0.4445  0.0338  0.1097
10818TIP3    H153869   0.279   6.614   6.112 -0.9917  0.6490 -0.1609
10818TIP3    H253870   0.260   6.659   5.969  0.3437  0.4372 -0.4180
10819TIP3   OH253871   1.974   1.852  17.095  0.0945 -0.2948  0.0043
10819TIP3    H153872   2.015   1.884  17.015 -0.1568 -0.6311 -0.2658
10819TIP3    H253873   1.970   1.757  17.083 -0.1342 -0.3275  0.3251
10820TIP3   OH253874   2.367   5.440  14.289 -0.2589  0.6593  0.2331
10820TIP3    H153875   2.331   5.352  14.285 -1.0768  0.9389  0.9675
10820TIP3    H253876   2.326   5.486  14.216 -0.1475  0.5437  0.0976
10821TIP3   OH253877   6.127   0.587   1.332  0.7764  0.3330 -0.5926
10821TIP3    H153878   6.198   0.642   1.366  0.7511  0.7988 -1.2730
10821TIP3    H253879   6.056   0.600   1.394  0.7016  1.2463 -0.8517
10822TIP3   OH253880   4.997   2.510  14.737 -0.5743 -0.0928 -0.0252
10822TIP3    H153881   4.935   2.437  14.732 -1.1817  0.4606 -0.8938
10822TIP3    H253882   4.948   2.579  14.782 -0.5008  0.2599 -0.4851
10823TIP3   OH253883   0.274   4.500  14.895  0.5193 -0.0740  0.5735
10823TIP3    H153884   0.334   4.528  14.826 -1.1691  1.8255 -0.2446
10823TIP3    H253885   0.280   4.569  14.961 -0.3595 -0.1362  0.7254
10824TIP3   OH253886   6.284   6.295   2.961 -0.1501  0.4860  0.1811
10824TIP3    H153887   6.345   6.276   2.890  0.8078 -0.4091  1.1981
10824TIP3    H253888   6.337   6.344   3.025 -0.8824  0.9297  0.4576
10825TIP3   OH253889   6.244   4.674  16.301  0.0698 -0.1146  0.4639
10825TIP3    H153890   6.321   4.617  16.304  0.5507  0.5498  2.2858
10825TIP3    H253891   6.270   4.746  16.243  0.5234 -0.2876  0.4490
10826TIP3   OH253892   3.901   0.048   2.646 -0.0670  0.6845  0.3719
10826TIP3    H153893   3.996   0.061   2.650 -0.1548  1.0782  1.5361
10826TIP3    H253894   3.864   0.135   2.661 -0.6288  0.6013 -0.4286
10827TIP3   OH253895   5.257   2.172  10.744 -0.1413  0.4756  0.2392
10827TIP3    H153896   5.251   2.160  10.838  1.3978 -0.3517  0.2470
10827TIP3    H253897   5.168   2.156  10.712 -0.6876  0.8300  1.5341
10828TIP3   OH253898   4.454   1.938   6.143 -0.0445 -0.0328  0.7573
10828TIP3    H153899   4.533   1.906   6.099  0.0287 -0.6175  1.2949
10828TIP3    H253900   4.430   1.866   6.202 -1.9371 -0.5899 -0.5952
10829TIP3   OH253901   6.058   0.058  12.878 -0.4520  0.8218  0.1611
10829TIP3    H153902   6.127   0.065  12.812  0.4593 -0.2398  0.9464
10829TIP3    H253903   5.981   0.098  12.838 -0.0007 -0.0294 -1.6356
10830TIP3   OH253904   2.928   4.493   3.824 -0.1829  0.1427 -0.5866
10830TIP3    H153905   2.857   4.496   3.760 -1.4268  0.1149  0.7451
10830TIP3    H253906   2.902   4.555   3.891  0.9995  0.0222 -0.0031
10831TIP3   OH253907   2.678   4.748   0.619  0.0373  0.9846  0.3296
10831TIP3    H153908   2.626   4.668   0.621  0.6590  0.5938  2.0311
10831TIP3    H253909   2.740   4.739   0.691  1.5629  2.0547 -0.7682
10832TIP3   OH253910   5.867   6.015   6.162 -0.5807 -0.7162  0.8173
10832TIP3    H153911   5.840   6.054   6.245  0.1320 -0.6688  1.0292
10832TIP3    H253912   5.944   5.963   6.183  0.2022  0.0849  0.0214
10833TIP3   OH253913   5.606   3.759   5.267 -0.0018 -0.1862  0.2927
10833TIP3    H153914   5.646   3.796   5.346  1.9524  0.3708 -0.8832
10833TIP3    H253915   5.528   3.713   5.298  0.3302  0.6122  2.4385
10834TIP3   OH253916   6.692   6.736   5.129  0.0266  0.1061 -0.4661
10834TIP3    H153917   6.707   6.812   5.073  1.6014 -0.0475 -0.3057
10834TIP3    H253918   6.683   6.772   5.217  0.8376  0.1111 -0.3812
10835TIP3   OH253919   2.036   6.545  15.587  0.0734 -0.7071  0.2634
10835TIP3    H153920   2.032   6.613  15.655  2.9062 -0.9172  0.7506
10835TIP3    H253921   2.092   6.582  15.519  0.7915 -2.1185  0.0465
10836TIP3   OH253922   2.389   2.918  13.111 -0.5025  0.3532  0.4916
10836TIP3    H153923   2.431   2.956  13.188  0.0119 -1.2258  1.0285
10836TIP3    H253924   2.350   2.993  13.065 -1.1167  1.2987  2.4455
10837TIP3   OH253925   5.546   3.025   1.202  0.3487  0.2545  0.3363
10837TIP3    H153926   5.568   3.074   1.282  0.7462 -0.2585  0.5425
10837TIP3    H253927   5.478   3.078   1.161  0.1041  0.5006  1.0378
10838TIP3   OH253928   3.937   0.323  11.836  0.0831  0.5666  0.0341
10838TIP3    H153929   3.943   0.284  11.923  1.8578  0.2241 -0.1930
10838TIP3    H253930   3.940   0.417  11.851  1.3621  0.5031  0.3316
10839TIP3   OH253931   4.500   3.589  10.762 -0.0191 -0.1246 -0.2809
10839TIP3    H153932   4.582   3.590  10.714  0.8218 -0.7481  1.0769
10839TIP3    H253933   4.490   3.679  10.794  0.9842 -0.4140  0.8952
10840TIP3   OH253934   5.570   6.166   3.472 -0.1441  0.0103 -0.0323
10840TIP3    H153935   5.602   6.107   3.404 -0.7586  0.9027 -1.1330
10840TIP3    H253936   5.646   6.221   3.494 -0.3144  0.7018 -1.0930
10841TIP3   OH253937   6.325   3.434  12.161 -0.1425 -0.1154 -0.3345
10841TIP3    H153938   6.329   3.371  12.089  3.4876 -0.5825  0.0588
10841TIP3    H253939   6.232   3.442  12.182 -0.9115 -4.2508 -1.3596
10842TIP3   OH253940   2.049   6.174  11.154 -0.7229  0.2092  0.1078
10842TIP3    H153941   1.956   6.181  11.134 -0.5551 -1.3742 -1.5649
10842TIP3    H253942   2.084   6.262  11.141 -1.7068  0.4617 -0.9387
10843TIP3   OH253943   5.901   3.338  11.119 -0.5384 -0.5187 -0.3492
10843TIP3    H153944   5.862   3.271  11.175 -0.8491  0.5359  0.7502
10843TIP3    H253945   5.852   3.332  11.037 -0.8821 -1.3142 -0.0945
10844TIP3   OH253946   0.831   5.959   6.018 -0.5769  1.1699 -0.6632
10844TIP3    H153947   0.740   5.974   6.044 -0.6676  0.9746 -0.8588
10844TIP3    H253948   0.824   5.918   5.931 -0.2943  1.3835 -0.7854
10845TIP3   OH253949   4.081   3.425  14.549  0.1449  0.8947  0.4461
10845TIP3    H153950   4.111   3.336  14.530  1.1792  0.7183  2.5316
10845TIP3    H253951   4.159   3.469  14.583 -0.2968  2.6962 -0.7677
10846TIP3   OH253952   3.157   5.417   1.460 -0.2725  0.0227  0.0519
10846TIP3    H153953   3.110   5.478   1.516 -0.3774  0.1421 -0.1623
10846TIP3    H253954   3.245   5.455   1.450 -0.6405  0.6791 -0.9031
10847TIP3   OH253955   4.576   6.674   1.517 -0.4004 -0.0078 -0.4094
10847TIP3    H153956   4.649   6.617   1.495  0.1183  0.7211 -0.6137
10847TIP3    H253957   4.588   6.751   1.461 -2.5209 -0.7651 -2.0507
10848TIP3   OH253958   0.362   1.751   1.776 -0.2035 -0.3150  0.0025
10848TIP3    H153959   0.413   1.815   1.825  0.4348 -0.1147 -0.9065
10848TIP3    H253960   0.381   1.668   1.819  1.7674 -0.4178 -0.9493
10849TIP3   OH253961   1.780   1.153  13.354 -0.3289 -0.3920 -0.3577
10849TIP3    H153962   1.863   1.159  13.400 -0.5583 -1.0817  0.1625
10849TIP3    H253963   1.801   1.115  13.269 -0.2024 -1.2097  0.0346
10850TIP3   OH253964   2.150   4.790  12.232 -0.0963 -0.2585  0.2402
10850TIP3    H153965   2.148   4.752  12.145  1.5787  0.0214  0.0486
10850TIP3    H253966   2.075   4.850  12.234  0.5245  0.6401 -1.4515
10851TIP3   OH253967   1.062   4.169  16.384  1.1187 -0.1126  0.2392
10851TIP3    H153968   1.120   4.199  16.455 -0.6794  0.6465  1.4625
10851TIP3    H253969   1.119   4.164  16.307  2.5701  1.7164  1.1149
10852TIP3   OH253970   3.791   6.249  11.090 -0.1492 -0.5915  0.1457
10852TIP3    H153971   3.818   6.203  11.170 -0.7172 -0.1972  0.5837
10852TIP3    H253972   3.757   6.181  11.033  1.8469 -1.1097 -0.4762
10853TIP3   OH253973   2.164   5.601   3.920  0.1124  0.0414 -0.1664
10853TIP3    H153974   2.179   5.588   4.013  0.5549  2.3319  0.1311
10853TIP3    H253975   2.235   5.554   3.877 -0.0937 -1.0291  0.6226
10854TIP3   OH253976   4.254   1.862  11.487 -0.2427 -0.7940 -0.0844
10854TIP3    H153977   4.330   1.806  11.506 -1.9070 -3.6560 -1.2107
10854TIP3    H253978   4.186   1.831  11.547 -1.5529 -0.8524 -1.5152
10855TIP3   OH253979   5.398   2.428  16.094  0.2696  0.0281  0.1581
10855TIP3    H153980   5.355   2.396  16.015 -0.2131  1.1349 -0.0511
10855TIP3    H253981   5.385   2.359  16.159  0.2278 -0.6647 -0.5810
10856TIP3   OH253982   0.740   4.824   3.474 -1.1198  0.1348  0.2616
10856TIP3    H153983   0.792   4.857   3.401  2.0343 -3.1319  0.7512
10856TIP3    H253984   0.693   4.749   3.437 -1.4777 -0.0213  1.0230
10857TIP3   OH253985   3.703   5.100  14.628  0.6813 -0.2590 -0.0034
10857TIP3    H153986   3.689   5.053  14.710 -0.1844 -0.6029 -0.3338
10857TIP3    H253987   3.664   5.186  14.644  0.4333 -0.3569 -0.0886
10858TIP3   OH253988   6.615   6.676  11.424  0.3817  0.1589 -0.1437
10858TIP3    H153989   6.704   6.656  11.453  0.7765  1.1393 -0.6521
10858TIP3    H253990   6.593   6.605  11.363 -0.0063 -1.2567  1.5549
10859TIP3   OH253991   6.734   1.174   0.943 -0.0047  0.0023 -0.3525
10859TIP3    H153992   6.660   1.224   0.975 -0.1100 -0.4348  0.0949
10859TIP3    H253993   6.717   1.084   0.971  0.3545 -0.2249 -0.8396
10860TIP3   OH253994   0.055   2.451  16.002  0.0466 -0.0771  0.4758
10860TIP3    H153995  -0.004   2.389  15.961  1.3327  0.6963 -2.8493
10860TIP3    H253996   0.136   2.402  16.015  0.8101  0.6100 -1.4249
10861TIP3   OH253997   4.780   3.015  11.728  0.3165  0.2431  0.0031
10861TIP3    H153998   4.861   3.003  11.679 -1.0564 -0.1002 -2.3419
10861TIP3    H253999   4.758   2.928  11.760  0.7000  0.2871  0.4008
10862TIP3   OH254000   1.689   1.934   6.643 -0.1273  0.1776 -0.3002
10862TIP3    H154001   1.627   1.862   6.635  0.1835 -0.2525  0.9321
10862TIP3    H254002   1.758   1.914   6.579 -0.2968 -0.3556 -0.3196
10863TIP3   OH254003   6.004   6.432  13.531  0.7576 -0.0633  0.2463
10863TIP3    H154004   5.928   6.435  13.473 -0.8725 -2.1977  2.1084
10863TIP3    H254005   6.037   6.522  13.531 -1.9171  1.0203 -0.4535
10864TIP3   OH254006   1.329   0.771  13.525  0.8364  0.7312  0.1049
10864TIP3    H154007   1.295   0.706  13.586 -0.1535  0.3020 -0.8742
10864TIP3    H254008   1.409   0.731  13.490  0.3678  0.1328 -0.3066
10865TIP3   OH254009   5.241   2.700   6.057 -0.1499 -0.0863  0.6088
10865TIP3    H154010   5.302   2.760   6.100 -0.4645  0.8039 -0.1472
10865TIP3    H254011   5.155   2.728   6.089 -0.3409  0.2380 -0.1656
10866TIP3   OH254012   3.636   1.323   1.161  0.0580 -0.3059 -0.2961
10866TIP3    H154013   3.646   1.321   1.257 -2.0824  0.9951  0.0124
10866TIP3    H254014   3.720   1.292   1.128  0.1268 -3.0184  2.0012
10867TIP3   OH254015   1.193   2.091  15.435 -0.3817  0.0890  0.1006
10867TIP3    H154016   1.188   2.019  15.372 -1.5913  0.4301 -0.2301
10867TIP3    H254017   1.193   2.048  15.521 -0.7855 -0.3263 -0.0994
10868TIP3   OH254018   2.606   4.535   5.969 -0.7682 -0.1343 -0.2066
10868TIP3    H154019   2.688   4.498   6.001 -2.6344 -2.4110  2.4130
10868TIP3    H254020   2.597   4.617   6.018  0.1125  0.4073 -0.9035
10869TIP3   OH254021   5.095   4.465  15.235  0.8431  0.3614 -0.3216
10869TIP3    H154022   5.188   4.460  15.213  0.7460  0.5246 -0.7638
10869TIP3    H254023   5.072   4.557  15.224  1.0258  0.6595  1.4181
10870TIP3   OH254024   5.625   2.049   4.560 -0.5158 -0.5331  0.4777
10870TIP3    H154025   5.662   2.093   4.636 -3.5832  0.4137  1.5684
10870TIP3    H254026   5.700   2.034   4.502  1.4003  1.9264  2.1122
10871TIP3   OH254027   4.416   6.460   3.007  0.6674 -0.3739 -0.0143
10871TIP3    H154028   4.434   6.486   3.097 -0.3101  0.5435 -0.0658
10871TIP3    H254029   4.457   6.374   2.998  3.4685  0.8011  0.3711
10872TIP3   OH254030   4.727   2.065   3.043  0.1255  0.0352 -0.8282
10872TIP3    H154031   4.807   2.117   3.027 -0.1618  0.5252 -0.6883
10872TIP3    H254032   4.656   2.129   3.041  0.0620  0.2668  2.7459
10873TIP3   OH254033   0.381   2.706   2.154 -0.1718 -0.2309  0.8335
10873TIP3    H154034   0.352   2.794   2.128 -1.5430 -1.1368 -0.8709
10873TIP3    H254035   0.446   2.682   2.088 -1.2520 -1.2451  0.1048
10874TIP3   OH254036   2.247   0.600   2.391 -0.1369 -0.3242 -0.4896
10874TIP3    H154037   2.193   0.522   2.407 -2.8374  1.8061  2.2832
10874TIP3    H254038   2.321   0.591   2.451 -0.4010 -0.8344 -0.2339
10875TIP3   OH254039   5.496   1.365  15.030 -0.0034 -0.4528  0.1498
10875TIP3    H154040   5.460   1.279  15.010  1.8203 -0.9818 -1.1620
10875TIP3    H254041   5.587   1.347  15.054 -0.2252  0.8994  2.3132
10876TIP3   OH254042   5.404   4.051   1.064 -0.3875 -0.6021  0.0949
10876TIP3    H154043   5.323   4.079   1.021  1.8206  4.0115 -1.7136
10876TIP3    H254044   5.473   4.071   1.001  2.5300 -0.0665  3.1836
10877TIP3   OH254045   3.057   2.470   4.480 -0.2777  0.0651  0.5996
10877TIP3    H154046   3.118   2.398   4.500 -1.6968 -0.9610  1.4302
10877TIP3    H254047   3.056   2.474   4.385  2.9888  1.8440  0.5080
10878TIP3   OH254048   0.842   1.304   1.193  0.3906 -0.2176 -0.7447
10878TIP3    H154049   0.772   1.324   1.255  1.6940 -0.5967  0.9256
10878TIP3    H254050   0.917   1.283   1.248  2.4416  2.1713 -2.4274
10879TIP3   OH254051   6.447   0.848  11.750 -0.4895 -0.1161 -0.0659
10879TIP3    H154052   6.481   0.864  11.662  0.1247 -2.1817 -0.2479
10879TIP3    H254053   6.360   0.890  11.749  0.6964  2.5728 -0.5867
10880TIP3   OH254054   5.678   5.566   0.850 -0.2543 -0.7461  1.0552
10880TIP3    H154055   5.647   5.634   0.910  2.4727  2.3469 -0.6427
10880TIP3    H254056   5.621   5.573   0.773  0.7973  0.7628  0.3370
10881TIP3   OH254057   1.443   4.845  11.618  0.2902 -0.1614  0.6843
10881TIP3    H154058   1.524   4.897  11.618 -0.4409  1.0239 -0.2079
10881TIP3    H254059   1.384   4.892  11.677 -0.9841  1.0800 -1.4689
10882TIP3   OH254060   2.818   3.050  15.004  0.4597  0.2447 -0.1393
10882TIP3    H154061   2.856   2.967  14.975  1.2894 -0.0382  1.6589
10882TIP3    H254062   2.832   3.109  14.930  0.5174 -1.0015 -1.1714
10883TIP3   OH254063   2.218   0.100   6.438 -0.3503 -0.0530 -0.1562
10883TIP3    H154064   2.250   0.160   6.505  2.4358 -2.0126  0.4461
10883TIP3    H254065   2.278   0.111   6.364 -2.4597  0.9632 -1.8727
10884TIP3   OH254066   2.761   5.525   5.471 -0.3170 -0.2738  0.1940
10884TIP3    H154067   2.698   5.581   5.424 -0.0842  0.7200  1.0329
10884TIP3    H254068   2.752   5.550   5.563  0.1026 -1.3356  0.5409
10885TIP3   OH254069   6.747   0.400   6.454  0.3648 -0.6936 -0.2332
10885TIP3    H154070   6.762   0.316   6.498  0.3047 -1.0067 -0.8034
10885TIP3    H254071   6.702   0.453   6.520  1.6480 -0.6117  0.6206
10886TIP3   OH254072   6.277   4.124  15.484  0.5163 -0.0884  0.2935
10886TIP3    H154073   6.356   4.070  15.488  0.0239 -1.0751 -1.6875
10886TIP3    H254074   6.205   4.060  15.486 -0.3948  0.8369  3.4249
10887TIP3   OH254075   3.106   4.290  14.594  0.6587  0.3583  0.2682
10887TIP3    H154076   3.048   4.365  14.579  1.9038  1.4998  0.9701
10887TIP3    H254077   3.183   4.309  14.541  0.7759 -0.7326  0.0193
10888TIP3   OH254078   6.223   3.679  12.819 -0.0646  0.4144 -0.2771
10888TIP3    H154079   6.241   3.586  12.831  0.7065  0.5063 -0.6130
10888TIP3    H254080   6.230   3.693  12.724 -0.7374  0.7046 -0.2876
10889TIP3   OH254081   5.346   0.884   3.889  0.3922 -0.3053  0.2333
10889TIP3    H154082   5.424   0.890   3.944  1.3181  0.7319 -1.1468
10889TIP3    H254083   5.341   0.792   3.866  0.2087 -0.6953  1.6923
10890TIP3   OH254084   0.721   6.073   4.409  0.3884 -0.5493  0.2037
10890TIP3    H154085   0.635   6.114   4.397 -0.1177 -1.7479 -0.4909
10890TIP3    H254086   0.776   6.143   4.444  0.3022  1.5646 -3.3232
10891TIP3   OH254087   0.387   4.316   6.255 -0.6355  0.0684  0.1421
10891TIP3    H154088   0.456   4.261   6.293  1.0971 -0.0896 -2.9492
10891TIP3    H254089   0.420   4.406   6.265  0.4738 -0.0513 -1.9960
10892TIP3   OH254090   5.829   2.376   3.278  0.2366 -0.4986 -0.2800
10892TIP3    H154091   5.786   2.448   3.324 -0.7894 -0.7670 -0.7758
10892TIP3    H254092   5.860   2.318   3.347 -1.8229 -1.2098  0.0946
10893TIP3   OH254093   1.608   1.404   4.722 -0.4053  0.0653 -0.4070
10893TIP3    H154094   1.521   1.380   4.752 -0.7530  0.3022 -1.2075
10893TIP3    H254095   1.605   1.394   4.627 -0.2129  2.0920 -0.6634
10894TIP3   OH254096   2.957   4.128  11.792  0.1696 -0.1434 -0.9396
10894TIP3    H154097   2.862   4.134  11.794  0.2128  0.4492  0.1677
10894TIP3    H254098   2.980   4.080  11.872  0.9103  1.8886  0.1403
10895TIP3   OH254099   1.885   2.910  16.231  0.1849  0.0796 -0.3638
10895TIP3    H154100   1.965   2.877  16.190  0.3999 -1.2295  1.0209
10895TIP3    H254101   1.868   2.849  16.303 -0.3353  2.0773  1.3081
10896TIP3   OH254102   5.509   0.230   4.821 -0.3151  0.0236 -0.7111
10896TIP3    H154103   5.560   0.181   4.756 -0.7045 -1.8526  0.3242
10896TIP3    H254104   5.574   0.283   4.867  0.4347 -0.8800 -0.6874
10897TIP3   OH254105   3.415   1.876  17.336  0.1192  0.1298 -0.3202
10897TIP3    H154106   3.358   1.896  17.262  0.6249  0.8977 -0.5163
10897TIP3    H254107   3.387   1.935  17.406  0.6612  0.5072 -0.4167
10898TIP3   OH254108   1.446   2.212  15.345 -0.1387 -1.0749 -0.0383
10898TIP3    H154109   1.382   2.163  15.396 -0.8400  1.0949  1.2967
10898TIP3    H254110   1.447   2.169  15.260 -1.6605 -2.5597  0.6391
10899TIP3   OH254111   0.811   0.709  15.507 -0.2864  0.3188  0.4507
10899TIP3    H154112   0.782   0.722  15.597  0.9065  0.0258  0.8984
10899TIP3    H254113   0.883   0.771  15.495 -1.3644  1.3841 -0.7925
10900TIP3   OH254114   1.396   0.044  13.789 -0.0824  0.0897  0.4796
10900TIP3    H154115   1.466   0.104  13.816  0.1785  0.6580 -1.3585
10900TIP3    H254116   1.389   0.056  13.694  0.2942 -3.1430 -0.0615
10901TIP3   OH254117   4.484   0.830  11.726  0.5966 -0.5887  0.2410
10901TIP3    H154118   4.444   0.886  11.792  0.3192  0.2660 -0.6324
10901TIP3    H254119   4.465   0.873  11.642  0.6413 -1.8223 -0.4340
10902TIP3   OH254120   3.701   6.696   4.039  0.3709  0.1851 -0.0487
10902TIP3    H154121   3.716   6.745   3.959  0.4863  1.3410  0.6602
10902TIP3    H254122   3.779   6.713   4.093 -0.3794  0.6894  0.9190
10903TIP3   OH254123   6.116   0.207   3.399 -0.0872 -0.3709  0.2896
10903TIP3    H154124   6.142   0.116   3.381 -0.8549 -0.4627 -0.4020
10903TIP3    H254125   6.162   0.229   3.480  2.8136 -0.2629 -1.2382
10904TIP3   OH254126   5.268   5.762  17.089 -0.2421  0.0657  0.7897
10904TIP3    H154127   5.286   5.803  17.004 -0.4549  2.8872  2.0075
10904TIP3    H254128   5.172   5.768  17.098 -0.3196 -1.0347  0.8910
10905TIP3   OH254129   0.454   1.926  12.573 -0.5725  0.5662  0.0492
10905TIP3    H154130   0.427   1.899  12.661 -0.6937 -1.8289 -0.6522
10905TIP3    H254131   0.427   1.854  12.517 -0.6888  2.1311 -2.0216
10906TIP3   OH254132   1.279   4.309  13.015  0.2981 -0.0741  0.5116
10906TIP3    H154133   1.227   4.388  13.008  0.7934  0.3422  1.4074
10906TIP3    H254134   1.222   4.239  12.983 -0.0035  0.6856 -0.6718
10907TIP3   OH254135   0.098   4.311   3.985 -0.1535  0.3481  0.3243
10907TIP3    H154136   0.054   4.231   4.014  2.4984 -0.7579  1.6857
10907TIP3    H254137   0.063   4.380   4.042  0.8101 -0.7584  2.3768
10908TIP3   OH254138   1.847   5.800   1.247 -0.0531 -0.6018 -0.1842
10908TIP3    H154139   1.801   5.842   1.175  1.8649  1.5680 -0.2568
10908TIP3    H254140   1.929   5.849   1.256  1.7659 -3.5305  0.6651
10909TIP3   OH254141   6.521   4.756  17.293 -0.1458 -0.0419  0.7802
10909TIP3    H154142   6.437   4.743  17.337 -0.2509 -0.7814  0.3829
10909TIP3    H254143   6.511   4.839  17.247  0.1284  0.9743  2.4925
10910TIP3   OH254144   4.975   2.527  15.753  0.4093  0.3749 -0.5581
10910TIP3    H154145   5.002   2.516  15.844 -1.6216  2.2695  0.3498
10910TIP3    H254146   4.974   2.438  15.718  0.4317 -0.5019  1.5140
10911TIP3   OH254147   6.120   5.955   2.801  0.4647  0.3143  0.2771
10911TIP3    H154148   6.052   5.906   2.756  2.0065  0.5024 -2.5354
10911TIP3    H254149   6.199   5.903   2.789  1.2514  1.1877  1.4177
10912TIP3   OH254150   6.620   3.181   3.567 -0.2250 -0.0404 -0.1611
10912TIP3    H154151   6.558   3.113   3.594 -0.6995  0.0542 -0.9616
10912TIP3    H254152   6.641   3.228   3.647 -0.5455 -0.6044  0.2616
10913TIP3   OH254153   3.987   5.426  17.375  0.0559 -0.1966 -0.1696
10913TIP3    H154154   3.951   5.510  17.346 -0.9454 -0.7808 -0.6693
10913TIP3    H254155   3.929   5.398  17.445  1.3719  0.3055  1.1803
10914TIP3   OH254156   2.444   1.891  12.564  0.0784 -0.2139  0.4126
10914TIP3    H154157   2.444   1.829  12.637 -0.2893  0.0995  0.6853
10914TIP3    H254158   2.536   1.894  12.535  0.1862 -0.5065  0.7174
10915TIP3   OH254159   3.196   4.600   4.881 -0.5393  0.2465  0.0658
10915TIP3    H154160   3.239   4.684   4.893  0.2725 -0.2783  1.0368
10915TIP3    H254161   3.229   4.568   4.797  1.7783 -0.5468  1.1714
10916TIP3   OH254162   5.615   0.818   5.239 -0.4384 -0.6362  0.1771
10916TIP3    H154163   5.596   0.850   5.151 -0.3599  0.3080  0.4898
10916TIP3    H254164   5.595   0.724   5.236  1.6659 -1.1107 -1.4662
10917TIP3   OH254165   5.505   4.522  13.654 -0.4099  0.5053  0.7866
10917TIP3    H154166   5.515   4.541  13.561 -1.0193  1.2066  0.8626
10917TIP3    H254167   5.575   4.571  13.697  1.2068 -1.4444  0.5399
10918TIP3   OH254168   0.153   5.880  11.836  0.2720  0.2867  0.2848
10918TIP3    H154169   0.180   5.851  11.749  0.4125 -0.1821  0.4770
10918TIP3    H254170   0.134   5.973  11.826  1.8494  0.6244  0.1014
10919TIP3   OH254171   0.043   5.838  12.605  0.3311 -0.1577  0.2703
10919TIP3    H154172   0.118   5.778  12.603 -0.3685 -1.0443 -1.1896
10919TIP3    H254173   0.068   5.910  12.548  0.3639 -0.0972  0.3618
10920TIP3   OH254174   1.356   1.315   4.679  0.0699  0.7531 -0.4746
10920TIP3    H154175   1.268   1.294   4.647  0.2589  0.5640 -0.8701
10920TIP3    H254176   1.410   1.243   4.648  0.3611  0.8546 -0.2018
10921TIP3   OH254177   3.725   2.094  16.893 -0.6786  0.2607 -0.0924
10921TIP3    H154178   3.781   2.061  16.963 -1.1560  2.7616  1.5883
10921TIP3    H254179   3.636   2.082  16.926 -0.8844  2.4720  0.3244
10922TIP3   OH254180   3.626   5.395  13.931 -0.0355 -0.4012  0.1882
10922TIP3    H154181   3.686   5.443  13.874 -0.5922  1.0883  0.8070
10922TIP3    H254182   3.608   5.313  13.884  0.0735  0.4637 -1.4417
10923TIP3   OH254183   5.565   2.281   4.297 -0.1677  0.2742 -0.1922
10923TIP3    H154184   5.493   2.227   4.265  0.9734 -0.5604 -1.4457
10923TIP3    H254185   5.570   2.263   4.391 -0.5545 -0.8763 -0.3865
10924TIP3   OH254186   5.238   0.195   5.036  0.8272  0.2631  0.4584
10924TIP3    H154187   5.298   0.192   4.961  3.0535  1.6926  2.0707
10924TIP3    H254188   5.208   0.105   5.046  0.0187  0.0955 -2.3958
10925TIP3   OH254189   0.419   3.527  14.934 -0.2155 -0.4748  0.4535
10925TIP3    H154190   0.509   3.549  14.910 -1.2062  3.7014 -0.2023
10925TIP3    H254191   0.381   3.490  14.854  0.1416  0.5555 -0.2051
10926TIP3   OH254192   1.179   6.701  16.614  0.0840 -0.4712 -0.1712
10926TIP3    H154193   1.197   6.683  16.707  0.0329  0.6851  0.0771
10926TIP3    H254194   1.125   6.779  16.615 -0.7220 -0.9986 -1.1501
10927TIP3   OH254195   4.653   3.767  13.871  0.6098  0.2687 -0.0850
10927TIP3    H154196   4.666   3.672  13.865  0.0685  0.2200 -0.5107
10927TIP3    H254197   4.717   3.803  13.809 -0.4848  0.0794 -1.3679
10928TIP3   OH254198   5.457   2.090   2.812 -0.2541 -0.1080  0.6544
10928TIP3    H154199   5.423   2.021   2.754 -1.1876  0.7931  0.1039
10928TIP3    H254200   5.550   2.067   2.823 -0.2309 -0.7205 -0.5887
10929TIP3   OH254201   3.010   6.524  11.408 -0.3815 -0.4826 -0.2190
10929TIP3    H154202   3.030   6.530  11.314 -0.2846  1.5564 -0.1093
10929TIP3    H254203   3.091   6.492  11.448 -0.3065 -1.0148 -0.7787
10930TIP3   OH254204   0.118   5.560   4.529 -0.0523 -0.0444  0.0941
10930TIP3    H154205   0.079   5.500   4.465  1.1446 -0.0453 -0.6775
10930TIP3    H254206   0.209   5.569   4.500 -0.0620  1.7159  0.5095
10931TIP3   OH254207   0.613   2.392  16.903  0.0525  0.0464  0.1764
10931TIP3    H154208   0.532   2.442  16.895 -0.0067  0.1770  1.4377
10931TIP3    H254209   0.585   2.304  16.929  0.3475  0.3346  1.5266
10932TIP3   OH254210   4.326   1.998  13.753 -0.4589 -0.3514 -0.5421
10932TIP3    H154211   4.377   2.037  13.683 -1.3875 -1.8237 -2.1215
10932TIP3    H254212   4.318   1.906  13.729  0.4972 -1.2816  2.3211
10933TIP3   OH254213   4.145   4.489  15.674  0.0951 -0.1670  0.0840
10933TIP3    H154214   4.099   4.422  15.623 -0.1551 -0.8180  1.1374
10933TIP3    H254215   4.217   4.517  15.618 -2.1497  1.6823 -2.1139
10934TIP3   OH254216   0.898   1.293   3.188  0.4103  0.3650 -0.3358
10934TIP3    H154217   0.909   1.329   3.100 -1.8548 -1.1183 -1.3033
10934TIP3    H254218   0.900   1.370   3.245  0.6824  1.4910 -1.7866
10935TIP3   OH254219   2.692   3.132   5.482 -0.1794 -0.4546  0.4185
10935TIP3    H154220   2.617   3.110   5.426 -0.2291 -0.4975  0.5010
10935TIP3    H254221   2.702   3.226   5.474 -1.0580 -0.2541  1.4225
10936TIP3   OH254222   6.576   4.984   4.267 -0.7498 -0.2482 -0.7713
10936TIP3    H154223   6.588   5.034   4.186  1.0429  0.3680 -0.1912
10936TIP3    H254224   6.542   5.048   4.330 -0.7209 -0.3524 -0.6494
10937TIP3   OH254225   4.507   2.687  10.787  0.3733  0.3972  0.8529
10937TIP3    H154226   4.441   2.643  10.733  1.2326 -0.9837  0.8731
10937TIP3    H254227   4.457   2.737  10.851 -0.6556  0.2539  0.1795
10938TIP3   OH254228   4.101   3.687  15.107 -0.0323 -0.3971  0.2857
10938TIP3    H154229   4.072   3.669  15.018 -0.2217 -0.0250  0.2690
10938TIP3    H254230   4.088   3.605  15.154 -2.8203  0.1986  0.7319
10939TIP3   OH254231   1.046   2.225  11.919  0.2327  0.1406 -0.6602
10939TIP3    H154232   1.070   2.198  12.008  0.8249  0.0986 -0.8295
10939TIP3    H254233   1.087   2.310  11.907 -0.0138  0.2396 -0.8260
10940TIP3   OH254234   4.851   2.556  12.098  0.0155  0.2796 -0.4525
10940TIP3    H154235   4.817   2.607  12.024  2.8488  1.6616 -0.9436
10940TIP3    H254236   4.846   2.617  12.172 -0.2265 -0.1390 -0.1221
10941TIP3   OH254237   4.151   3.183  14.027 -0.3300 -0.0039  0.0100
10941TIP3    H154238   4.094   3.121  14.072 -0.1364  1.0870  1.8451
10941TIP3    H254239   4.189   3.236  14.097  1.6658  0.3858 -1.2770
10942TIP3   OH254240   1.761   0.597   0.683  0.2993  0.1190  0.4404
10942TIP3    H154241   1.728   0.587   0.593 -0.1948 -0.9926  0.7278
10942TIP3    H254242   1.787   0.689   0.688 -1.5794  0.7515 -0.2253
10943TIP3   OH254243   3.947   4.884  12.575 -0.2473 -0.1095 -0.2268
10943TIP3    H154244   3.911   4.830  12.505 -2.9987  1.5868 -0.3000
10943TIP3    H254245   4.017   4.934  12.534 -0.4028 -0.6476 -1.1901
10944TIP3   OH254246   0.992   5.479  13.623 -0.1839 -0.2508 -0.7991
10944TIP3    H154247   1.017   5.520  13.706 -1.1570 -0.6590 -0.2990
10944TIP3    H254248   0.928   5.539  13.584 -0.1801 -0.3571 -0.9731
10945TIP3   OH254249   2.069   5.967   1.341  0.2434  0.1912  0.2714
10945TIP3    H154250   2.066   5.954   1.246  1.3237  0.0317  0.2415
10945TIP3    H254251   2.098   6.057   1.352 -1.9658  0.9345  0.4796
10946TIP3   OH254252   5.107   3.706   5.122  0.2842  0.0828 -0.0045
10946TIP3    H154253   5.068   3.643   5.182 -0.8830  0.2572 -0.5507
10946TIP3    H254254   5.117   3.659   5.039  0.7945  0.1867 -0.0078
10947TIP3   OH254255   5.638   3.360  11.979  0.7536  0.6661 -0.2579
10947TIP3    H154256   5.711   3.392  11.927  1.7920 -2.6166 -1.0699
10947TIP3    H254257   5.674   3.346  12.066  2.2593 -3.7693 -1.3149
10948TIP3   OH254258   1.973   3.080  13.053 -0.2738 -0.4902  0.1240
10948TIP3    H154259   1.899   3.132  13.085  1.6375  2.2146  0.5308
10948TIP3    H254260   1.967   2.998  13.101 -0.9937  1.0538  2.9371
10949TIP3   OH254261   3.840   4.257   1.109 -0.5741  0.8786  0.3129
10949TIP3    H154262   3.770   4.197   1.135 -0.6600 -1.0023 -3.6397
10949TIP3    H254263   3.808   4.297   1.028  2.5220  0.5898 -1.1802
10950TIP3   OH254264   0.021   5.562  12.021  0.2914  0.2280 -0.2580
10950TIP3    H154265   0.035   5.555  11.927 -0.3457 -0.6840 -0.2930
10950TIP3    H254266  -0.013   5.650  12.034  1.1133  0.6349 -0.7759
10951TIP3   OH254267   5.393   2.474  10.741 -0.0599  0.6683  0.8539
10951TIP3    H154268   5.367   2.558  10.703 -1.9866  0.0388  0.6902
10951TIP3    H254269   5.363   2.409  10.678 -2.1691 -0.3409  2.7360
10952TIP3   OH254270   0.406   4.093  16.837  0.1227 -0.0103 -0.1166
10952TIP3    H154271   0.357   4.144  16.772  0.8908 -0.1334 -0.8039
10952TIP3    H254272   0.349   4.092  16.914 -0.2745  1.1783 -0.3687
10953TIP3   OH254273   5.991   4.711  12.074 -0.3754 -0.1379  0.4943
10953TIP3    H154274   6.011   4.696  12.166  1.3142  1.6345  0.4696
10953TIP3    H254275   5.959   4.801  12.070 -2.5060 -0.8663 -0.4055
10954TIP3   OH254276   2.781   4.784   1.911  0.3546  0.0384 -0.0945
10954TIP3    H154277   2.861   4.826   1.943  0.6165 -0.6601  0.1919
10954TIP3    H254278   2.710   4.834   1.951  0.6506  0.4614 -0.0881
10955TIP3   OH254279   4.986   5.669  10.510 -0.5385  0.0728 -0.2072
10955TIP3    H154280   5.056   5.605  10.502  0.2308  0.9607 -0.7127
10955TIP3    H254281   4.924   5.647  10.441  0.8569  1.2458 -1.8947
10956TIP3   OH254282   2.090   3.698  12.281 -0.3435  0.4831  0.2679
10956TIP3    H154283   2.156   3.699  12.349  1.8375 -0.6478 -1.6746
10956TIP3    H254284   2.080   3.789  12.255 -0.5770  0.8141  1.5005
10957TIP3   OH254285   1.640   5.984  11.512  0.2189 -0.2408  0.1036
10957TIP3    H154286   1.618   5.983  11.419 -0.5117  1.1971  0.2237
10957TIP3    H254287   1.735   5.982  11.515  0.2868  0.8917 -0.7376
10958TIP3   OH254288   3.594   5.436  15.442 -0.4805 -0.3588 -0.3119
10958TIP3    H154289   3.581   5.475  15.356 -0.6066  0.5424  0.1017
10958TIP3    H254290   3.508   5.443  15.485  0.1035  1.2458  0.6852
10959TIP3   OH254291   6.708   6.383  11.963 -0.6207  0.0791  0.2919
10959TIP3    H154292   6.793   6.402  12.001  0.2233  0.7839 -1.8298
10959TIP3    H254293   6.715   6.410  11.871 -2.7173 -1.0184 -0.2703
10960TIP3   OH254294   5.720   3.507   2.231 -0.4049 -0.4469  0.3602
10960TIP3    H154295   5.746   3.558   2.155 -1.6377 -1.9905 -1.1735
10960TIP3    H254296   5.799   3.504   2.286  0.0172  2.1062  0.0201
10961TIP3   OH254297   0.409   2.499   6.047 -0.7448  0.2933 -0.2934
10961TIP3    H154298   0.383   2.550   6.124 -2.1388 -0.0949 -0.4644
10961TIP3    H254299   0.375   2.549   5.973 -2.8003 -1.1565 -0.4275
10962TIP3   OH254300   1.886   3.408  11.422 -0.1516 -0.0233  0.5736
10962TIP3    H154301   1.855   3.416  11.332 -0.2389  1.7550  0.7317
10962TIP3    H254302   1.977   3.436  11.419  0.5150 -2.0453  0.6945
10963TIP3   OH254303   2.527   4.446  11.970  0.5047  0.6461 -0.3585
10963TIP3    H154304   2.473   4.373  12.000  0.1597  0.9795 -0.1545
10963TIP3    H254305   2.473   4.490  11.904  0.1819  1.4549  0.4213
10964TIP3   OH254306   4.379   3.583  11.686  0.6768  0.0353  0.1334
10964TIP3    H154307   4.379   3.678  11.681 -0.9044  0.0191 -0.9723
10964TIP3    H254308   4.311   3.562  11.751  0.7794 -0.3475  0.1235
10965TIP3   OH254309   3.311   6.248  11.956 -0.1664 -0.5714 -0.1524
10965TIP3    H154310   3.388   6.205  11.993 -0.1844  0.5213  1.2364
10965TIP3    H254311   3.262   6.279  12.032  0.2569  2.6040 -1.0061
10966TIP3   OH254312   6.687   3.816  13.587 -0.0991  0.6543  0.4165
10966TIP3    H154313   6.762   3.760  13.570 -0.1758  0.3249  1.1304
10966TIP3    H254314   6.650   3.783  13.668 -1.4444  0.3592 -0.2857
10967TIP3   OH254315   2.497   5.552   1.424  0.2165  0.1560  0.1344
10967TIP3    H154316   2.497   5.467   1.468 -1.7055 -0.4968 -1.0000
10967TIP3    H254317   2.556   5.540   1.350 -0.7127 -0.5200 -0.5258
10968TIP3   OH254318   4.222   1.413  11.825  0.2106  0.4553  0.2623
10968TIP3    H154319   4.178   1.349  11.880  0.6291 -0.3884 -0.3526
10968TIP3    H254320   4.192   1.393  11.736  0.1031  1.3201  0.0985
10969TIP3   OH254321   0.238   5.456   2.962  0.0347  0.1880 -0.1633
10969TIP3    H154322   0.174   5.389   2.938 -0.3665  0.5224 -0.0481
10969TIP3    H254323   0.185   5.534   2.981  0.5127  0.6303 -0.5994
10970TIP3   OH254324   1.319   4.569  16.139  0.2177 -0.0405 -0.3879
10970TIP3    H154325   1.281   4.586  16.225 -0.6392  0.4335 -0.8442
10970TIP3    H254326   1.351   4.654  16.110 -2.7475  0.6671 -2.0458
10971TIP3   OH254327   5.305   6.672   4.522  0.5916 -0.1330  0.1951
10971TIP3    H154328   5.393   6.636   4.535  0.7782  0.4032  0.4169
10971TIP3    H254329   5.319   6.758   4.482  0.2532  0.7276  1.8571
10972TIP3   OH254330   3.015   3.782  14.627  0.0697 -0.0605 -0.3445
10972TIP3    H154331   3.061   3.747  14.550  2.0945 -0.4102  0.9627
10972TIP3    H254332   3.049   3.871  14.637  2.1313 -1.0016  1.8196
10973TIP3   OH254333   1.096   5.006   2.956 -0.3493  0.7491 -0.6153
10973TIP3    H154334   1.133   5.028   2.871 -2.1216  1.5129 -1.2364
10973TIP3    H254335   1.004   5.032   2.950 -0.4197  1.2631  1.7016
10974TIP3   OH254336   2.947   4.448  16.142  0.1652 -0.3122 -0.4502
10974TIP3    H154337   2.913   4.362  16.117 -0.1037 -0.5077  0.5494
10974TIP3    H254338   2.893   4.474  16.217  0.3737  0.6445 -0.6239
10975TIP3   OH254339   2.688   4.767   4.142  0.0245 -0.0365 -0.0927
10975TIP3    H154340   2.689   4.799   4.233  0.1971 -0.6863  0.1417
10975TIP3    H254341   2.781   4.760   4.119  0.0071 -1.0002  0.0948
10976TIP3   OH254342   6.279   6.404   5.475  0.7534 -0.7874 -0.3212
10976TIP3    H154343   6.245   6.486   5.509  2.6367 -0.7253  1.5753
10976TIP3    H254344   6.220   6.337   5.510  0.7120 -0.4452  0.2769
10977TIP3   OH254345   5.287   3.494  14.061 -0.0977 -0.1363 -0.3224
10977TIP3    H154346   5.214   3.543  14.098  1.2214 -0.8139  3.5881
10977TIP3    H254347   5.296   3.418  14.118  0.9540 -2.4634 -3.3222
10978TIP3   OH254348   6.321   2.707  16.455  0.2172  0.2302 -0.0418
10978TIP3    H154349   6.416   2.703  16.445  0.1094 -0.4808 -1.0081
10978TIP3    H254350   6.304   2.796  16.486  1.2829 -0.0368  1.4294
10979TIP3   OH254351   4.615   5.534   5.912  0.3710  0.1322 -0.2500
10979TIP3    H154352   4.686   5.537   5.976 -0.0725  0.2233  0.2461
10979TIP3    H254353   4.557   5.606   5.938 -0.5763 -0.7497  0.1588
10980TIP3   OH254354   3.081   3.941   5.293  0.3026 -0.7925  0.0506
10980TIP3    H154355   3.147   3.969   5.356 -0.3633  0.6798  0.1452
10980TIP3    H254356   3.001   3.931   5.344  0.4564 -2.8088 -0.0188
10981TIP3   OH254357   0.213   4.214  17.029  0.1989  0.3539 -0.0621
10981TIP3    H154358   0.246   4.290  16.981 -0.4620 -0.3785 -1.7597
10981TIP3    H254359   0.118   4.217  17.017 -0.0099  0.2419  1.3934
10982TIP3   OH254360   3.197   6.425  12.144 -0.0234 -0.1136 -0.5048
10982TIP3    H154361   3.118   6.427  12.198  0.0889 -0.4698 -0.3274
10982TIP3    H254362   3.268   6.404  12.205 -0.0906 -2.0043 -0.9994
10983TIP3   OH254363   4.182   6.578   1.984 -1.1174  0.0813  0.3990
10983TIP3    H154364   4.183   6.674   1.978  0.0303  0.0266 -0.9610
10983TIP3    H254365   4.256   6.557   2.042 -1.6186  0.0232  1.0243
10984TIP3   OH254366   3.411   0.476  10.499 -0.1844 -0.3328 -0.3920
10984TIP3    H154367   3.345   0.408  10.485 -0.2127 -0.0612 -1.7606
10984TIP3    H254368   3.396   0.539  10.428  0.9638  0.1918 -0.1949
10985TIP3   OH254369   6.552   3.773   2.519 -0.0731 -0.5344  0.5338
10985TIP3    H154370   6.553   3.765   2.614 -0.6607 -1.9674  0.4377
10985TIP3    H254371   6.460   3.759   2.495  0.3129 -1.6639 -0.3501
10986TIP3   OH254372   2.535   6.239  15.937  0.0401  0.3741  0.1478
10986TIP3    H154373   2.562   6.193  15.858 -0.3077  1.6367 -0.7564
10986TIP3    H254374   2.549   6.177  16.008  1.3512 -0.4364 -0.7761
10987TIP3   OH254375   3.303   3.650   3.643 -0.0040  0.1972  0.8742
10987TIP3    H154376   3.281   3.566   3.684  0.8763  0.5191  2.0556
10987TIP3    H254377   3.320   3.628   3.551  0.8973 -1.0595  1.3073
10988TIP3   OH254378   3.579   3.973  13.511 -0.1300 -0.5976 -0.2515
10988TIP3    H154379   3.500   3.932  13.476 -0.6471 -0.4359  0.7122
10988TIP3    H254380   3.630   3.995  13.433 -1.7427  0.7234 -1.0053
10989TIP3   OH254381   1.428   2.500   1.300  0.4401  0.2771 -0.0547
10989TIP3    H154382   1.373   2.564   1.255  1.8741  0.9080 -0.9515
10989TIP3    H254383   1.455   2.439   1.231  2.8941  1.4147 -0.1793
10990TIP3   OH254384   3.374   0.936   0.362  0.1686  0.2012  0.4565
10990TIP3    H154385   3.363   0.862   0.302  2.6790  0.7487 -0.8040
10990TIP3    H254386   3.376   1.013   0.306  1.1480  0.8685  1.3567
10991TIP3   OH254387   4.099   5.875  16.332  0.2601  0.1641 -0.2600
10991TIP3    H154388   4.175   5.915  16.373 -0.6123  1.8687 -0.2004
10991TIP3    H254389   4.030   5.941  16.341 -1.2721 -1.3965 -0.1525
10992TIP3   OH254390   2.565   2.196   1.979  0.0427 -0.4446 -0.8859
10992TIP3    H154391   2.532   2.116   2.021  1.2328 -0.2655  0.4530
10992TIP3    H254392   2.588   2.167   1.891  1.1854 -1.8004 -0.1873
10993TIP3   OH254393   4.908   1.819  14.607 -1.1384 -0.2840 -0.1446
10993TIP3    H154394   4.879   1.794  14.519  1.5736 -1.2166 -0.8760
10993TIP3    H254395   4.971   1.751  14.632 -0.2988  1.0615  1.6665
10994TIP3   OH254396   3.120   4.844  16.014  0.2636  0.8936  0.4591
10994TIP3    H154397   3.080   4.783  15.952 -1.0681  1.4079  0.7794
10994TIP3    H254398   3.116   4.929  15.969  2.4997  0.7275 -0.1710
10995TIP3   OH254399   4.341   3.354  13.771  0.0692  0.0868 -0.1803
10995TIP3    H154400   4.304   3.425  13.824  1.1003  0.6417 -0.1734
10995TIP3    H254401   4.285   3.351  13.693 -1.3271 -0.5932  0.8017
10996TIP3   OH254402   3.175   0.966   1.088  0.4063 -0.1423 -0.1637
10996TIP3    H154403   3.263   0.931   1.077  1.0515  1.2354  0.4118
10996TIP3    H254404   3.117   0.898   1.051  1.7871 -0.3362 -2.0901
10997TIP3   OH254405   5.769   5.511  11.374  0.4601 -0.1936 -0.3049
10997TIP3    H154406   5.824   5.432  11.368 -0.0148 -0.7410  1.7968
10997TIP3    H254407   5.697   5.494  11.314 -0.1886 -1.8847  0.8610
10998TIP3   OH254408   6.234   3.757  15.537 -0.0749  0.2705 -0.7339
10998TIP3    H154409   6.171   3.783  15.603 -0.6891 -2.2717 -0.2055
10998TIP3    H254410   6.313   3.733  15.586  0.7573  1.7997 -1.2561
10999TIP3   OH254411   1.638   1.226  15.352 -0.5334  0.2141  0.2035
10999TIP3    H154412   1.638   1.301  15.292 -1.5447 -1.2530 -1.7332
10999TIP3    H254413   1.569   1.246  15.415 -1.4687  0.5033 -0.8754
11000TIP3   OH254414   0.639   2.857  17.300 -0.0016 -0.5145  0.1402
11000TIP3    H154415   0.710   2.796  17.319 -1.2271 -1.6092  1.4286
11000TIP3    H254416   0.586   2.813  17.233 -2.4177 -2.2887  2.9576
11001TIP3   OH254417   1.884   5.132  12.501 -0.1798 -0.2129 -0.2213
11001TIP3    H154418   1.809   5.092  12.547 -0.0992  0.1687  0.2541
11001TIP3    H254419   1.846   5.202  12.448 -0.1212  0.2568  0.3434
11002TIP3   OH254420   3.362   3.719  14.721  0.3315  0.3737  0.1665
11002TIP3    H154421   3.458   3.723  14.725  0.3163 -0.3126  1.7344
11002TIP3    H254422   3.337   3.657  14.789 -1.2291  0.3718 -0.3649
11003TIP3   OH254423   2.048   6.578   2.925 -1.0538  0.0542  0.3070
11003TIP3    H154424   2.138   6.581   2.959 -0.4519 -0.0893 -1.1916
11003TIP3    H254425   2.018   6.490   2.946 -0.7067 -0.0247  0.4852
11004TIP3   OH254426   1.494   2.750  12.586  0.5157  0.0576 -0.2316
11004TIP3    H154427   1.543   2.831  12.567  2.5248 -0.6650  1.5365
11004TIP3    H254428   1.547   2.681  12.547 -0.8613 -0.5271 -1.1643
11005TIP3   OH254429   3.692   1.841   4.909 -0.6597 -0.1541  0.0811
11005TIP3    H154430   3.694   1.886   4.824 -2.1581  0.1887  0.2029
11005TIP3    H254431   3.663   1.752   4.888  2.0331 -1.0865 -0.1235
11006TIP3   OH254432   2.040   3.547   4.638 -0.3397  0.1456  0.2315
11006TIP3    H154433   2.133   3.528   4.650  0.0198  0.4112 -1.8252
11006TIP3    H254434   1.996   3.464   4.657  0.3134 -0.0516  0.9558
11007TIP3   OH254435   3.483   2.656  14.018 -0.1900  0.5912 -0.6199
11007TIP3    H154436   3.468   2.577  13.967  0.6364  0.1459 -0.1905
11007TIP3    H254437   3.578   2.670  14.013 -0.3720  1.7676 -1.0004
11008TIP3   OH254438   4.930   0.434  11.013 -0.3876  0.0769 -0.2115
11008TIP3    H154439   4.880   0.354  10.999  0.4978 -0.7610  1.1994
11008TIP3    H254440   4.992   0.437  10.940  2.0606 -2.5516  1.5195
11009TIP3   OH254441   3.023   1.644  15.560  0.0163 -0.1105  0.6040
11009TIP3    H154442   3.093   1.583  15.536 -0.0436 -0.2590  0.8085
11009TIP3    H254443   3.067   1.730  15.562 -0.5126  0.3674 -2.6981
11010TIP3   OH254444   1.025   6.041   4.981 -0.1054 -0.0218 -0.2901
11010TIP3    H154445   1.076   6.101   5.035 -0.2178 -0.4046  0.2653
11010TIP3    H254446   1.069   6.039   4.897  0.0248  0.6638 -0.2393
11011TIP3   OH254447   5.730   0.821  17.218 -0.3177  0.0227 -0.2372
11011TIP3    H154448   5.739   0.795  17.127 -2.2539 -3.3094  0.3348
11011TIP3    H254449   5.637   0.837  17.229 -0.4345 -1.4606  1.4738
11012TIP3   OH254450   4.987   6.052   3.053  0.3082  0.2329  0.1716
11012TIP3    H154451   4.944   6.006   2.980 -1.0529  1.4918  0.1074
11012TIP3    H254452   5.065   6.090   3.014  0.8687 -1.0755 -0.0324
11013TIP3   OH254453   2.220   2.200  10.557  0.1947  0.0294  0.7169
11013TIP3    H154454   2.221   2.213  10.462  0.4973 -0.5468  0.6395
11013TIP3    H254455   2.130   2.220  10.583  0.2991  0.9366  0.4200
11014TIP3   OH254456   0.362   1.969   1.281  0.0303  0.2717  0.1348
11014TIP3    H154457   0.410   1.890   1.256  1.8464  1.2295  0.4754
11014TIP3    H254458   0.320   1.998   1.201 -1.3126 -1.4217  0.1558
11015TIP3   OH254459   1.981   5.357  15.659 -0.0405  0.5312 -0.2233
11015TIP3    H154460   2.057   5.405  15.693 -0.0608 -0.0402  0.6709
11015TIP3    H254461   1.909   5.383  15.716 -0.6672  1.4767 -1.3876
11016TIP3   OH254462   1.389   1.543  12.683  0.1430  0.2897  0.5974
11016TIP3    H154463   1.343   1.459  12.689 -0.9410  0.7324 -1.0052
11016TIP3    H254464   1.321   1.609  12.687  0.9619  1.1070  1.5006
11017TIP3   OH254465   6.157   1.787  16.440  0.6822  0.1368 -0.5366
11017TIP3    H154466   6.234   1.839  16.466  0.3504  0.8488 -0.9436
11017TIP3    H254467   6.083   1.845  16.454  0.1805 -0.6277  0.0658
11018TIP3   OH254468   1.790   3.543  12.915  0.4181  0.0425  0.6299
11018TIP3    H154469   1.816   3.523  12.825  2.4083  0.9417  0.9435
11018TIP3    H254470   1.762   3.634  12.912  1.0860  0.2711  1.0007
11019TIP3   OH254471   1.138   6.254  12.837 -0.1379 -0.1542 -0.0153
11019TIP3    H154472   1.140   6.213  12.924 -1.7945 -0.8186 -0.2503
11019TIP3    H254473   1.105   6.343  12.854 -0.3512 -0.2459  0.0594
11020TIP3   OH254474   1.882   1.332  12.391 -0.5776  0.0766 -0.2133
11020TIP3    H154475   1.860   1.327  12.298 -1.0114 -0.4813 -0.0837
11020TIP3    H254476   1.812   1.284  12.435  0.0326 -0.3245  0.3383
11021TIP3   OH254477   5.300   0.160   3.097 -0.7666 -0.1263 -0.5815
11021TIP3    H154478   5.245   0.088   3.067 -0.1571 -0.3743 -1.1241
11021TIP3    H254479   5.333   0.130   3.182  0.0566 -0.8126 -1.1245
11022TIP3   OH254480   3.322   1.284  15.441  0.2161 -0.2471  0.1090
11022TIP3    H154481   3.306   1.219  15.372 -0.3196 -0.0170  0.0115
11022TIP3    H254482   3.312   1.368  15.397  2.4841 -0.0424 -0.1502
11023TIP3   OH254483   4.818   4.969   4.003  0.1935  0.4382 -0.8219
11023TIP3    H154484   4.732   5.009   4.020 -1.6792 -2.8710 -1.6553
11023TIP3    H254485   4.837   4.920   4.083  0.7764  0.2705 -1.0630
11024TIP3   OH254486   5.313   1.043  16.557  0.3217  0.2630  0.2962
11024TIP3    H154487   5.399   1.083  16.545  0.1251  0.1023 -2.2961
11024TIP3    H254488   5.318   0.962  16.505 -2.1280  1.4754 -2.0490
11025TIP3   OH254489   3.489   0.524  15.057 -0.0471 -0.2346  0.1667
11025TIP3    H154490   3.574   0.484  15.072  0.5776  1.4921  1.7328
11025TIP3    H254491   3.503   0.585  14.984  0.1786  0.2791  0.6273
11026TIP3   OH254492   3.579   1.023  14.109 -0.1091 -0.1560 -0.2085
11026TIP3    H154493   3.521   0.952  14.080  0.5425 -0.5730 -0.5179
11026TIP3    H254494   3.544   1.050  14.194  0.5449 -1.9184  0.6638
11027TIP3   OH254495   5.469   5.282  15.027  0.3889 -0.5838  0.5530
11027TIP3    H154496   5.539   5.266  14.963 -0.2082 -2.7992  0.3850
11027TIP3    H254497   5.401   5.326  14.978  1.2830  0.8204  0.5135
11028TIP3   OH254498   6.387   3.643  14.964 -0.0483  0.2466 -0.1051
11028TIP3    H154499   6.366   3.669  14.875 -0.1810  1.0949  0.1627
11028TIP3    H254500   6.451   3.708  14.994  0.5193 -0.4322  0.1843
11029TIP3   OH254501   3.306   3.414   6.836  0.1348  0.2699  0.1077
11029TIP3    H154502   3.330   3.477   6.769  0.3011 -0.7180 -0.7965
11029TIP3    H254503   3.344   3.449   6.917  1.5925  0.5497 -0.6549
11030TIP3   OH254504   2.571   0.883   0.261 -0.4004  0.6112 -0.0400
11030TIP3    H154505   2.501   0.831   0.300  0.2977 -1.3386 -1.2475
11030TIP3    H254506   2.533   0.920   0.181 -0.0753 -0.5239 -0.7446
11031TIP3   OH254507   5.770   4.533  15.814 -0.4851 -0.0438 -0.4661
11031TIP3    H154508   5.802   4.504  15.729 -0.6458  0.0288 -0.5519
11031TIP3    H254509   5.697   4.591  15.794 -0.0979  0.5100 -0.2973
11032TIP3   OH254510   5.215   3.795  12.032 -0.2937 -0.4952  0.1006
11032TIP3    H154511   5.186   3.810  12.122 -0.7072 -0.7610  0.0132
11032TIP3    H254512   5.297   3.843  12.026 -0.1329 -0.6778  0.6979
11033TIP3   OH254513   4.867   0.466  16.377  0.1717  0.3082  0.5672
11033TIP3    H154514   4.889   0.487  16.468 -0.5584 -2.1342  1.3670
11033TIP3    H254515   4.791   0.408  16.383  0.9223 -0.9971 -1.5196
11034TIP3   OH254516   4.567   5.128   0.427  0.0487 -0.0911  0.2128
11034TIP3    H154517   4.545   5.189   0.357  0.7976 -0.5797 -0.4562
11034TIP3    H254518   4.663   5.126   0.429  0.0540 -1.4884 -0.0122
11035TIP3   OH254519   1.947   0.148  12.162 -0.1291 -0.3145 -0.2466
11035TIP3    H154520   1.901   0.231  12.151  0.3808 -0.0170 -0.1569
11035TIP3    H254521   2.040   0.171  12.160  0.0269 -0.6705  1.2520
11036TIP3   OH254522   2.217   3.150  10.973 -0.3655  0.3056  0.1955
11036TIP3    H154523   2.215   3.072  10.916  0.1552 -0.0244  0.6152
11036TIP3    H254524   2.132   3.191  10.961 -0.2775  0.2171 -0.7922
11037TIP3   OH254525   4.538   1.995  15.708  0.4277 -0.0889 -0.4824
11037TIP3    H154526   4.537   2.047  15.788  1.1431  1.0870 -1.2159
11037TIP3    H254527   4.504   2.053  15.640  1.4260 -0.4722 -1.3496
11038TIP3   OH254528   4.600   3.950  12.408  0.1919  0.2183 -0.3381
11038TIP3    H154529   4.629   3.965  12.497  0.5674  0.2614 -0.4668
11038TIP3    H254530   4.625   4.030  12.361 -0.6722  0.5131 -0.3202
11039TIP3   OH254531   0.672   5.486  12.652  0.4429  0.1583  0.4237
11039TIP3    H154532   0.761   5.519  12.639  0.8488 -1.5071 -1.5494
11039TIP3    H254533   0.626   5.509  12.572 -1.5074  2.4898  2.0602
11040TIP3   OH254534   6.223   6.703   4.556 -0.1191  0.4000  0.4487
11040TIP3    H154535   6.207   6.767   4.486  0.5472  0.7874  0.6340
11040TIP3    H254536   6.229   6.756   4.636  2.2192  0.3624  0.3792
11041TIP3   OH254537   4.786   2.350   3.059 -0.0917  0.1146 -0.1756
11041TIP3    H154538   4.792   2.356   3.154  1.9817  0.0907 -0.2519
11041TIP3    H254539   4.864   2.396   3.027  0.4778 -1.7791 -1.7456
11042TIP3   OH254540   2.938   2.311  12.858  0.4274 -0.7338  0.4778
11042TIP3    H154541   2.849   2.315  12.825  0.5310  1.7234  0.2574
11042TIP3    H254542   2.978   2.237  12.812 -0.2645  0.7515 -2.8286
11043TIP3   OH254543   5.320   3.760  12.584 -0.3762  0.5978  0.1663
11043TIP3    H154544   5.238   3.728  12.621 -0.4158  1.1619  0.5739
11043TIP3    H254545   5.380   3.765  12.658 -0.4370  1.6813  0.1518
11044TIP3   OH254546   6.549   1.099  13.615 -0.4788  0.1863 -0.5621
11044TIP3    H154547   6.508   1.065  13.694 -0.4619 -2.4430 -1.5953
11044TIP3    H254548   6.633   1.133  13.645  0.0838 -1.9053  0.4216
11045TIP3   OH254549   2.952   6.313   0.189  0.1826  0.8367 -0.5497
11045TIP3    H154550   3.018   6.299   0.123  0.8208 -1.3261  0.4755
11045TIP3    H254551   2.976   6.397   0.230  2.3986  0.0362 -0.1047
11046TIP3   OH254552   1.440   1.951   4.441  0.8194 -0.2488  0.0056
11046TIP3    H154553   1.484   1.884   4.389 -1.2073 -0.6524 -1.3235
11046TIP3    H254554   1.346   1.933   4.430  0.2497  1.6069  1.2253
11047TIP3   OH254555   1.147   4.500   2.732 -0.2047 -0.3628 -0.0679
11047TIP3    H154556   1.165   4.436   2.664  1.0507  0.5248 -0.6053
11047TIP3    H254557   1.214   4.485   2.799  0.9786  1.2173 -0.8256
11048TIP3   OH254558   1.281   0.330   5.271  0.0541 -0.3010  0.0197
11048TIP3    H154559   1.322   0.333   5.357 -0.3411  0.1512  0.1971
11048TIP3    H254560   1.217   0.259   5.277  0.8914 -1.0876 -0.2971
11049TIP3   OH254561   4.755   0.253  11.979  0.1088  0.3438  0.6793
11049TIP3    H154562   4.702   0.332  11.978 -1.3108 -0.5842  0.5621
11049TIP3    H254563   4.699   0.187  12.019  0.7887 -0.9268 -0.4085
11050TIP3   OH254564   3.189   4.150   4.234  0.4312  0.6071 -0.2482
11050TIP3    H154565   3.176   4.244   4.245  3.0515  1.1481 -1.1211
11050TIP3    H254566   3.176   4.113   4.322 -0.9698  1.6928  0.0361
11051TIP3   OH254567   5.572   1.271   5.426  0.1163  0.2947 -0.2761
11051TIP3    H154568   5.619   1.300   5.504  0.6161 -0.2466 -0.3704
11051TIP3    H254569   5.554   1.178   5.442 -0.0982  0.2714 -0.6498
11052TIP3   OH254570   3.026   5.770  11.772  0.5021  0.7527 -0.0539
11052TIP3    H154571   2.978   5.853  11.771 -0.9920 -0.0848 -0.7531
11052TIP3    H254572   3.069   5.765  11.686 -0.5991  0.1567 -0.5853
11053TIP3   OH254573   6.338   2.336   3.065 -0.3380  0.7627 -0.3374
11053TIP3    H154574   6.370   2.265   3.010 -0.8277  0.0887  0.2382
11053TIP3    H254575   6.411   2.358   3.122  0.2895  1.6989 -1.4671
11054TIP3   OH254576   3.011   2.601  10.828 -0.1797 -0.6613  0.3095
11054TIP3    H154577   2.995   2.527  10.886  1.6232 -1.5532 -0.2709
11054TIP3    H254578   3.019   2.563  10.741  2.2290 -0.0337  0.1811
11055TIP3   OH254579   3.308   4.117   3.035 -0.3289  0.0880  0.2800
11055TIP3    H154580   3.289   4.024   3.024 -3.2406  0.7952 -1.8945
11055TIP3    H254581   3.302   4.154   2.947 -0.2185  2.4910  1.1922
11056TIP3   OH254582   3.470   5.587   3.703  0.0380  0.1774 -0.0988
11056TIP3    H154583   3.487   5.567   3.796  0.7046  0.6060 -0.1231
11056TIP3    H254584   3.556   5.584   3.662 -0.4982 -2.5226 -1.2306
11057TIP3   OH254585   3.761   2.284   1.622  0.8118  0.0540  0.5322
11057TIP3    H154586   3.713   2.234   1.688  0.4151  0.8644  0.8676
11057TIP3    H254587   3.747   2.375   1.646  0.5433  0.3738 -0.7676
11058TIP3   OH254588   4.045   1.585  14.276  0.3015  0.6239 -0.5065
11058TIP3    H154589   4.057   1.526  14.350  0.2548  0.2572 -0.7896
11058TIP3    H254590   4.101   1.549  14.207 -0.3166  0.4643 -0.9336
11059TIP3   OH254591   2.782   1.746   4.751 -0.2628 -0.4969  0.6957
11059TIP3    H154592   2.813   1.693   4.677 -0.0687 -0.8418  1.0214
11059TIP3    H254593   2.688   1.757   4.735 -0.3053 -0.9358  0.6212
11060TIP3   OH254594   4.829   1.387   0.380  0.0163 -0.3243 -0.2614
11060TIP3    H154595   4.776   1.467   0.377  1.5880  0.7811  0.2786
11060TIP3    H254596   4.872   1.389   0.465  1.4290 -0.8230 -0.9230
11061TIP3   OH254597   3.860   5.124   0.270  0.0216  0.0033 -0.0266
11061TIP3    H154598   3.871   5.123   0.366  0.3165 -0.2405 -0.0619
11061TIP3    H254599   3.947   5.102   0.236 -0.1425 -0.1503 -0.3466
11062TIP3   OH254600   0.319   1.349   2.865 -0.3061 -0.1617 -0.2213
11062TIP3    H154601   0.329   1.394   2.949  1.4208 -1.4889  0.3411
11062TIP3    H254602   0.349   1.413   2.800  3.2812 -0.7451  0.6620
11063TIP3   OH254603   6.518   2.569   2.813 -0.0623  0.6389 -0.4799
11063TIP3    H154604   6.465   2.611   2.881 -0.1405  0.3663 -0.3703
11063TIP3    H254605   6.454   2.532   2.752 -0.0301 -0.4998  0.1436
11064TIP3   OH254606   1.594   1.348   5.593  0.0872  0.3219  0.3308
11064TIP3    H154607   1.607   1.254   5.606  2.7550  0.8944  2.8545
11064TIP3    H254608   1.621   1.363   5.502 -0.7630 -1.3402 -0.2507
11065TIP3   OH254609   0.483   4.319  12.760  0.0340 -0.1786  0.0396
11065TIP3    H154610   0.465   4.259  12.832  1.0561  0.1861  0.6155
11065TIP3    H254611   0.445   4.402  12.787  0.0514 -0.1481 -0.0283
11066TIP3   OH254612   4.083   5.061   2.326  0.2649  0.1600 -0.1046
11066TIP3    H154613   3.994   5.086   2.301  0.7277  2.0213 -0.0210
11066TIP3    H254614   4.076   4.968   2.346 -2.3971  0.8296  2.9767
11067TIP3   OH254615   2.172   0.904  13.087  0.4058 -0.2491  0.2232
11067TIP3    H154616   2.173   0.965  13.013  0.3851 -0.5858 -0.0561
11067TIP3    H254617   2.135   0.823  13.051  0.4765 -0.4429  0.5815
11068TIP3   OH254618   2.878   4.773  12.748 -0.0485 -0.2395  0.0510
11068TIP3    H154619   2.871   4.807  12.837  1.9088 -0.7711  0.4615
11068TIP3    H254620   2.936   4.698  12.756  0.1512 -0.3052 -1.6823
11069TIP3   OH254621   2.175   1.383   4.937 -0.5891  0.2681 -0.5788
11069TIP3    H154622   2.107   1.424   4.991  1.3377  0.7829  1.6573
11069TIP3    H254623   2.256   1.426   4.966  0.8832 -1.4530 -1.9412
11070TIP3   OH254624   5.215   4.630  10.837  0.5834  0.3688 -0.3312
11070TIP3    H154625   5.155   4.641  10.763  0.5200  0.5839 -0.2484
11070TIP3    H254626   5.205   4.710  10.888  0.0057 -0.1437  0.3743
11071TIP3   OH254627   3.562   3.332   1.466 -0.3534  1.1843 -0.1255
11071TIP3    H154628   3.496   3.263   1.460  1.1597 -0.2093 -1.5460
11071TIP3    H254629   3.559   3.359   1.558 -1.6278 -0.1195  0.2621
11072TIP3   OH254630   3.129   1.255   5.788 -0.3870  0.6157 -0.2356
11072TIP3    H154631   3.131   1.321   5.857 -1.7193 -0.8627  1.3350
11072TIP3    H254632   3.036   1.246   5.765  0.1005  1.8146 -3.0722
11073TIP3   OH254633   0.247   3.251   4.466 -0.6430 -0.2925 -0.3301
11073TIP3    H154634   0.164   3.279   4.426 -0.7142 -1.1689 -0.8189
11073TIP3    H254635   0.245   3.156   4.459 -0.0073 -0.3679  0.4980
11074TIP3   OH254636   0.546   5.905  15.486 -0.0705  0.6249 -0.2623
11074TIP3    H154637   0.616   5.965  15.513 -0.1939  0.6121  0.1026
11074TIP3    H254638   0.571   5.876  15.399 -0.5862  2.1053 -0.9493
11075TIP3   OH254639   2.797   0.264   0.708 -0.4633  0.2864  0.5826
11075TIP3    H154640   2.859   0.290   0.640  0.5209  0.7490  1.6245
11075TIP3    H254641   2.715   0.306   0.683 -0.0200  0.7466 -0.1290
11076TIP3   OH254642   5.538   4.244   0.426 -0.3389  0.3862  0.3461
11076TIP3    H154643   5.462   4.246   0.367  0.0000  4.6592 -0.2286
11076TIP3    H254644   5.504   4.271   0.511  0.0904 -0.6192  0.8594
11077TIP3   OH254645   2.777   2.631   4.519 -0.1713 -0.2380 -0.4662
11077TIP3    H154646   2.718   2.660   4.450  0.9570 -1.5390 -2.0740
11077TIP3    H254647   2.864   2.640   4.481  0.4067 -2.3198  0.2078
11078TIP3   OH254648   0.567   3.639  16.899 -0.5943  0.5459 -0.0882
11078TIP3    H154649   0.622   3.591  16.961 -0.2298  0.9681 -0.0864
11078TIP3    H254650   0.623   3.707  16.864 -0.6883  0.0967 -1.1555
11079TIP3   OH254651   5.251   1.447   3.304  0.4160  0.1498 -0.0759
11079TIP3    H154652   5.332   1.430   3.255  0.1890 -1.1177 -0.0528
11079TIP3    H254653   5.189   1.384   3.268 -0.7372  1.4724 -0.4674
11080TIP3   OH254654   0.933   3.585   1.860 -0.2628 -0.0016  0.3321
11080TIP3    H154655   0.963   3.666   1.819 -0.2317 -0.1463  0.0653
11080TIP3    H254656   0.940   3.520   1.791  0.1918 -0.3361  0.6897
11081TIP3   OH254657   4.293   4.329   4.591 -0.2950  0.0426  0.1776
11081TIP3    H154658   4.341   4.271   4.531 -0.1283  1.0087 -0.6519
11081TIP3    H254659   4.203   4.296   4.588 -0.0213 -0.7838  0.5012
11082TIP3   OH254660   2.596   3.728   1.669 -0.3523 -0.4337 -0.1944
11082TIP3    H154661   2.507   3.760   1.675  0.4627  2.5176 -1.8784
11082TIP3    H254662   2.599   3.681   1.585 -0.1685  0.0919 -0.4859
11083TIP3   OH254663   1.834   3.070   0.470  0.3873 -0.1657 -0.7144
11083TIP3    H154664   1.914   3.120   0.482  0.9828 -1.3825  0.7172
11083TIP3    H254665   1.821   3.066   0.376  1.6866  0.5441 -0.9375
11084TIP3   OH254666   4.490   4.061   3.527  0.3812 -0.3084 -0.5506
11084TIP3    H154667   4.485   3.965   3.528 -0.2053 -0.2911 -1.0774
11084TIP3    H254668   4.401   4.090   3.547  1.0705  0.1657  2.1101
11085TIP3   OH254669   4.436   5.050   4.037 -0.0654  0.1477  0.1739
11085TIP3    H154670   4.468   5.054   4.127 -2.4748 -0.1368  1.1108
11085TIP3    H254671   4.389   5.133   4.025 -1.3966 -0.6189 -0.1258
11086TIP3   OH254672   0.681   4.735   4.163  0.3129  0.2569 -0.0117
11086TIP3    H154673   0.725   4.768   4.242  1.0798 -1.3521  0.2598
11086TIP3    H254674   0.602   4.692   4.196  0.8947 -0.8732 -0.0414
11087TIP3   OH254675   0.109   6.330   0.384  0.3219 -0.3749 -0.1321
11087TIP3    H154676   0.072   6.417   0.370  1.0810 -0.2315 -1.2998
11087TIP3    H254677   0.199   6.337   0.354  0.6718 -1.3175  0.6545
11088TIP3   OH254678   4.483   0.978  16.543 -0.5013 -0.2540 -0.0144
11088TIP3    H154679   4.409   0.917  16.547 -1.3332  0.7620  1.1205
11088TIP3    H254680   4.490   1.012  16.632 -1.0059  2.3407 -0.8805
11089TIP3   OH254681   3.286   5.486   3.546 -0.0180  0.4460 -0.5715
11089TIP3    H154682   3.353   5.516   3.606 -0.7574  0.2013  0.4002
11089TIP3    H254683   3.216   5.453   3.602 -0.0717 -1.2626 -1.5770
11090TIP3   OH254684   0.737   4.103   2.928 -0.3416 -0.2525  0.0311
11090TIP3    H154685   0.705   4.176   2.875  0.9455 -0.6703 -1.3814
11090TIP3    H254686   0.668   4.037   2.922 -0.9736  0.3587  0.3331
11091TIP3   OH254687   5.868   3.946  11.300 -0.3049 -0.0993  0.0003
11091TIP3    H154688   5.817   3.868  11.280  0.3635 -0.3986 -0.5715
11091TIP3    H254689   5.882   3.943  11.394 -0.0184 -0.8319 -0.0643
11092TIP3   OH254690   4.623   0.957   3.563  0.2531  0.7027  0.8080
11092TIP3    H154691   4.528   0.950   3.573  0.3284 -0.4058  0.8748
11092TIP3    H254692   4.659   0.903   3.634  0.9302  0.7460  0.5079
11093TIP3   OH254693   0.711   5.579   5.918 -0.4871  0.0137  0.5077
11093TIP3    H154694   0.723   5.662   5.872  1.4747 -0.5263 -0.0480
11093TIP3    H254695   0.665   5.523   5.856 -0.5607  0.2526  0.3473
11094TIP3   OH254696   1.501   5.163   1.275 -0.0939  0.4282 -0.0797
11094TIP3    H154697   1.494   5.167   1.180 -0.5734  1.2859 -0.0189
11094TIP3    H254698   1.544   5.245   1.299 -0.1261  0.2895  0.4546
11095TIP3   OH254699   5.722   0.358   5.500  0.2355  0.1927 -0.4589
11095TIP3    H154700   5.770   0.434   5.535 -1.1136  1.1564 -0.6065
11095TIP3    H254701   5.758   0.283   5.548  0.4683  1.1252  0.8916
11096TIP3   OH254702   4.504   1.889   0.041  0.1740  0.0328  0.0032
11096TIP3    H154703   4.545   1.940   0.111 -0.1616 -0.3963  0.5225
11096TIP3    H254704   4.475   1.954  -0.022  3.0018  0.3028 -1.1611
11097TIP3   OH254705   3.468   6.718   1.166  0.1563 -0.0122 -0.1370
11097TIP3    H154706   3.410   6.758   1.230 -0.1635 -1.4126  0.4788
11097TIP3    H254707   3.556   6.732   1.201 -0.0971 -3.7507  2.5584
11098TIP3   OH254708   3.298   2.873   1.631  0.8958  0.0449 -0.3847
11098TIP3    H154709   3.305   2.957   1.585  2.7011 -0.3083 -0.8376
11098TIP3    H254710   3.229   2.826   1.585  1.1245  0.5808 -1.2933
11099TIP3   OH254711   2.139   6.216   3.688 -0.2976 -0.6787 -0.1197
11099TIP3    H154712   2.230   6.207   3.717 -0.5118 -2.0623  0.1905
11099TIP3    H254713   2.088   6.203   3.768 -0.7743  3.3285  0.4415
11100TIP3   OH254714   1.798   4.763  13.007 -0.2143 -0.0901  0.5601
11100TIP3    H154715   1.706   4.786  12.993 -0.9045 -2.7433  0.1385
11100TIP3    H254716   1.817   4.792  13.096 -1.5966  0.1663  0.7925
11101TIP3   OH254717   5.546   1.658  17.273  0.2322 -0.4876  0.1634
11101TIP3    H154718   5.641   1.662  17.264  0.1097  0.7521 -0.8095
11101TIP3    H254719   5.513   1.734  17.224 -1.1921 -0.2042  1.4694
11102TIP3   OH254720   3.877   2.392  16.078 -0.4373  0.1258  0.0142
11102TIP3    H154721   3.853   2.350  16.160 -1.1331  2.1556  0.9240
11102TIP3    H254722   3.950   2.341  16.044 -2.0073 -2.5224  0.3680
11103TIP3   OH254723   6.276   1.071  15.008 -0.4389 -0.0687  0.3187
11103TIP3    H154724   6.216   0.998  14.991 -0.2253 -0.1298 -0.1841
11103TIP3    H254725   6.348   1.057  14.948 -0.6375  0.8409 -0.1453
11104TIP3   OH254726   4.354   3.162  12.382  0.0884  0.0177 -0.3690
11104TIP3    H154727   4.267   3.143  12.415 -0.5514  1.7488 -0.9268
11104TIP3    H254728   4.350   3.254  12.355  2.3489  0.4589  0.4902
11105TIP3   OH254729   0.455   6.145   4.351  0.3637  0.2334  0.3192
11105TIP3    H154730   0.404   6.064   4.358 -0.1813  0.6889  3.1855
11105TIP3    H254731   0.400   6.204   4.300  0.5924 -1.0041 -1.4596
11106TIP3   OH254732   6.050   5.316   2.631  0.0814  0.2111  0.1255
11106TIP3    H154733   5.985   5.340   2.698 -0.3269 -3.7997  1.4490
11106TIP3    H254734   6.115   5.264   2.679  1.0692 -0.8301 -2.2099
11107TIP3   OH254735   3.695   2.845   6.037  0.2721  0.3247  0.0598
11107TIP3    H154736   3.773   2.801   6.069 -0.3892 -1.2607 -0.3933
11107TIP3    H254737   3.707   2.937   6.061  1.2952 -0.2312  1.8869
11108TIP3   OH254738   0.089   3.831  17.356 -0.7619  0.0542  0.0890
11108TIP3    H154739   0.157   3.873  17.301 -1.7602  2.5790  0.6421
11108TIP3    H254740   0.138   3.774  17.415  0.6960  0.3027 -0.8199
11109TIP3   OH254741   2.099   4.546   4.124  0.0424  0.3113  0.1316
11109TIP3    H154742   2.172   4.580   4.175 -2.0027  0.9333  2.9500
11109TIP3    H254743   2.067   4.621   4.073  0.3428  0.4852  0.1991
11110TIP3   OH254744   3.631   6.509   3.651  0.1208 -0.1996 -0.0298
11110TIP3    H154745   3.548   6.469   3.625 -1.0647  1.4265  1.1182
11110TIP3    H254746   3.680   6.518   3.568 -1.2387 -0.2715 -0.8644
11111TIP3   OH254747   4.045   0.199   3.545 -0.0454  0.5077  0.2374
11111TIP3    H154748   4.054   0.108   3.574  1.3734  0.5575  0.0266
11111TIP3    H254749   3.979   0.236   3.604  0.5849 -0.2129  1.4397
11112TIP3   OH254750   0.768   2.006  13.246 -0.6205  0.0004 -0.1071
11112TIP3    H154751   0.738   1.963  13.166  1.0125 -0.3870 -0.5620
11112TIP3    H254752   0.689   2.037  13.288 -1.6464 -1.1420 -1.1102
11113TIP3   OH254753   2.035   4.763   3.993 -0.5546  0.2745 -0.3564
11113TIP3    H154754   1.945   4.796   3.981 -0.5065  0.8105  0.6380
11113TIP3    H254755   2.090   4.838   3.970 -0.3652  0.0939 -0.4932
11114TIP3   OH254756   3.908   0.047   5.383 -0.1231  0.1986  0.0113
11114TIP3    H154757   4.002   0.057   5.397  0.5568 -3.9614 -0.1749
11114TIP3    H254758   3.881   0.126   5.338  3.4279  1.2439 -0.5461
11115TIP3   OH254759   6.743   2.541  14.699 -0.3455  0.1751 -0.0807
11115TIP3    H154760   6.836   2.525  14.718 -0.8196 -0.7307  1.6625
11115TIP3    H254761   6.730   2.507  14.611  0.6448 -1.0702  0.2337
11116TIP3   OH254762   6.551   4.837   2.593 -0.4208 -0.0020  0.9913
11116TIP3    H154763   6.553   4.823   2.687  1.7817  1.1696  1.1907
11116TIP3    H254764   6.616   4.777   2.558  0.2882  1.0082  0.5000
11117TIP3   OH254765   0.913   0.103   2.112  0.7360 -0.1531  0.0083
11117TIP3    H154766   0.899   0.022   2.064 -0.9433  0.2519 -0.2526
11117TIP3    H254767   0.979   0.150   2.061  1.7893 -1.3577  0.2103
11118TIP3   OH254768   1.765   2.682  12.958 -0.3425 -0.0429 -0.2756
11118TIP3    H154769   1.772   2.773  12.931 -1.5347  0.8029  1.9720
11118TIP3    H254770   1.855   2.651  12.966  0.0649  0.8424 -1.3044
11119TIP3   OH254771   0.163   4.894   4.497 -0.6472  0.2380 -0.0881
11119TIP3    H154772   0.209   4.962   4.546  1.1200 -1.0393  0.1310
11119TIP3    H254773   0.215   4.815   4.511 -2.4498 -1.1071 -0.5898
11120TIP3   OH254774   5.200   4.370   3.264  0.2074  0.4916  0.4187
11120TIP3    H154775   5.221   4.445   3.320  1.8748  0.8490 -0.6166
11120TIP3    H254776   5.139   4.405   3.199  0.3500  0.7345  0.4169
11121TIP3   OH254777   0.047   2.236   2.259  0.3030 -0.0789 -0.2748
11121TIP3    H154778   0.019   2.153   2.220 -0.5146  0.2720 -0.4623
11121TIP3    H254779   0.142   2.237   2.247  0.2580 -0.7325 -0.7754
11122TIP3   OH254780   5.475   5.762  14.491  0.3137 -0.1295  0.3054
11122TIP3    H154781   5.416   5.837  14.499  0.8764  0.4233 -0.6023
11122TIP3    H254782   5.424   5.688  14.524  0.4136  0.9434  3.1779
11123TIP3   OH254783   4.218   3.229  15.996 -0.3560  0.0070 -0.4549
11123TIP3    H154784   4.147   3.167  16.014 -2.4912  2.5857  0.6353
11123TIP3    H254785   4.249   3.256  16.082  1.4757 -0.4980 -0.9244
11124TIP3   OH254786   6.591   2.174  16.419  0.3596  0.5159  0.2518
11124TIP3    H154787   6.659   2.168  16.351 -0.5747  0.3811 -0.6994
11124TIP3    H254788   6.638   2.199  16.498  2.0322 -2.6624  0.4079
11125TIP3   OH254789   4.529   5.005   2.574  0.1819 -0.1674  0.0654
11125TIP3    H154790   4.537   5.093   2.611 -0.0415 -0.0092 -0.2553
11125TIP3    H254791   4.612   4.991   2.528  1.3423 -1.1846  2.3218
11126TIP3   OH254792   6.493   3.995   3.293  0.3275 -0.5734  0.3498
11126TIP3    H154793   6.429   4.016   3.225 -0.4150 -1.5278  0.7235
11126TIP3    H254794   6.574   3.975   3.246 -0.2872 -1.6299 -0.2859
11127TIP3   OH254795   3.703   1.479   6.617  0.2386  0.5868  0.0352
11127TIP3    H154796   3.778   1.449   6.669  0.0788 -1.9472 -1.0592
11127TIP3    H254797   3.641   1.512   6.682  1.0639 -0.0919  1.2125
11128TIP3   OH254798   0.491   4.100  13.736  0.0765  0.3947  0.2085
11128TIP3    H154799   0.424   4.032  13.724 -0.6770  0.8841  1.4546
11128TIP3    H254800   0.533   4.108  13.650  0.3731 -1.8300  0.0890
11129TIP3   OH254801   2.959   1.104  17.108 -0.0555  0.0453  0.0029
11129TIP3    H154802   2.971   1.038  17.040  0.8447 -0.3102  0.4840
11129TIP3    H254803   2.964   1.055  17.190  0.5145  0.6798  0.3644
11130TIP3   OH254804   2.082   6.339   4.827 -1.0826 -0.8063 -0.4432
11130TIP3    H154805   2.171   6.318   4.856 -1.7555 -0.5817  2.0471
11130TIP3    H254806   2.092   6.417   4.772  0.1949 -0.2634  0.5121
11131TIP3   OH254807   4.021   6.041  12.879  0.2721  0.5439  0.2728
11131TIP3    H154808   3.953   6.050  12.812  0.7333  1.4708 -0.0948
11131TIP3    H254809   4.083   6.111  12.859  0.9639  0.1633  1.0387
11132TIP3   OH254810   5.585   1.924  15.498  1.0248 -0.2730  0.0382
11132TIP3    H154811   5.680   1.929  15.503  0.9152  1.0742  1.2559
11132TIP3    H254812   5.559   2.003  15.450  0.4871 -0.3425  0.2089
11133TIP3   OH254813   5.024   4.917  13.818 -0.0925 -0.0172  0.0842
11133TIP3    H154814   4.987   4.989  13.767 -0.2195 -0.4212 -0.4019
11133TIP3    H254815   5.064   4.959  13.894 -0.1565  0.5649 -0.2022
11134TIP3   OH254816   6.314   5.240   1.714 -0.3223  0.4139  0.3266
11134TIP3    H154817   6.404   5.246   1.682 -0.7720  0.3149 -1.0181
11134TIP3    H254818   6.271   5.318   1.679 -0.5409  0.9930  1.7936
11135TIP3   OH254819   1.901   0.978  17.144 -0.3732 -0.0186  0.8053
11135TIP3    H154820   1.817   0.958  17.185  0.1209 -1.1671  1.3245
11135TIP3    H254821   1.889   1.063  17.103 -2.0363 -0.5160  0.1958
11136TIP3   OH254822   5.423   3.647  16.570  0.2227  0.3175 -0.2591
11136TIP3    H154823   5.406   3.737  16.600  0.7088  0.7975 -1.3874
11136TIP3    H254824   5.509   3.625  16.606  0.5732  0.7015 -0.8453
11137TIP3   OH254825   3.831   4.549   5.501  0.5841 -0.1158  0.4971
11137TIP3    H154826   3.762   4.485   5.483  1.3939 -1.5675  2.1937
11137TIP3    H254827   3.888   4.544   5.425 -0.5460  0.2786 -0.4103
11138TIP3   OH254828   4.902   4.393  16.487  0.9779 -0.9398  1.1019
11138TIP3    H154829   4.886   4.393  16.393 -0.5259 -1.7649  1.3201
11138TIP3    H254830   4.933   4.481  16.507  2.7866 -1.1807 -0.3686
11139TIP3   OH254831   3.836   3.495  13.440 -0.6511  0.1427  0.0511
11139TIP3    H154832   3.862   3.578  13.481 -3.2587  0.4892  1.2135
11139TIP3    H254833   3.856   3.429  13.506 -1.2044  0.2183  0.3009
11140TIP3   OH254834   2.068   5.933   1.071  0.2372 -0.5812  0.4814
11140TIP3    H154835   2.057   6.016   1.025  1.5603 -0.2704  0.6709
11140TIP3    H254836   2.110   5.875   1.007 -0.9671 -1.2152  0.2493
11141TIP3   OH254837   3.130   1.468  16.435  0.0423  0.1170 -0.0129
11141TIP3    H154838   3.085   1.423  16.506 -0.4473 -1.1090 -1.0613
11141TIP3    H254839   3.137   1.403  16.365  0.6801  1.2203 -1.0317
11142TIP3   OH254840   1.249   3.125  16.040  0.4193 -0.0908  0.4992
11142TIP3    H154841   1.305   3.097  15.967 -0.2693 -0.2253  0.0083
11142TIP3    H254842   1.182   3.057  16.045  1.5881 -1.1835  2.6027
11143TIP3   OH254843   0.313   6.137  12.004 -0.4187  0.7688  0.3565
11143TIP3    H154844   0.282   6.108  11.918  0.2188  0.5262  0.2038
11143TIP3    H254845   0.236   6.176  12.045 -1.4245 -1.4749  0.7125
11144TIP3   OH254846   4.932   1.965  11.441 -0.2123  0.7421 -0.4609
11144TIP3    H154847   4.864   2.012  11.489  0.7656  0.6655  1.0689
11144TIP3    H254848   4.995   2.034  11.416  0.6300  0.4578  0.7639
11145TIP3   OH254849   5.126   1.478  11.428  0.2238 -0.3335 -0.0756
11145TIP3    H154850   5.086   1.560  11.457 -0.1828 -1.0933  1.6286
11145TIP3    H254851   5.052   1.424  11.399  0.2959 -0.7343  0.4744
11146TIP3   OH254852   5.660   0.050   1.785  0.3312  0.2679 -0.0975
11146TIP3    H154853   5.624   0.077   1.869 -0.2165 -1.2681  0.1910
11146TIP3    H254854   5.736   0.106   1.772  0.8789  0.0125  1.8043
11147TIP3   OH254855   3.411   2.057   2.494  0.1478 -0.0041 -0.5603
11147TIP3    H154856   3.476   2.044   2.563 -1.7660  1.9220  1.7505
11147TIP3    H254857   3.387   1.968   2.468  0.9346 -0.8058  1.2567
11148TIP3   OH254858   1.369   1.274   0.680  0.2498 -0.7940  0.3143
11148TIP3    H154859   1.411   1.332   0.617  0.8170 -1.9495 -0.4061
11148TIP3    H254860   1.335   1.202   0.627 -0.7865 -0.9382  1.1404
11149TIP3   OH254861   3.571   6.279  10.476 -0.2888 -0.2776 -0.0963
11149TIP3    H154862   3.476   6.292  10.476 -0.4755 -1.5047  0.1269
11149TIP3    H254863   3.582   6.185  10.491  0.9662 -0.1402 -0.0679
11150TIP3   OH254864   3.042   5.621   0.941  0.1223  1.0551  0.0899
11150TIP3    H154865   3.087   5.635   1.024  2.5074 -0.4443 -0.8699
11150TIP3    H254866   3.102   5.569   0.889 -2.0705  0.3774 -1.9410
11151TIP3   OH254867   0.249   5.356  12.865 -0.5668  0.2472  0.2444
11151TIP3    H154868   0.185   5.386  12.801 -0.5074  0.2180  0.1711
11151TIP3    H254869   0.275   5.435  12.912  0.4893  0.5204 -0.7519
11152TIP3   OH254870   4.724   6.716   0.085 -0.2826 -0.2353  0.3991
11152TIP3    H154871   4.700   6.790   0.141 -0.6292 -0.3518  0.4068
11152TIP3    H254872   4.697   6.638   0.135  0.3646 -0.3813  0.5288
11153TIP3   OH254873   0.793   4.028  16.429 -0.0158 -0.0447  0.0831
11153TIP3    H154874   0.860   4.096  16.428  0.7827 -0.7872  1.0714
11153TIP3    H254875   0.750   4.039  16.514 -1.0180  0.2872 -0.4553
11154TIP3   OH254876   1.687   0.754  12.390 -0.1419 -0.3770 -0.5637
11154TIP3    H154877   1.721   0.822  12.332  1.6732 -1.2795 -0.6130
11154TIP3    H254878   1.657   0.685  12.331  0.2470 -0.6267 -0.4731
11155TIP3   OH254879   1.260   3.959  12.469  0.1913 -0.8825 -0.2468
11155TIP3    H154880   1.275   3.877  12.422 -0.7401 -2.3023  1.7490
11155TIP3    H254881   1.245   4.024  12.401  0.9433 -2.3648 -1.9090
11156TIP3   OH254882   4.964   6.160  16.336  0.6010  0.0960 -0.2569
11156TIP3    H154883   4.991   6.248  16.362 -1.4951  0.7784 -0.1828
11156TIP3    H254884   4.988   6.104  16.410  2.9055  0.3639 -0.7331
11157TIP3   OH254885   2.303   5.985   3.851 -0.8017  0.5520 -0.4202
11157TIP3    H154886   2.390   6.013   3.822 -0.7728  0.4262 -0.4536
11157TIP3    H254887   2.291   5.898   3.814 -0.7687  0.3918 -0.0627
11158TIP3   OH254888   1.730   0.038   2.505  0.0583 -0.0482  0.1632
11158TIP3    H154889   1.773   0.123   2.517  0.4768 -0.3684  1.0248
11158TIP3    H254890   1.648   0.046   2.553  0.1971 -0.1958  0.4298
11159TIP3   OH254891   5.148   1.549   2.364 -0.3503  0.0069 -0.3318
11159TIP3    H154892   5.077   1.485   2.358 -0.5185  0.1533  0.0386
11159TIP3    H254893   5.103   1.633   2.368 -0.2269  0.0262  1.2823
11160TIP3   OH254894   0.926   4.809   2.095 -0.0001 -0.3202  0.0440
11160TIP3    H154895   0.893   4.855   2.172 -0.3838  0.6627 -0.6776
11160TIP3    H254896   1.002   4.861   2.068 -0.4503 -0.0785 -0.7964
11161TIP3   OH254897   0.029   0.246   3.790  0.2893 -0.3833  0.0821
11161TIP3    H154898  -0.031   0.310   3.829  0.0770  0.1043 -0.9809
11161TIP3    H254899  -0.026   0.172   3.767  0.0685  0.0485 -0.8578
11162TIP3   OH254900   1.117   0.413  16.818 -0.8069  0.1378  0.5195
11162TIP3    H154901   1.132   0.472  16.744 -0.2444  1.1458  1.4058
11162TIP3    H254902   1.148   0.328  16.787 -0.3361  0.5971 -0.3205
11163TIP3   OH254903   6.109   3.051   3.894  0.0425  0.0513  0.5311
11163TIP3    H154904   6.084   3.085   3.980 -1.2277 -0.3500  0.3476
11163TIP3    H254905   6.091   3.123   3.833  0.0355  0.0190  0.4945
11164TIP3   OH254906   1.036   0.495  13.187  0.0452 -0.0029  0.0945
11164TIP3    H154907   1.087   0.439  13.245  0.4486  0.2959  0.0316
11164TIP3    H254908   0.992   0.557  13.245  1.5794  1.2273  0.0148
11165TIP3   OH254909   1.650   0.837  16.619 -0.8714  0.8152 -0.3192
11165TIP3    H154910   1.634   0.826  16.713 -0.5286  2.8539  0.0445
11165TIP3    H254911   1.713   0.769  16.597 -0.9292  0.3284  0.9391
11166TIP3   OH254912   2.931   0.345  14.622  0.1473  0.1881  0.2335
11166TIP3    H154913   2.959   0.417  14.679 -0.9096 -0.4905  1.6922
11166TIP3    H254914   2.907   0.387  14.540  1.5724  1.2268  0.3085
11167TIP3   OH254915   3.361   5.608  11.985 -0.6277  0.2736  0.0727
11167TIP3    H154916   3.355   5.614  11.890 -2.2593 -0.0914  0.1111
11167TIP3    H254917   3.272   5.628  12.016 -0.7974 -2.1030  1.3503
11168TIP3   OH254918   5.172   3.403  17.323 -0.0084 -0.2665  0.2996
11168TIP3    H154919   5.266   3.419  17.314  0.0782 -1.0370 -0.1963
11168TIP3    H254920   5.147   3.452  17.402  0.8006 -0.0443  0.4242
11169TIP3   OH254921   3.884   1.852  12.770 -0.0969 -0.0002  0.5256
11169TIP3    H154922   3.823   1.924  12.756  1.6028  1.4201  0.0807
11169TIP3    H254923   3.878   1.833  12.864 -1.3389 -0.0161  0.4507
11170TIP3   OH254924   2.903   6.000  10.969 -0.1698  0.4852  0.1569
11170TIP3    H154925   2.845   5.924  10.965  0.3897  0.0260  0.6573
11170TIP3    H254926   2.888   6.037  11.055 -0.7853  1.2350 -0.2589
11171TIP3   OH254927   5.697   6.430  11.288  0.6390 -0.4692  0.3553
11171TIP3    H154928   5.679   6.470  11.374 -3.8562  2.2419 -1.4928
11171TIP3    H254929   5.754   6.493  11.244  0.2869 -0.2215  0.2527
11172TIP3   OH254930   6.231   3.733  17.205 -0.2643  0.3842  0.1268
11172TIP3    H154931   6.293   3.781  17.149 -1.5541  0.9289 -0.8942
11172TIP3    H254932   6.251   3.641  17.188  1.2614  0.5203  0.9837
11173TIP3   OH254933   1.106   2.391   5.975  0.2890 -0.4748  0.0748
11173TIP3    H154934   1.135   2.433   5.894 -0.8252  0.6052  0.2106
11173TIP3    H254935   1.015   2.366   5.958  0.2819 -0.9167  0.7367
11174TIP3   OH254936   2.405   5.354   1.116  0.1372  0.6680 -0.1556
11174TIP3    H154937   2.484   5.383   1.071 -0.5578 -0.8200 -2.4844
11174TIP3    H254938   2.429   5.270   1.156 -0.1130  0.4540 -0.4497
11175TIP3   OH254939   5.642   4.048  16.891 -0.4741  0.0777 -0.2904
11175TIP3    H154940   5.656   3.980  16.825 -1.8196  1.3799 -2.0164
11175TIP3    H254941   5.714   4.110  16.877  0.3246 -0.5696  0.7852
11176TIP3   OH254942   2.987   1.992   2.408 -0.5131  0.3880 -0.1450
11176TIP3    H154943   3.054   1.925   2.406 -0.1838  0.6575  0.9123
11176TIP3    H254944   3.017   2.059   2.346  0.1100  0.4262  0.1941
11177TIP3   OH254945   5.686   5.949   3.349 -0.2268 -0.8121  0.5258
11177TIP3    H154946   5.765   5.999   3.368 -0.3043  0.8546 -2.8009
11177TIP3    H254947   5.702   5.863   3.387  1.4713  0.5937  3.3251
11178TIP3   OH254948   0.497   0.706   2.803  0.5908  0.1689 -0.8098
11178TIP3    H154949   0.426   0.761   2.769  0.1292 -0.5038 -0.9566
11178TIP3    H254950   0.562   0.706   2.733  0.6308  0.5915 -0.7762
11179TIP3   OH254951   3.832   4.028  13.863  0.9297 -0.3583 -0.3762
11179TIP3    H154952   3.886   4.102  13.891  1.6959 -1.0044 -0.0959
11179TIP3    H254953   3.859   3.956  13.919  2.1769 -1.5833 -2.4138
11180TIP3   OH254954   2.268   1.094   4.418 -0.4801  0.3996 -0.3370
11180TIP3    H154955   2.348   1.145   4.426  1.1068 -1.7594 -1.2855
11180TIP3    H254956   2.249   1.093   4.325  0.7742 -2.3427 -0.6697
11181TIP3   OH254957   1.844   5.402  16.703  0.2681  0.0343 -0.0184
11181TIP3    H154958   1.921   5.377  16.755 -0.6866 -2.5594  0.3001
11181TIP3    H254959   1.860   5.362  16.617  0.0447  0.9692 -0.5045
11182TIP3   OH254960   6.713   4.873  16.231  0.2319  0.0937  0.1161
11182TIP3    H154961   6.771   4.809  16.273  2.6051  0.2250 -2.5881
11182TIP3    H254962   6.725   4.953  16.282  1.5413 -0.2382  0.3832
11183TIP3   OH254963   0.615   5.192   3.120  0.5604 -0.1212  0.2945
11183TIP3    H154964   0.663   5.260   3.168 -1.3564  0.2511  1.7605
11183TIP3    H254965   0.563   5.147   3.186  2.2577 -3.5641 -0.4953
11184TIP3   OH254966   0.724   5.854  13.424 -0.0680  0.4372 -0.4618
11184TIP3    H154967   0.661   5.854  13.352  0.2043 -1.1940 -0.7619
11184TIP3    H254968   0.698   5.927  13.480  0.2892  2.3892 -2.6871
11185TIP3   OH254969   1.821   3.005   5.804 -0.4156  0.3853 -0.2788
11185TIP3    H154970   1.868   3.084   5.831 -0.3290  0.3214 -0.2432
11185TIP3    H254971   1.888   2.937   5.801 -0.3703  0.4518 -0.9127
11186TIP3   OH254972   5.082   3.185  13.018  0.3083  0.6298  0.4205
11186TIP3    H154973   5.156   3.135  13.052 -0.0713 -0.7191 -0.6277
11186TIP3    H254974   5.046   3.129  12.950 -1.2883  1.5472  0.4762
11187TIP3   OH254975   4.214   0.739   0.612  0.3206  0.2855  0.0143
11187TIP3    H154976   4.305   0.738   0.640 -0.2507  1.3034  2.0808
11187TIP3    H254977   4.201   0.654   0.570  2.6845  0.8351 -2.0959
11188TIP3   OH254978   3.604   0.226   0.179  0.2413  0.0599  0.1910
11188TIP3    H154979   3.527   0.256   0.226 -0.0087 -0.4964  0.1456
11188TIP3    H254980   3.570   0.163   0.115  0.5796  0.7712 -0.7080
11189TIP3   OH254981   0.315   6.198   2.348 -0.0069  0.2264 -0.1811
11189TIP3    H154982   0.334   6.272   2.291 -0.5438 -0.6461 -1.5370
11189TIP3    H254983   0.402   6.166   2.375  0.2325  1.2037  0.2705
11190TIP3   OH254984   5.008   2.503   2.484  0.4967  0.7129  0.2697
11190TIP3    H154985   4.989   2.474   2.394 -2.7847  0.3608  0.9654
11190TIP3    H254986   5.020   2.422   2.533  0.0360  0.8218  0.5669
11191TIP3   OH254987   6.281   5.263  16.826  0.2330  0.3185  0.4512
11191TIP3    H154988   6.204   5.209  16.805  0.3950 -0.6202  2.0855
11191TIP3    H254989   6.252   5.318  16.899  0.6046  1.2012 -0.0627
11192TIP3   OH254990   5.457   4.012   5.432  0.8191 -0.9991  0.2336
11192TIP3    H154991   5.442   4.090   5.379 -0.7587 -1.4503 -0.0481
11192TIP3    H254992   5.398   3.946   5.395  0.7943 -1.7781  1.5830
11193TIP3   OH254993   1.257   2.381  12.264  0.5028 -0.3702 -1.2034
11193TIP3    H154994   1.321   2.396  12.333  0.1447 -0.4289 -0.8558
11193TIP3    H254995   1.281   2.442  12.194 -0.8974  1.8902  0.1655
11194TIP3   OH254996   2.563   5.739   5.128  0.1355 -0.5845  0.0618
11194TIP3    H154997   2.535   5.803   5.063 -0.2066 -0.4088  0.3767
11194TIP3    H254998   2.643   5.776   5.166  0.8903 -1.1419 -0.9212
11195TIP3   OH254999   0.754   0.697  12.298  0.0451 -0.1764 -0.3968
11195TIP3    H155000   0.766   0.780  12.250  2.0180 -1.1090 -1.6883
11195TIP3    H255001   0.831   0.691  12.354  0.2727 -1.4088 -0.8044
11196TIP3   OH255002   4.487   3.284  14.626  0.4262 -0.6457 -1.1609
11196TIP3    H155003   4.407   3.330  14.651 -1.0597 -3.3578 -0.5711
11196TIP3    H255004   4.542   3.288  14.705 -0.7506 -1.9453 -0.2153
11197TIP3   OH255005   0.596   0.925   5.070 -1.0437 -0.3586 -0.0322
11197TIP3    H155006   0.656   0.905   4.998 -1.1238 -0.5209 -0.0568
11197TIP3    H255007   0.628   1.007   5.107 -0.4478 -0.7555  0.3462
11198TIP3   OH255008   0.921   3.989  11.849 -0.3573 -0.3127 -0.1790
11198TIP3    H155009   0.989   3.933  11.812 -1.4917 -0.9328 -1.4315
11198TIP3    H255010   0.854   3.927  11.879 -1.0649  0.3212 -0.4163
11199TIP3   OH255011   4.385   2.914   1.960  0.2054  0.0838 -0.7057
11199TIP3    H155012   4.356   2.869   2.039  1.7711 -1.2464 -0.8145
11199TIP3    H255013   4.381   3.007   1.982  0.6045 -0.2537  0.9473
11200TIP3   OH255014   5.239   3.867   2.711 -0.3224 -0.6302  0.7618
11200TIP3    H155015   5.332   3.890   2.701  0.0766 -1.8033  1.5202
11200TIP3    H255016   5.231   3.844   2.804 -0.7782 -2.9821  0.1845
11201TIP3   OH255017   3.548   4.035   4.061 -0.5863 -0.4843  0.2050
11201TIP3    H155018   3.479   4.084   4.018  0.5446  0.4611 -0.5729
11201TIP3    H255019   3.608   4.010   3.991 -0.1038 -1.2464  0.8688
11202TIP3   OH255020   1.217   3.171  11.947  0.9384  0.7028  0.3809
11202TIP3    H155021   1.297   3.219  11.925  0.7408  0.2368 -1.5298
11202TIP3    H255022   1.146   3.232  11.928  0.7446  0.1576 -0.7253
11203TIP3   OH255023   6.293   0.070   0.730  0.0730  0.2518 -0.4513
11203TIP3    H155024   6.232   0.107   0.794 -0.1180  0.7506 -0.9173
11203TIP3    H255025   6.375   0.116   0.747  1.0597 -2.0194  1.7451
11204TIP3   OH255026   6.596   6.181  11.750  0.1501 -0.3179  0.2371
11204TIP3    H155027   6.611   6.221  11.836  0.9517  2.1352 -0.9751
11204TIP3    H255028   6.504   6.200  11.731  0.1948 -0.1403  0.1974
11205TIP3   OH255029   1.229   0.032  15.285  0.5070  0.1400 -0.1728
11205TIP3    H155030   1.185   0.076  15.212 -0.9895  1.1512  1.2576
11205TIP3    H255031   1.268   0.103  15.335  1.1391 -0.5029  0.2649
11206TIP3   OH255032   3.843   0.199  10.495 -0.3740  0.2102  0.0402
11206TIP3    H155033   3.907   0.242  10.438 -1.3892  1.3669 -0.2702
11206TIP3    H255034   3.793   0.142  10.436  0.7260 -1.1581  0.3865
11207TIP3   OH255035   3.109   0.729  14.386  0.0639  0.0692  0.1537
11207TIP3    H155036   3.097   0.800  14.322 -1.7604  0.7244  1.1559
11207TIP3    H255037   3.163   0.665  14.340  0.3103  1.3225 -1.4104
11208TIP3   OH255038   5.309   0.703   5.316  0.2627 -0.3403  0.5346
11208TIP3    H155039   5.296   0.609   5.333  0.9063 -0.9956 -2.2014
11208TIP3    H255040   5.274   0.716   5.228  0.3227  1.9981  0.8110
11209TIP3   OH255041   0.891   3.660  12.936 -0.1519 -0.0324  0.0916
11209TIP3    H155042   0.857   3.631  12.852  0.8368 -0.1844 -0.2739
11209TIP3    H255043   0.930   3.582  12.975 -1.5076 -0.1993  1.1679
11210TIP3   OH255044   2.871   4.052   4.992 -0.2038 -0.4539 -0.7053
11210TIP3    H155045   2.901   4.143   4.993  0.1799 -0.5766  0.8110
11210TIP3    H255046   2.847   4.034   5.083 -0.3341 -1.8543 -1.0033
11211TIP3   OH255047   3.818   5.536   1.297  0.5758 -0.4499 -0.1275
11211TIP3    H155048   3.753   5.607   1.297  1.5330  0.4958  1.4065
11211TIP3    H255049   3.902   5.581   1.286  1.0223 -1.6512 -2.0613
11212TIP3   OH255050   5.393   1.417   4.805 -0.0293  0.1351  0.4102
11212TIP3    H155051   5.474   1.378   4.770  0.2637  0.8812  0.2341
11212TIP3    H255052   5.369   1.483   4.740 -1.1407 -0.5048  0.1456
11213TIP3   OH255053   4.684   2.341  12.461  0.3661  0.2043  0.0682
11213TIP3    H155054   4.727   2.270  12.414  0.1692  1.1798 -1.6543
11213TIP3    H255055   4.750   2.409  12.467  0.2480  0.2557  0.8475
11214TIP3   OH255056   0.667   0.479  13.979 -0.0356 -0.3005 -0.1358
11214TIP3    H155057   0.665   0.565  14.022 -0.9464 -0.0386 -0.6694
11214TIP3    H255058   0.710   0.422  14.042 -0.3487  0.3254  0.6628
11215TIP3   OH255059   2.683   6.594  12.661  0.2467  0.9323  0.5016
11215TIP3    H155060   2.629   6.608  12.583 -2.1939  0.7423  2.0650
11215TIP3    H255061   2.643   6.650  12.728  1.4386  0.0748  1.9875
11216TIP3   OH255062   2.712   0.549   0.417 -0.3954 -0.0586 -0.0914
11216TIP3    H155063   2.715   0.562   0.323 -0.7082  0.3970 -0.0381
11216TIP3    H255064   2.779   0.609   0.452  0.4167 -0.9337 -0.0926
11217TIP3   OH255065   0.463   4.516  12.222  0.1565  0.5136  0.5115
11217TIP3    H155066   0.474   4.510  12.127 -0.7025 -1.0285  0.4807
11217TIP3    H255067   0.553   4.514  12.256  0.5193  1.8809 -0.2679
11218TIP3   OH255068   3.766   3.542   1.851  0.8373  0.0535 -0.1859
11218TIP3    H155069   3.785   3.552   1.944  0.2146 -0.3093 -0.0151
11218TIP3    H255070   3.683   3.588   1.838  0.4428 -0.6836 -0.3629
11219TIP3   OH255071   6.261   2.011   3.296 -0.7868 -0.1434  0.1581
11219TIP3    H155072   6.212   1.943   3.249 -2.4791  0.5534  0.7988
11219TIP3    H255073   6.229   2.093   3.258 -1.2348  0.3829  1.5900
11220TIP3   OH255074   1.757   3.675  16.515 -0.2698  0.4030 -0.0894
11220TIP3    H155075   1.740   3.605  16.452 -1.5589  0.5868  0.0236
11220TIP3    H255076   1.742   3.635  16.600 -0.6880  0.7196 -0.0091
11221TIP3   OH255077   0.895   5.186   1.689  0.0043  0.1499  0.0783
11221TIP3    H155078   0.980   5.177   1.647  0.0925  1.8624 -0.1921
11221TIP3    H255079   0.890   5.112   1.749  1.2538 -0.5256 -0.6022
11222TIP3   OH255080   0.757   0.408  13.440 -0.5587  0.0962  0.2933
11222TIP3    H155081   0.795   0.327  13.474  0.2184  0.2603 -0.1408
11222TIP3    H255082   0.718   0.383  13.356  0.9285  0.4159 -0.5322
11223TIP3   OH255083   5.255   2.047  15.381  0.0565 -0.7241  0.0560
11223TIP3    H155084   5.247   1.962  15.339  0.0288 -1.5333  1.6300
11223TIP3    H255085   5.187   2.101  15.339  1.0768 -0.9649 -2.0349
11224TIP3   OH255086   3.759   6.148   5.020  0.2789  0.2571 -0.8369
11224TIP3    H155087   3.735   6.169   4.930  0.6313  0.1985 -0.9475
11224TIP3    H255088   3.853   6.165   5.025 -0.0089  1.8047 -0.0341
11225TIP3   OH255089   4.980   2.119  16.863  0.0573 -0.1725 -0.4787
11225TIP3    H155090   4.952   2.079  16.781 -0.8962  1.0731 -0.7847
11225TIP3    H255091   4.900   2.129  16.914  0.3402  0.9103 -0.2219
11226TIP3   OH255092   5.137   3.398   6.021 -0.7418 -0.4135  0.3633
11226TIP3    H155093   5.113   3.384   6.113 -0.9034  1.1366  0.5708
11226TIP3    H255094   5.193   3.476   6.022 -1.5153  0.1859 -0.9672
11227TIP3   OH255095   2.941   3.086   5.055  0.0907  0.1808 -0.0991
11227TIP3    H155096   2.988   3.138   4.990  2.0490  3.6968  3.6642
11227TIP3    H255097   3.008   3.057   5.117 -1.9709  0.9367  2.7225
11228TIP3   OH255098   5.806   6.086  14.683  0.2690 -0.1584 -0.5884
11228TIP3    H155099   5.765   6.003  14.661 -0.6206  0.3139 -0.7727
11228TIP3    H255100   5.837   6.075  14.773 -1.2767 -0.1768 -0.0218
11229TIP3   OH255101   1.335   1.473   3.357  0.6615 -0.5153 -0.2586
11229TIP3    H155102   1.283   1.501   3.282 -0.8678  0.2303  1.0142
11229TIP3    H255103   1.374   1.391   3.329  0.4342 -0.0802 -1.9899
11230TIP3   OH255104   3.181   0.123   4.533 -0.1287 -0.0233 -0.0580
11230TIP3    H155105   3.178   0.049   4.593 -0.5289  1.6862  2.1639
11230TIP3    H255106   3.093   0.127   4.496 -0.4484 -0.0072  0.6819
11231TIP3   OH255107   5.773   0.507  16.267  0.3579 -0.0427  0.1311
11231TIP3    H155108   5.680   0.527  16.260  0.4686  0.2175 -0.6765
11231TIP3    H255109   5.813   0.589  16.294  0.3994 -0.0507  0.0942
11232TIP3   OH255110   1.661   3.462  13.892 -0.2993 -0.7877  0.0723
11232TIP3    H155111   1.752   3.484  13.874 -0.9789  1.3295 -1.0960
11232TIP3    H255112   1.652   3.475  13.987  0.3762  0.0059  0.0405
11233TIP3   OH255113   4.274   2.920   1.590 -0.3048  0.1177  0.5917
11233TIP3    H155114   4.319   3.004   1.591 -2.0325  1.1010 -0.8067
11233TIP3    H255115   4.341   2.858   1.621  2.9523  1.0253 -3.6539
11234TIP3   OH255116   4.764   5.645  14.506 -0.1022  0.2429 -0.1483
11234TIP3    H155117   4.794   5.573  14.562 -1.1409 -1.1443 -1.3225
11234TIP3    H255118   4.704   5.695  14.562  0.0291 -0.2411  0.4324
11235TIP3   OH255119   5.093   5.739   1.935  0.0894 -0.4077  0.0921
11235TIP3    H155120   5.108   5.795   2.011 -1.3851  0.2445 -0.0541
11235TIP3    H255121   5.156   5.768   1.870  2.8520 -2.3771  1.6998
11236TIP3   OH255122   6.211   6.225  15.155 -0.6802 -0.0257  0.3664
11236TIP3    H155123   6.237   6.140  15.191 -1.2890 -0.0552  0.7486
11236TIP3    H255124   6.257   6.289  15.210  0.1134 -0.1010 -0.1845
11237TIP3   OH255125   5.302   3.834  13.695  0.8041  0.1976  0.3404
11237TIP3    H155126   5.368   3.834  13.625  0.6613  2.4051  0.1356
11237TIP3    H255127   5.346   3.873  13.770  0.3929 -0.4475  0.9352
11238TIP3   OH255128   3.845   3.077   4.419 -0.1153 -0.5898 -0.0421
11238TIP3    H155129   3.825   2.992   4.378  1.5252 -1.3794  0.6830
11238TIP3    H255130   3.927   3.061   4.466 -0.0035  1.3079  0.4558
11239TIP3   OH255131   1.844   2.455   1.314  0.2355  0.0244 -0.3557
11239TIP3    H155132   1.926   2.496   1.341 -0.8785  0.8775  2.0334
11239TIP3    H255133   1.777   2.523   1.327 -0.9581 -0.8494 -1.5953
11240TIP3   OH255134   0.402   1.603  11.341  0.1246 -0.3544 -0.0814
11240TIP3    H155135   0.459   1.527  11.334  0.4738 -0.1163  0.1720
11240TIP3    H255136   0.459   1.674  11.371 -0.0341  0.2111 -1.0775
11241TIP3   OH255137   0.841   5.309  15.558 -0.8500 -0.0763  0.0116
11241TIP3    H155138   0.933   5.294  15.582 -0.9811 -1.5860 -0.3310
11241TIP3    H255139   0.827   5.402  15.576  0.1550 -0.2576  2.0375
11242TIP3   OH255140   1.543   3.121  13.362 -0.9334 -0.5195 -0.2228
11242TIP3    H155141   1.484   3.185  13.323 -1.4954 -1.5200 -1.0778
11242TIP3    H255142   1.492   3.040  13.364 -0.7149 -0.6641  2.0829
11243TIP3   OH255143   6.097   1.224   0.312  0.2590 -0.2294  0.0654
11243TIP3    H155144   6.126   1.184   0.394  0.1947  1.7365  1.0974
11243TIP3    H255145   6.079   1.149   0.254  1.4651 -1.6347  1.4155
11244TIP3   OH255146   0.354   0.328  16.733  0.2719  0.3457 -0.6283
11244TIP3    H155147   0.371   0.360  16.644 -1.7744 -0.3017 -1.2958
11244TIP3    H255148   0.421   0.261  16.747 -0.1524 -0.4600 -2.2074
11245TIP3   OH255149   4.884   0.674  14.703 -0.0387 -1.0002  0.8166
11245TIP3    H155150   4.798   0.690  14.663  0.4215 -0.6866 -0.0828
11245TIP3    H255151   4.924   0.607  14.647  0.8005 -0.2259  0.4582
11246TIP3   OH255152   1.628   0.944  12.680 -0.1183  0.0848 -0.7081
11246TIP3    H155153   1.670   1.010  12.736 -0.6722  0.0765 -0.2753
11246TIP3    H255154   1.675   0.863  12.699 -0.4967  0.0186 -0.0209
11247TIP3   OH255155   6.483   2.306  15.454  0.1753 -0.5852  0.2615
11247TIP3    H155156   6.455   2.289  15.364 -0.0880  0.1237  0.2017
11247TIP3    H255157   6.496   2.400  15.458 -0.8070 -0.4635  1.2349
11248TIP3   OH255158   3.256   2.656   0.805  0.0574  0.2857 -0.5402
11248TIP3    H155159   3.334   2.688   0.760  1.3693 -1.9178 -0.0182
11248TIP3    H255160   3.208   2.607   0.739  0.9589 -1.2644 -0.1087
11249TIP3   OH255161   4.197   0.238  17.340 -0.1509 -0.7921 -0.0119
11249TIP3    H155162   4.276   0.263  17.388 -1.2959  1.5768  0.7689
11249TIP3    H255163   4.151   0.320  17.324 -0.9511 -1.7407 -3.2527
11250TIP3   OH255164   1.355   2.212   1.658  0.0037  0.1521  0.3767
11250TIP3    H155165   1.406   2.273   1.712  2.1469 -1.2349  0.0419
11250TIP3    H255166   1.292   2.174   1.719 -0.5240  1.7182  0.8770
11251TIP3   OH255167   3.806   3.600  12.620 -0.9245 -0.0038 -0.5757
11251TIP3    H155168   3.719   3.573  12.651 -0.9457  1.0976  0.3745
11251TIP3    H255169   3.791   3.685  12.577 -0.1909  0.6539  0.4233
11252TIP3   OH255170   0.832   3.358   3.699 -0.0879 -0.7917 -0.3267
11252TIP3    H155171   0.907   3.300   3.685  0.8487 -0.2742  2.1777
11252TIP3    H255172   0.811   3.350   3.792 -0.8557  1.7629 -0.1906
11253TIP3   OH255173   5.184   0.941  17.010 -0.2607 -0.2978  0.9128
11253TIP3    H155174   5.104   0.893  17.031 -1.3099  1.5842  1.4414
11253TIP3    H255175   5.165   0.984  16.927  1.0804 -1.6091 -0.1420
11254TIP3   OH255176   2.629   4.771  12.872  0.4909 -0.2178 -0.0247
11254TIP3    H155177   2.562   4.760  12.939  0.7644 -0.0375  0.2777
11254TIP3    H255178   2.579   4.786  12.791  0.0417 -3.1329 -0.4283
11255TIP3   OH255179   5.950   3.391  15.279  0.2211  0.0529  0.2212
11255TIP3    H155180   6.043   3.394  15.256  0.6441 -0.5816  1.7539
11255TIP3    H255181   5.907   3.438  15.208  1.5698 -0.7697 -1.2130
11256TIP3   OH255182   3.004   5.883   4.711  0.1220  0.0954  0.3813
11256TIP3    H155183   3.019   5.821   4.782 -0.5054  0.9131  1.2526
11256TIP3    H255184   2.929   5.935   4.740  0.2741  0.8903 -0.5851
11257TIP3   OH255185   5.131   3.542   4.530 -0.0923 -0.1899 -0.5138
11257TIP3    H155186   5.129   3.467   4.589  1.1138 -0.7383 -1.1272
11257TIP3    H255187   5.123   3.504   4.442 -0.2444  0.4669 -0.7949
11258TIP3   OH255188   5.272   2.391  12.842  0.1390  0.4565 -0.4218
11258TIP3    H155189   5.291   2.316  12.787 -1.8568  0.8234 -1.6963
11258TIP3    H255190   5.196   2.365  12.894  1.1139  0.6403  1.1809
11259TIP3   OH255191   4.882   2.749  13.720  0.4607  0.4446 -0.2819
11259TIP3    H155192   4.968   2.785  13.744  0.9394  0.1239 -1.4385
11259TIP3    H255193   4.884   2.659  13.753  0.7055  0.3295 -0.6060
11260TIP3   OH255194   6.368   3.179   1.358 -0.4559  0.3538 -0.2088
11260TIP3    H155195   6.303   3.144   1.419 -0.7487 -0.0212 -0.7279
11260TIP3    H255196   6.398   3.260   1.399  1.9548 -1.5517  2.2064
11261TIP3   OH255197   2.702   0.845  16.794 -0.0521 -0.0131  0.1954
11261TIP3    H155198   2.608   0.846  16.809 -0.0795  0.1351  0.0137
11261TIP3    H255199   2.727   0.937  16.789  0.5059  0.0535  2.7607
11262TIP3   OH255200   4.566   0.640  16.055 -0.2337  0.1649 -0.1830
11262TIP3    H155201   4.637   0.582  16.027  2.4286  1.8362  2.5255
11262TIP3    H255202   4.526   0.594  16.129 -0.0098  0.5534  0.1774
11263TIP3   OH255203   1.618   0.913  13.395  0.1729 -0.2368  0.4246
11263TIP3    H155204   1.700   0.870  13.418  0.0322 -0.9541 -0.3558
11263TIP3    H255205   1.637   1.007  13.398  1.5139 -0.4111 -1.4799
11264TIP3   OH255206   6.604   6.597   3.721 -0.2008 -0.4980 -0.0013
11264TIP3    H155207   6.693   6.629   3.707 -0.2194  0.2011  1.3189
11264TIP3    H255208   6.614   6.502   3.727  0.7751 -0.3352  1.8990
11265TIP3   OH255209   3.102   3.312   1.067 -0.3720 -0.5769  0.5348
11265TIP3    H155210   3.113   3.380   1.133  0.7582 -0.7343  0.5143
11265TIP3    H255211   3.156   3.239   1.097  2.1280  0.2006 -1.7399
11266TIP3   OH255212   0.764   4.127  14.883  0.3732 -0.5007 -0.6389
11266TIP3    H155213   0.859   4.121  14.895  0.5766  2.8451  0.4300
11266TIP3    H255214   0.753   4.154  14.792  0.5337 -0.1716 -0.5655
11267TIP3   OH255215   4.280   4.943  15.863 -0.3426  0.3099  0.4315
11267TIP3    H155216   4.197   4.988  15.879 -1.0597 -0.6094 -0.6159
11267TIP3    H255217   4.255   4.860  15.822  1.1518  0.4743 -0.8764
11268TIP3   OH255218   6.201   2.945  12.008 -0.1292  0.3472  0.0065
11268TIP3    H155219   6.291   2.941  12.041 -0.1227  0.6469  0.0231
11268TIP3    H255220   6.150   2.897  12.074  0.1675 -0.7362 -0.5363
11269TIP3   OH255221   5.969   0.503   2.945  0.3340 -0.4161 -0.2050
11269TIP3    H155222   5.895   0.444   2.933  0.0532  0.1937 -1.7731
11269TIP3    H255223   6.032   0.475   2.878  0.1516  1.0793 -1.0420
11270TIP3   OH255224   5.669   4.761   0.198 -0.3507  0.0975 -0.0363
11270TIP3    H155225   5.577   4.745   0.176 -0.3287  0.4667 -0.4067
11270TIP3    H255226   5.700   4.678   0.234 -0.8224 -0.0367  0.0637
11271TIP3   OH255227   5.949   3.409   4.425 -0.4331 -0.4968 -0.9391
11271TIP3    H155228   6.017   3.344   4.441  0.0793  0.4122  0.7544
11271TIP3    H255229   5.996   3.487   4.397 -0.8673 -0.1864 -0.8249
11272TIP3   OH255230   3.299   4.536  13.015 -0.2113 -0.3905  0.8638
11272TIP3    H155231   3.244   4.463  12.988  0.5767 -0.7015  0.0360
11272TIP3    H255232   3.384   4.497  13.033 -0.5194 -0.1160  3.3517
11273TIP3   OH255233   5.927   4.358   1.336  0.5110 -0.1342 -0.1183
11273TIP3    H155234   6.022   4.362   1.339  0.5806  2.0482 -2.0402
11273TIP3    H255235   5.907   4.313   1.254 -0.1300 -0.4182  0.1847
11274TIP3   OH255236   5.397   1.373   3.832  0.1982 -0.2494  0.6137
11274TIP3    H155237   5.315   1.363   3.880 -0.6398 -0.4070 -0.7840
11274TIP3    H255238   5.407   1.290   3.784  1.0587 -0.1391  0.5836
11275TIP3   OH255239   3.069   4.328   3.982  0.0338  0.5598  0.1184
11275TIP3    H155240   3.020   4.379   3.917 -0.5513  0.3607  0.3969
11275TIP3    H255241   3.032   4.356   4.066  0.1766  0.1729  0.3096
11276TIP3   OH255242   5.120   1.263  13.101  0.4910  0.1152 -0.4641
11276TIP3    H155243   5.173   1.303  13.171 -1.8007 -2.1915  2.8960
11276TIP3    H255244   5.163   1.180  13.083 -0.9027 -1.0047  1.0718
11277TIP3   OH255245   4.169   0.837  17.221  0.0008  0.1214  0.5350
11277TIP3    H155246   4.150   0.846  17.314  1.9499 -1.0207  1.0927
11277TIP3    H255247   4.108   0.770  17.190 -0.5499  0.3967  0.9962
11278TIP3   OH255248   6.068   6.514  16.990 -0.1248 -0.4542 -0.5957
11278TIP3    H155249   6.093   6.470  17.072  0.9672 -0.1277 -0.7431
11278TIP3    H255250   6.111   6.599  16.995 -2.4998  0.7890 -0.1426
11279TIP3   OH255251   5.351   4.979  13.699 -0.4862  0.4671  0.5335
11279TIP3    H155252   5.394   5.065  13.699 -0.9209  0.6959  1.5481
11279TIP3    H255253   5.276   4.990  13.756 -1.4320 -0.1763 -0.5549
11280TIP3   OH255254   3.349   6.655  12.553  0.6473  0.3384 -0.2446
11280TIP3    H155255   3.280   6.645  12.488  1.2657  2.3216 -1.3108
11280TIP3    H255256   3.393   6.571  12.555  0.6419  0.2250 -2.4719
11281TIP3   OH255257   6.700   4.846  13.212  0.0152 -0.0114 -0.2373
11281TIP3    H155258   6.792   4.822  13.223  0.1014  0.5200  0.2881
11281TIP3    H255259   6.689   4.856  13.117  1.1458  2.2516 -0.2119
11282TIP3   OH255260   3.727   2.091  15.128  0.1808  0.2786  0.2044
11282TIP3    H155261   3.816   2.116  15.102  0.3161  0.7927  1.1468
11282TIP3    H255262   3.717   2.002  15.095  0.9187  0.3373 -0.2066
11283TIP3   OH255263   1.338   4.019   4.810 -0.3427  0.1952 -0.1802
11283TIP3    H155264   1.341   4.106   4.850 -0.5582 -0.2155  0.7642
11283TIP3    H255265   1.314   4.035   4.719  0.4017  1.1862 -0.2277
11284TIP3   OH255266   6.032   5.662  14.382  0.4268  0.6499  0.3513
11284TIP3    H155267   6.011   5.700  14.296 -1.5683 -0.0889  0.4535
11284TIP3    H255268   5.954   5.610  14.404  1.6166 -0.5784  1.8273
11285TIP3   OH255269   0.034   2.812  13.884  0.1737 -0.4651 -0.6778
11285TIP3    H155270   0.020   2.892  13.833  1.5179  0.1748 -0.0608
11285TIP3    H255271  -0.042   2.757  13.863 -1.5683  1.5543  0.0677
11286TIP3   OH255272   5.566   0.873   4.009  0.4942  0.6032 -0.2708
11286TIP3    H155273   5.591   0.905   4.096  1.1678  1.7489 -0.8666
11286TIP3    H255274   5.632   0.807   3.988 -0.0974 -0.2258  0.3740
11287TIP3   OH255275   6.206   3.858  11.269  0.3408 -0.3070 -0.1736
11287TIP3    H155276   6.258   3.803  11.211 -1.0785 -0.7113 -1.0964
11287TIP3    H255277   6.118   3.858  11.231  0.0790  1.8834  0.2961
11288TIP3   OH255278   0.845   5.991  12.794  0.2862  0.2067 -0.4799
11288TIP3    H155279   0.806   5.973  12.709  0.8213 -0.4271 -0.5971
11288TIP3    H255280   0.940   5.992  12.778  0.3891  0.2014  0.0852
11289TIP3   OH255281   1.394   2.542  16.257 -0.3303  0.6214  0.1245
11289TIP3    H155282   1.472   2.524  16.206 -0.3948  0.0509  0.2123
11289TIP3    H255283   1.395   2.476  16.326 -0.2631  1.3545  0.8406
11290TIP3   OH255284   6.365   3.439   0.566 -0.4935 -0.2039  0.0896
11290TIP3    H155285   6.404   3.356   0.594 -0.8092 -0.3843 -0.0012
11290TIP3    H255286   6.422   3.470   0.495 -0.7746 -0.6896 -0.3467
11291TIP3   OH255287   4.599   2.225  13.047  1.0836 -0.1776  0.3818
11291TIP3    H155288   4.586   2.304  13.099  0.1208  0.4394 -0.7362
11291TIP3    H255289   4.614   2.257  12.958 -0.4891 -1.2556 -0.3165
11292TIP3   OH255290   0.981   3.889   5.087 -0.1482  0.7325 -0.0017
11292TIP3    H155291   0.981   3.934   5.002  0.8793 -0.3853 -0.6275
11292TIP3    H255292   0.934   3.807   5.069 -0.9641  1.0046  0.8270
11293TIP3   OH255293   1.778   3.396   5.829  0.2053 -0.1998  0.2692
11293TIP3    H155294   1.858   3.344   5.831 -0.4364 -1.2744 -0.7808
11293TIP3    H255295   1.727   3.359   5.757 -0.5097  1.5562 -0.1886
11294TIP3   OH255296   2.197   5.409  15.836 -0.7026 -0.2122  0.1408
11294TIP3    H155297   2.218   5.501  15.817 -0.8881 -0.4046 -1.1116
11294TIP3    H255298   2.276   5.374  15.875 -0.2170  0.2010 -0.4400
11295TIP3   OH255299   3.409   6.254  15.920 -0.5578  0.4713  0.4121
11295TIP3    H155300   3.336   6.249  15.981 -0.4692 -0.2667  0.4695
11295TIP3    H255301   3.486   6.229  15.972 -0.5057 -0.3233 -0.0171
11296TIP3   OH255302   3.991   1.219  16.310 -0.0204  0.1067 -0.2035
11296TIP3    H155303   4.017   1.172  16.389 -3.4239  0.8489  1.5628
11296TIP3    H255304   3.895   1.219  16.312 -0.2424  2.2340 -3.1085
11297TIP3   OH255305   6.311   2.250   2.550  0.3497  0.4365 -0.3399
11297TIP3    H155306   6.360   2.182   2.505 -1.1249 -0.9171  0.0066
11297TIP3    H255307   6.235   2.266   2.494 -0.2713  0.4381  0.4853
11298TIP3   OH255308   2.617   4.557  16.716  0.6823 -0.6674 -0.4077
11298TIP3    H155309   2.659   4.643  16.720 -0.2004 -0.2123 -0.6369
11298TIP3    H255310   2.648   4.518  16.635  3.2783 -1.7607  0.9960
11299TIP3   OH255311   0.962   3.944   0.482  0.2405  0.0752 -0.4542
11299TIP3    H155312   0.927   3.924   0.569 -1.0916  1.0108 -0.7483
11299TIP3    H255313   1.056   3.931   0.491 -0.0790 -2.2528  0.4573
11300TIP3   OH255314   4.808   5.174   6.211 -0.5216  0.1122  0.0991
11300TIP3    H155315   4.726   5.133   6.184 -0.6402  0.9468 -0.8611
11300TIP3    H255316   4.784   5.229   6.285 -0.5644 -0.7076  0.6984
11301TIP3   OH255317   1.083   2.519   1.870 -0.4249 -0.0169  0.3093
11301TIP3    H155318   1.168   2.480   1.848 -0.5138  1.2826 -2.9027
11301TIP3    H255319   1.103   2.583   1.938  1.1086 -0.0054 -0.1163
11302TIP3   OH255320   2.975   0.481   0.809  0.1440 -0.0883  0.6265
11302TIP3    H155321   3.025   0.400   0.793  0.6153  0.4336 -0.6741
11302TIP3    H255322   2.914   0.458   0.878  0.7649 -1.3584  0.7846
11303TIP3   OH255323   3.679   2.724  12.821 -0.2603  0.0681 -0.1137
11303TIP3    H155324   3.721   2.640  12.803  0.7825  0.5209  0.1584
11303TIP3    H255325   3.725   2.787  12.766 -1.2959  0.4235 -0.6178
11304TIP3   OH255326   4.698   2.789  14.350  0.3776  0.4280  0.7635
11304TIP3    H155327   4.744   2.873  14.358 -0.3677  0.8192  0.9812
11304TIP3    H255328   4.751   2.728  14.401  0.9535  0.7531  0.5634
11305TIP3   OH255329   1.666   5.508   0.586 -0.8256 -0.1605  0.0790
11305TIP3    H155330   1.688   5.512   0.493 -0.1730 -1.5899  0.1437
11305TIP3    H255331   1.680   5.597   0.618  2.1928 -0.3306 -0.5069
11306TIP3   OH255332   5.269   5.187   1.244 -0.1755 -0.4852  0.6305
11306TIP3    H155333   5.304   5.244   1.176 -2.2155  2.1965  1.6391
11306TIP3    H255334   5.203   5.134   1.200 -1.2007  0.9533  0.3687
11307TIP3   OH255335   3.728   1.534   0.818  0.0786  0.3255 -0.4842
11307TIP3    H155336   3.670   1.611   0.813  0.0038  0.2040 -1.7904
11307TIP3    H255337   3.669   1.459   0.808  0.0302  0.0086  1.6373
11308TIP3   OH255338   5.533   1.226  11.721 -0.3861 -0.5853 -0.0401
11308TIP3    H155339   5.549   1.271  11.804  2.3400 -0.9420 -0.2836
11308TIP3    H255340   5.474   1.154  11.744  1.4934 -1.6070  1.9728
11309TIP3   OH255341   5.683   6.727  15.240 -0.4510 -0.1777 -0.3487
11309TIP3    H155342   5.719   6.757  15.157  1.7220 -0.0365  0.5888
11309TIP3    H255343   5.696   6.632  15.239  1.0799 -0.0086  0.4526
11310TIP3   OH255344   3.130   4.000  10.959  0.2529 -0.1362  0.1489
11310TIP3    H155345   3.052   3.957  10.995  0.0100 -0.9257 -1.2428
11310TIP3    H255346   3.099   4.043  10.880  1.5434 -2.0799 -1.5177
11311TIP3   OH255347   5.219   6.307   1.899  0.3295 -0.1758 -0.1810
11311TIP3    H155348   5.302   6.347   1.874  0.8955 -1.0501  0.2536
11311TIP3    H255349   5.196   6.349   1.982 -1.5803  2.7691 -2.0299
11312TIP3   OH255350   2.227   6.408   5.876 -0.3404 -0.5407 -0.4120
11312TIP3    H155351   2.212   6.450   5.961  1.1292  0.7785 -0.7491
11312TIP3    H255352   2.286   6.335   5.895 -2.0772 -1.8948  0.0285
11313TIP3   OH255353   1.627   3.855   3.858  0.0759 -0.0168  0.7066
11313TIP3    H155354   1.562   3.808   3.806  1.2479 -0.6831 -0.2322
11313TIP3    H255355   1.616   3.947   3.834  0.5525 -0.3044 -0.7330
11314TIP3   OH255356   4.854   1.527   1.789 -0.1660  0.4031 -0.3718
11314TIP3    H155357   4.848   1.529   1.884  1.1007  0.1711 -0.2707
11314TIP3    H255358   4.772   1.487   1.760  0.0145 -0.7727  0.6938
11315TIP3   OH255359   2.374   3.687   2.233 -0.2329 -0.0528 -0.2608
11315TIP3    H155360   2.285   3.695   2.266 -0.5902  0.2171 -1.2374
11315TIP3    H255361   2.363   3.679   2.138  0.7106 -1.3246 -0.2859
11316TIP3   OH255362   0.052   6.584   3.056 -0.3033 -0.0963  0.1366
11316TIP3    H155363  -0.034   6.595   3.016 -1.3779 -1.6776  1.8736
11316TIP3    H255364   0.094   6.669   3.045 -2.0663  0.7228 -0.7583
11317TIP3   OH255365   5.483   6.673  15.505  0.4135 -0.7288 -0.1592
11317TIP3    H155366   5.520   6.664  15.417 -0.5205  0.6702 -0.7312
11317TIP3    H255367   5.396   6.634  15.498  0.8331 -1.8359  0.5335
11318TIP3   OH255368   6.613   0.593  14.071  0.0237 -0.0117  0.4825
11318TIP3    H155369   6.640   0.501  14.078  0.7192  0.2139  0.8506
11318TIP3    H255370   6.566   0.597  13.988  2.9252 -0.0032 -1.3169
11319TIP3   OH255371   4.393   4.198   0.442 -1.2626  0.3379 -0.0441
11319TIP3    H155372   4.379   4.229   0.532 -1.4379  1.4250 -0.4273
11319TIP3    H255373   4.434   4.112   0.452  0.4141  1.2205  1.0758
11320TIP3   OH255374   3.948   2.709  13.645  0.2326  0.2536 -0.0257
11320TIP3    H155375   4.033   2.752  13.657  0.6297 -0.6472  0.4761
11320TIP3    H255376   3.897   2.733  13.723  0.5496 -0.3833  0.3870
11321TIP3   OH255377   4.625   4.030   5.549 -0.2839 -0.0151  0.0566
11321TIP3    H155378   4.615   4.099   5.614  0.7646  0.1088  0.1037
11321TIP3    H255379   4.653   3.953   5.599 -0.6209 -0.2506 -0.1074
11322TIP3   OH255380   4.109   1.979   6.842 -0.2013 -0.1672  0.1839
11322TIP3    H155381   4.089   2.073   6.842  1.1371  0.1931 -2.1781
11322TIP3    H255382   4.201   1.974   6.867 -0.7157 -1.0823  2.1655
11323TIP3   OH255383   0.991   5.902  11.386  0.8268  0.0204 -0.3827
11323TIP3    H155384   1.072   5.925  11.339  0.6619 -0.7522 -1.0733
11323TIP3    H255385   0.993   5.807  11.392 -0.8342 -0.1703 -1.9235
11324TIP3   OH255386   1.966   6.199   2.259 -0.3622 -0.0866  0.0895
11324TIP3    H155387   1.992   6.290   2.274 -1.6235  0.2700  0.1679
11324TIP3    H255388   1.926   6.199   2.172 -0.4009 -0.5603  0.1045
11325TIP3   OH255389   1.167   2.897   0.367  0.4043 -0.5039  0.0844
11325TIP3    H155390   1.076   2.901   0.336  0.1944 -0.4540  0.6877
11325TIP3    H255391   1.164   2.938   0.454  0.9116 -0.9509  0.3191
11326TIP3   OH255392   6.584   1.974   1.679 -0.0571 -0.4297 -0.0407
11326TIP3    H155393   6.656   2.026   1.641 -0.3409  0.1462  0.1976
11326TIP3    H255394   6.558   2.023   1.757  0.9001 -1.8886  1.2639
11327TIP3   OH255395   4.290   3.688   6.239 -0.0621  0.0448 -0.4043
11327TIP3    H155396   4.277   3.728   6.153  0.5627 -0.9733 -0.9820
11327TIP3    H255397   4.256   3.753   6.301  0.4383  1.2376 -1.3514
11328TIP3   OH255398   6.577   5.198   4.071  0.0462  0.2363  0.2872
11328TIP3    H155399   6.516   5.258   4.113  0.2616 -0.5256  1.7531
11328TIP3    H255400   6.663   5.233   4.092  0.1569  0.5940 -0.6949
11329TIP3   OH255401   1.700   1.939  12.398 -0.3812  0.0861  1.1336
11329TIP3    H155402   1.779   1.984  12.428  0.4833 -1.2388  0.9176
11329TIP3    H255403   1.726   1.896  12.317 -1.3189 -0.3941  1.0741
11330TIP3   OH255404   1.713   3.094   3.267  0.0602  0.8249  0.4516
11330TIP3    H155405   1.706   3.132   3.354  0.3598 -0.0229  0.8523
11330TIP3    H255406   1.690   3.001   3.279  0.1035  0.7012 -0.3661
11331TIP3   OH255407   6.063   0.631   6.255  0.2425 -0.7797  0.3366
11331TIP3    H155408   6.131   0.651   6.191 -1.1949  0.9148 -0.7202
11331TIP3    H255409   6.053   0.536   6.249  0.5790 -0.7398 -1.4929
11332TIP3   OH255410   5.542   3.614  11.489  0.2966 -0.4331  0.1580
11332TIP3    H155411   5.487   3.661  11.552 -0.4608  0.3233 -1.0383
11332TIP3    H255412   5.559   3.677  11.419  1.2985 -1.1903 -0.3200
11333TIP3   OH255413   2.485   4.983  14.648  0.0118  0.1505  0.6806
11333TIP3    H155414   2.401   4.973  14.602 -0.6190 -0.2029  1.8496
11333TIP3    H255415   2.549   5.000  14.579 -1.0694  0.6964 -0.2127
11334TIP3   OH255416   3.494   5.561  14.119  0.8003 -0.3452 -0.4254
11334TIP3    H155417   3.553   5.636  14.126  1.1087 -0.7551  2.5797
11334TIP3    H255418   3.547   5.493  14.078  0.8118  0.7236 -2.2874
11335TIP3   OH255419   5.888   0.355  16.775  0.2201  0.5954  0.0077
11335TIP3    H155420   5.823   0.309  16.828 -0.7927  0.9933 -0.8713
11335TIP3    H255421   5.839   0.424  16.731  0.7963 -0.4101 -2.3332
11336TIP3   OH255422   1.672   3.616  16.768 -0.4235 -0.1070  0.0704
11336TIP3    H155423   1.695   3.683  16.833 -0.3445 -0.7002  0.6678
11336TIP3    H255424   1.608   3.560  16.812  1.4076 -1.9572  0.5523
11337TIP3   OH255425   5.816   6.679  14.119 -0.3994 -0.3499 -0.7715
11337TIP3    H155426   5.883   6.748  14.123  0.5447 -1.2888  0.6423
11337TIP3    H255427   5.733   6.726  14.110  0.1478  1.0435  0.9095
11338TIP3   OH255428   3.737   3.168  14.053 -0.2851 -0.2124 -0.0163
11338TIP3    H155429   3.666   3.231  14.061 -0.7050 -0.6053 -0.6318
11338TIP3    H255430   3.700   3.096  14.003  0.0350 -1.1951  1.1235
11339TIP3   OH255431   0.641   0.020   5.144  0.0837  0.3628 -0.6515
11339TIP3    H155432   0.676  -0.067   5.124 -0.5701  0.3262 -1.7635
11339TIP3    H255433   0.587   0.006   5.221 -0.4482 -0.3525 -1.1324
11340TIP3   OH255434   1.822   2.883  13.363 -1.0903 -0.3122 -0.4836
11340TIP3    H155435   1.786   2.810  13.312  0.1950 -1.4797  0.1925
11340TIP3    H255436   1.757   2.898  13.433 -1.8179 -0.1512 -1.1817
11341TIP3   OH255437   5.546   6.729  16.270  0.2948  0.4120 -0.1856
11341TIP3    H155438   5.636   6.703  16.290  0.1477  1.2172  1.8705
11341TIP3    H255439   5.546   6.747  16.176  2.2934  0.4671 -0.2241
11342TIP3   OH255440   3.518   6.090   4.718 -0.2157  0.0465  0.1553
11342TIP3    H155441   3.612   6.097   4.703  0.1235 -1.8030  1.2474
11342TIP3    H255442   3.508   6.021   4.783 -2.3731 -0.1915 -0.3471
11343TIP3   OH255443   6.013   2.080  11.534 -0.1609  0.3331 -0.1519
11343TIP3    H155444   6.012   2.173  11.555  0.3935  0.9218 -2.4192
11343TIP3    H255445   6.095   2.048  11.571 -0.2901  0.7605  0.5229
11344TIP3   OH255446   6.630   6.176  14.638  0.2763  0.2970  0.2838
11344TIP3    H155447   6.550   6.178  14.690 -1.0147 -0.0119 -1.5609
11344TIP3    H255448   6.700   6.191  14.700 -1.3688  3.0573  1.6917
11345TIP3   OH255449   0.933   4.381   4.902  0.2830 -0.2617  0.3581
11345TIP3    H155450   0.933   4.458   4.845  0.1858 -0.3386  0.2549
11345TIP3    H255451   0.849   4.339   4.886  0.3145 -0.3618  0.4530
11346TIP3   OH255452   2.863   0.649  13.596 -0.0642  0.1322  0.1645
11346TIP3    H155453   2.895   0.567  13.559 -0.7978 -0.1403  0.1142
11346TIP3    H255454   2.933   0.712  13.579 -0.1081 -0.1416 -1.0783
11347TIP3   OH255455   2.648   2.762  15.164  0.1983 -0.5821 -0.6274
11347TIP3    H155456   2.683   2.830  15.222  0.6457  0.0342 -1.5995
11347TIP3    H255457   2.700   2.769  15.084 -0.1043 -1.7269 -0.9459
11348TIP3   OH255458   3.474   5.113  15.091  0.0326  0.0406  0.4280
11348TIP3    H155459   3.531   5.189  15.081 -0.2580  0.0716 -1.3371
11348TIP3    H255460   3.535   5.040  15.105  0.3995  0.3507  0.4844
11349TIP3   OH255461   3.742   4.354   2.254  0.0693 -0.2421  0.8052
11349TIP3    H155462   3.741   4.258   2.262  1.4594 -0.5303 -1.6353
11349TIP3    H255463   3.664   4.373   2.202  1.7943 -0.5633 -2.1409
11350TIP3   OH255464   0.162   6.179  16.665  0.1789 -0.0671 -0.1102
11350TIP3    H155465   0.158   6.166  16.570  1.0839 -0.9835 -0.0378
11350TIP3    H255466   0.241   6.133  16.692  1.9328  3.1027  0.6209
11351TIP3   OH255467   3.860   2.116   6.415 -0.3320 -0.6492  0.1886
11351TIP3    H155468   3.820   2.029   6.418  1.7092 -1.6866 -0.9418
11351TIP3    H255469   3.949   2.103   6.446  0.1090  0.9937 -0.2851
11352TIP3   OH255470   0.788   4.143   5.593 -0.0457 -0.0697 -0.0042
11352TIP3    H155471   0.882   4.143   5.572 -0.7570  1.9387 -4.1804
11352TIP3    H255472   0.764   4.051   5.598  1.6379 -0.6874 -1.9641
11353TIP3   OH255473   1.092   5.024  16.603  0.0646 -0.0225 -0.1881
11353TIP3    H155474   1.102   5.029  16.698  0.7734  1.1686 -0.3099
11353TIP3    H255475   1.040   5.101  16.580 -0.6777 -0.6558 -0.7157
11354TIP3   OH255476   3.352   5.962  12.241 -0.1351  0.3501 -0.3062
11354TIP3    H155477   3.302   6.012  12.306 -0.3290 -1.7661  1.2653
11354TIP3    H255478   3.286   5.914  12.192  0.0641  1.4370 -1.6995
11355TIP3   OH255479   1.778   6.191  15.972 -0.3654  0.0699 -0.0271
11355TIP3    H155480   1.816   6.111  16.009 -1.4090 -0.1821  0.5163
11355TIP3    H255481   1.854   6.245  15.949  0.3380 -0.8681  0.0522
11356TIP3   OH255482   5.155   3.077  17.150  0.0202  0.5154 -0.0950
11356TIP3    H155483   5.123   3.152  17.200  0.4065  0.3169  0.4582
11356TIP3    H255484   5.240   3.057  17.189  0.5987  0.7267 -1.2215
11357TIP3   OH255485   5.243   5.297   2.856  0.3851  0.1234  0.0157
11357TIP3    H155486   5.316   5.265   2.802 -2.2806 -1.7345 -2.8760
11357TIP3    H255487   5.192   5.219   2.876 -2.4385  1.6094 -0.8243
11358TIP3   OH255488   5.274   4.367   4.112  0.0535 -0.3049 -0.9258
11358TIP3    H155489   5.241   4.315   4.039 -0.5899  0.6249 -1.3260
11358TIP3    H255490   5.342   4.313   4.151  0.2510 -0.9306 -2.0707
11359TIP3   OH255491   3.544   5.925   1.055  0.1058  0.4614  0.1159
11359TIP3    H155492   3.517   5.834   1.040  2.0938  0.1088 -1.7989
11359TIP3    H255493   3.611   5.919   1.123  1.4700  0.2400 -1.2130
11360TIP3   OH255494   5.389   0.568   2.006 -0.0348  0.2160 -0.2428
11360TIP3    H155495   5.298   0.596   1.994 -0.2946 -1.0120 -1.3034
11360TIP3    H255496   5.402   0.498   1.943  1.4387 -0.1439  0.4033
11361TIP3   OH255497   0.410   4.040   4.502  0.2673 -0.0607  0.6763
11361TIP3    H155498   0.321   4.040   4.467  0.0733  0.4002  1.1660
11361TIP3    H255499   0.454   3.969   4.455  0.0631  0.6573 -0.6218
11362TIP3   OH255500   3.820   4.398  16.629 -0.5180  0.3394  0.1064
11362TIP3    H155501   3.910   4.404  16.660 -0.8834 -0.8383  1.5403
11362TIP3    H255502   3.820   4.323  16.569 -1.0319 -1.4917  2.2643
11363TIP3   OH255503   4.920   0.193  17.103 -0.8465  0.2236  0.2100
11363TIP3    H155504   4.938   0.259  17.171 -2.4620 -0.4673  1.3757
11363TIP3    H255505   4.880   0.120  17.151 -3.3224  0.2457 -1.6550
11364TIP3   OH255506   6.077   2.193   3.157  0.2593 -0.4745 -0.2534
11364TIP3    H155507   6.140   2.253   3.117 -1.7257  0.7790 -1.7035
11364TIP3    H255508   6.017   2.251   3.204  0.8691 -1.7275  2.2590
11365TIP3   OH255509   5.182   3.929   3.875  0.3251  0.7891 -0.4359
11365TIP3    H155510   5.205   4.015   3.841  0.6176  1.1723  0.6899
11365TIP3    H255511   5.088   3.922   3.860  0.2965  1.3101 -0.5277
11366TIP3   OH255512   5.005   3.508  16.161  0.6020 -0.5853 -0.5858
11366TIP3    H155513   5.009   3.603  16.153 -0.5035 -0.3614  1.1266
11366TIP3    H255514   4.951   3.480  16.087  0.0754  0.2230 -0.5185
11367TIP3   OH255515   1.030   3.557   4.041  0.6110  0.3882 -0.4526
11367TIP3    H155516   1.076   3.484   3.999 -0.3079 -0.5338  0.0977
11367TIP3    H255517   0.957   3.577   3.982  0.6866  0.6768 -0.4532
11368TIP3   OH255518   4.113   0.178   1.583 -0.0053  0.0719  0.2707
11368TIP3    H155519   4.134   0.221   1.501 -0.8814 -0.1703 -0.0965
11368TIP3    H255520   4.184   0.115   1.596  1.1350  1.3760  0.6653
11369TIP3   OH255521   1.324   2.357   5.226 -0.3019  0.3508  0.4921
11369TIP3    H155522   1.229   2.350   5.236 -0.4602  0.3384 -0.7954
11369TIP3    H255523   1.357   2.271   5.251 -0.9860 -0.8328 -2.2230
11370TIP3   OH255524   1.379   5.696   0.518  1.0224 -0.1565  0.2539
11370TIP3    H155525   1.335   5.765   0.468  1.3154  0.2497  0.5506
11370TIP3    H255526   1.373   5.726   0.609  0.4565 -0.9098  0.4735
11371TIP3   OH255527   2.734   5.022   1.177  0.3205  0.3896  0.1146
11371TIP3    H155528   2.763   4.967   1.250 -1.0881 -0.5043  0.0240
11371TIP3    H255529   2.704   4.961   1.110  0.6445  1.2252 -0.8304
11372TIP3   OH255530   6.645   5.422  15.077 -0.7349 -0.1154  0.4800
11372TIP3    H155531   6.608   5.336  15.056 -0.4135 -0.4819  1.3399
11372TIP3    H255532   6.721   5.430  15.020  0.5664 -1.4199  1.9022
11373TIP3   OH255533   0.060   3.264   5.992  0.3443  0.1321 -0.2192
11373TIP3    H155534   0.120   3.320   5.942  1.0243 -0.8069 -0.4944
11373TIP3    H255535   0.093   3.267   6.082  1.3189 -0.9945 -0.5073
11374TIP3   OH255536   2.099   0.714  14.779  0.3580  0.8320  0.2604
11374TIP3    H155537   2.084   0.622  14.803  0.2569  0.7262 -0.2094
11374TIP3    H255538   2.013   0.748  14.755  0.3860  1.0683  0.4870
11375TIP3   OH255539   4.335   1.843   1.486  0.7248 -0.3263 -0.1107
11375TIP3    H155540   4.357   1.754   1.515 -1.1535 -1.1988 -1.1431
11375TIP3    H255541   4.242   1.852   1.507  0.8620  1.3841 -0.1040
11376TIP3   OH255542   2.693   3.990   2.147  0.1646  0.4290  0.8378
11376TIP3    H155543   2.601   3.993   2.174 -0.1558  1.2108 -0.2634
11376TIP3    H255544   2.694   3.930   2.073  0.6906 -0.1604  1.3084
11377TIP3   OH255545   1.591   3.045  11.782  0.1662  0.2285  0.3593
11377TIP3    H155546   1.535   3.028  11.857  1.1484  0.4106  1.1545
11377TIP3    H255547   1.658   2.977  11.786  0.9132  0.9464  0.3502
11378TIP3   OH255548   6.299   0.287  16.932 -0.0604  0.0172  0.0361
11378TIP3    H155549   6.289   0.202  16.887 -0.0710 -0.6667  1.2827
11378TIP3    H255550   6.373   0.329  16.889  3.0314 -2.6224  2.3022
11379TIP3   OH255551   0.375   1.722  15.154 -0.2361  0.7336 -0.0441
11379TIP3    H155552   0.377   1.674  15.071  0.9413  1.0706 -0.2254
11379TIP3    H255553   0.382   1.814  15.129  0.5591  0.8159  0.4350
11380TIP3   OH255554   0.050   4.985  10.768 -0.1507 -0.1927  0.4489
11380TIP3    H155555   0.014   5.063  10.726  0.3834  0.0003  0.3502
11380TIP3    H255556   0.027   4.994  10.860 -3.3309 -1.6869 -0.0339
11381TIP3   OH255557   6.715   4.700   2.428  0.0946 -0.4737 -0.1118
11381TIP3    H155558   6.801   4.660   2.419  1.4623  1.6361  2.2353
11381TIP3    H255559   6.712   4.768   2.360  0.4701 -0.2595  0.0868
11382TIP3   OH255560   6.578   5.539   4.187 -0.0553  0.5201  0.1210
11382TIP3    H155561   6.551   5.615   4.239  1.1339  0.1436  1.3401
11382TIP3    H255562   6.642   5.573   4.125  0.7713  0.4623  0.9284
11383TIP3   OH255563   4.924   3.720   2.092  0.1107  0.0381 -0.4204
11383TIP3    H155564   5.010   3.762   2.090 -0.8355  2.1201  0.5311
11383TIP3    H255565   4.933   3.650   2.157  0.8327  0.8849  0.4188
11384TIP3   OH255566   5.153   3.961   4.176 -0.1461  0.7080 -0.2402
11384TIP3    H155567   5.106   3.971   4.094 -0.4853  2.4164  0.1289
11384TIP3    H255568   5.099   4.006   4.241 -0.3467 -1.3444  1.1415
11385TIP3   OH255569   4.622   6.107  11.841  0.3861 -0.1079  0.5135
11385TIP3    H155570   4.623   6.170  11.768  0.7262 -0.4175  0.2514
11385TIP3    H255571   4.649   6.024  11.802  1.0072 -0.1839  1.0779
11386TIP3   OH255572   2.840   1.568   5.469  0.1183  0.1454  0.8313
11386TIP3    H155573   2.856   1.480   5.436  2.2096  1.3103 -1.6531
11386TIP3    H255574   2.910   1.583   5.533 -0.3156 -0.0278  1.3511
11387TIP3   OH255575   2.352   5.175  15.563 -0.1877  0.0389 -0.6546
11387TIP3    H155576   2.293   5.192  15.489 -1.2305  1.0278  0.3795
11387TIP3    H255577   2.364   5.080  15.561 -0.7129 -0.0289 -1.7020
11388TIP3   OH255578   4.478   2.350   2.756 -0.0186  0.3079 -0.4465
11388TIP3    H155579   4.433   2.279   2.709  1.1618 -1.0677  0.3996
11388TIP3    H255580   4.409   2.414   2.774 -1.1004 -0.5335 -1.4011
11389TIP3   OH255581   6.006   0.310   1.768 -0.4461  0.2033  0.0037
11389TIP3    H155582   5.964   0.246   1.711  1.1420 -3.5285  2.6542
11389TIP3    H255583   5.936   0.372   1.791 -1.9495 -0.2013 -3.0166
11390TIP3   OH255584   6.315   1.532   0.535 -0.6957 -0.2608  0.0194
11390TIP3    H155585   6.396   1.493   0.503  1.1060  2.7766  0.4477
11390TIP3    H255586   6.289   1.593   0.466 -1.1766  0.6089  0.9382
11391TIP3   OH255587   1.103   5.562   2.640  0.3230  0.5293  0.2843
11391TIP3    H155588   1.161   5.613   2.697  0.6121 -1.2805  1.7306
11391TIP3    H255589   1.083   5.484   2.691 -0.0976 -0.8057 -1.8019
11392TIP3   OH255590   6.361   1.326  11.240  0.2420 -0.0229  0.5537
11392TIP3    H155591   6.292   1.287  11.293  0.6538 -0.9839  0.4022
11392TIP3    H255592   6.437   1.330  11.299  0.6945 -1.0763  0.0598
11393TIP3   OH255593   4.967   1.911  15.706  0.0088  0.5216 -0.6071
11393TIP3    H155594   4.933   1.979  15.647  0.8213 -1.3553 -3.4059
11393TIP3    H255595   5.062   1.920  15.701  0.1788 -1.3962 -1.8589
11394TIP3   OH255596   4.132   3.871   2.978  0.5427 -0.1974  0.2810
11394TIP3    H155597   4.119   3.943   3.039  1.2760  0.9660 -0.8845
11394TIP3    H255598   4.225   3.848   2.987  1.0534  0.9837 -1.3844
11395TIP3   OH255599   2.056   0.258   5.440  0.1202  0.6027  0.5455
11395TIP3    H155600   1.988   0.196   5.413  1.1913 -0.3527 -0.0437
11395TIP3    H255601   2.034   0.338   5.393 -0.7772  0.4184  0.6140
11396TIP3   OH255602   3.444   0.164   2.628 -0.2615  0.3995 -0.6870
11396TIP3    H155603   3.468   0.110   2.703 -0.9346  0.1508 -0.6467
11396TIP3    H255604   3.405   0.243   2.667 -2.1626 -0.4461 -0.7675
11397TIP3   OH255605   3.953   0.404   0.674  0.2198  0.4411  0.4141
11397TIP3    H155606   3.974   0.311   0.676 -0.5818  0.1631 -1.6321
11397TIP3    H255607   4.038   0.448   0.671  0.6219 -0.1489  2.2003
11398TIP3   OH255608   0.278   3.294   3.522 -0.1567  0.2830 -0.1924
11398TIP3    H155609   0.211   3.341   3.473 -0.0042 -0.5722 -1.2515
11398TIP3    H255610   0.356   3.350   3.515 -0.1600  0.2165 -0.8779
11399TIP3   OH255611   6.429   5.838   5.944 -0.2383  0.0155  0.3054
11399TIP3    H155612   6.422   5.904   6.012  0.2216  0.9497 -0.5315
11399TIP3    H255613   6.516   5.849   5.908  0.1627 -1.6089  0.6828
11400TIP3   OH255614   3.780   4.310  11.643 -0.1421 -0.0690 -0.0947
11400TIP3    H155615   3.710   4.368  11.613  0.4117  0.6049 -0.1118
11400TIP3    H255616   3.735   4.233  11.676 -0.9181  0.5217  0.2560
11401TIP3   OH255617   5.768   2.171   2.032  0.9133 -0.5889 -0.0324
11401TIP3    H155618   5.747   2.101   1.970 -0.9646 -0.6611  0.6347
11401TIP3    H255619   5.727   2.144   2.114  0.3749  1.1518  0.3170
11402TIP3   OH255620   1.887   6.744   3.101 -0.3153 -0.5954 -0.9162
11402TIP3    H155621   1.921   6.721   3.015  0.4343 -1.9897 -0.2617
11402TIP3    H255622   1.961   6.782   3.147 -0.3476 -1.1244 -0.4185
11403TIP3   OH255623   0.587   3.170  16.077 -0.6197 -0.3788  0.5584
11403TIP3    H155624   0.647   3.125  16.136  1.5247  0.4293 -0.8362
11403TIP3    H255625   0.537   3.229  16.133  1.8282  0.8795  1.5957
11404TIP3   OH255626   0.203   2.439  12.080 -0.2110  0.2011 -0.4421
11404TIP3    H155627   0.254   2.384  12.020 -0.2481 -0.8642  0.4853
11404TIP3    H255628   0.249   2.523  12.080  2.2066 -0.9931  1.1380
11405TIP3   OH255629   6.266   0.576  11.337  0.9490 -0.4780  0.8788
11405TIP3    H155630   6.244   0.494  11.293  0.7421 -0.5401  1.0999
11405TIP3    H255631   6.188   0.599  11.387  0.7193  0.2685  0.1995
11406TIP3   OH255632   5.357   5.984   3.121 -0.3327 -0.7223  0.0658
11406TIP3    H155633   5.376   5.900   3.080 -2.9768 -0.5669 -1.6693
11406TIP3    H255634   5.385   6.050   3.057 -0.2443 -0.3224  0.5047
11407TIP3   OH255635   6.296   1.546  16.853 -0.1526  0.3210 -0.2259
11407TIP3    H155636   6.365   1.554  16.786 -0.3272  1.1284 -0.3173
11407TIP3    H255637   6.341   1.566  16.936  0.0569 -0.6496 -0.0993
11408TIP3   OH255638   2.695   6.020  15.415  0.0067 -0.1862 -0.1249
11408TIP3    H155639   2.779   6.008  15.458  0.0544  0.2364 -0.0972
11408TIP3    H255640   2.632   6.028  15.487 -0.1216 -0.9465 -0.1490
11409TIP3   OH255641   5.444   3.360  16.627  0.1577  0.0819  0.3664
11409TIP3    H155642   5.518   3.358  16.688 -1.1490  1.4303  2.1085
11409TIP3    H255643   5.405   3.446  16.639 -1.0922 -0.1933 -1.2890
11410TIP3   OH255644   5.663   3.731   0.415 -0.5193  0.2171  0.7900
11410TIP3    H155645   5.695   3.795   0.351 -0.3958 -0.2320  0.4000
11410TIP3    H255646   5.738   3.674   0.431 -1.0040 -0.6358  0.1284
11411TIP3   OH255647   1.802   2.763  15.438 -0.5243  0.0252 -0.7330
11411TIP3    H155648   1.875   2.762  15.375  1.0380  0.5820  0.9839
11411TIP3    H255649   1.798   2.853  15.470 -0.3482 -0.5275  0.9594
11412TIP3   OH255650   1.108   1.472   1.359 -0.0815  0.2254  0.1880
11412TIP3    H155651   1.116   1.392   1.412  0.2352 -1.4208 -2.1685
11412TIP3    H255652   1.154   1.451   1.278 -0.1371  2.7944 -0.5826
11413TIP3   OH255653   2.124   1.037  17.335 -0.0406  0.2570  0.0353
11413TIP3    H155654   2.072   0.968  17.294  1.6236 -1.8735  1.3028
11413TIP3    H255655   2.074   1.062  17.413 -0.8887  0.8861 -0.6945
11414TIP3   OH255656   3.826   2.909   5.355  0.0717  0.1788  0.3446
11414TIP3    H155657   3.808   2.819   5.328  0.9384 -0.9361  3.1046
11414TIP3    H255658   3.796   2.963   5.282 -1.2194 -2.2826 -1.0598
11415TIP3   OH255659   5.481   4.106  13.372  0.7447  0.4119 -0.2372
11415TIP3    H155660   5.445   4.152  13.447 -2.3182 -1.9228 -0.0794
11415TIP3    H255661   5.478   4.171  13.301  0.8176  1.7434  0.9346
11416TIP3   OH255662   3.345   5.826   1.317  0.0218  0.2938 -0.0433
11416TIP3    H155663   3.424   5.839   1.370  0.9626  1.7822 -1.7019
11416TIP3    H255664   3.338   5.905   1.265 -2.7217  0.2975  0.1649
11417TIP3   OH255665   0.684   1.099  14.516 -0.4771 -0.5670  0.6117
11417TIP3    H155666   0.607   1.103  14.458 -0.2272 -0.5934  0.2788
11417TIP3    H255667   0.745   1.041  14.471 -0.6345 -1.3083  1.3231
11418TIP3   OH255668   2.273   3.923   3.215 -0.0197 -0.0182  0.1659
11418TIP3    H155669   2.248   3.831   3.222  1.1090 -0.3820 -0.2209
11418TIP3    H255670   2.345   3.922   3.151 -0.7811  1.2865 -0.7530
11419TIP3   OH255671   2.951   6.479  13.710 -0.5042  0.0177 -0.1224
11419TIP3    H155672   2.969   6.394  13.749 -1.5001 -0.5213 -0.8015
11419TIP3    H255673   3.012   6.539  13.753  2.4294 -1.5491 -1.7354
11420TIP3   OH255674   6.217   0.959  11.580 -0.1824  0.0018 -0.0775
11420TIP3    H155675   6.169   1.042  11.575  0.1631  0.4336  2.3371
11420TIP3    H255676   6.267   0.954  11.499 -0.1298  2.2131 -0.2276
11421TIP3   OH255677   6.109   4.150   4.704  0.0448 -0.2228 -0.3015
11421TIP3    H155678   6.158   4.141   4.786 -0.3107  1.5077  0.1410
11421TIP3    H255679   6.057   4.070   4.698  0.9764 -0.9158  0.5330
11422TIP3   OH255680   3.207   6.560  10.919 -0.1619  0.3284  0.2422
11422TIP3    H155681   3.297   6.590  10.927 -0.7693  2.9934 -1.5665
11422TIP3    H255682   3.198   6.532  10.828 -1.7422  2.6577 -0.4178
11423TIP3   OH255683   6.282   0.845  13.002  0.1458  0.3407  0.2913
11423TIP3    H155684   6.359   0.802  12.965 -0.6508  0.4898 -1.6498
11423TIP3    H255685   6.302   0.939  12.998  0.5670  0.3103  1.4632
11424TIP3   OH255686   1.801   1.846   6.203  0.0499  0.2394  0.4073
11424TIP3    H155687   1.828   1.904   6.131  1.0425 -2.1749 -1.3003
11424TIP3    H255688   1.718   1.883   6.233 -1.4676  0.3355 -3.3290
11425TIP3   OH255689   1.637   6.725   1.038 -0.2767  0.2895 -0.6115
11425TIP3    H155690   1.656   6.652   1.096  1.4455  1.4754  0.3966
11425TIP3    H255691   1.661   6.693   0.951  0.0915 -0.4728 -0.2422
11426TIP3   OH255692   5.989   1.420   1.656 -0.0344 -0.3331 -0.4121
11426TIP3    H155693   6.065   1.468   1.624 -0.9983  1.3196 -0.3241
11426TIP3    H255694   6.017   1.385   1.741 -0.1276  2.4768  0.8720
11427TIP3   OH255695   2.239   6.433   0.749 -0.1623 -0.1193 -0.1288
11427TIP3    H155696   2.303   6.408   0.683 -0.1442  0.1895 -0.2299
11427TIP3    H255697   2.253   6.371   0.821  0.5381  0.2117  0.0239
11428TIP3   OH255698   3.880   5.404  12.047  0.1203  0.1384  0.0847
11428TIP3    H155699   3.896   5.389  12.140  1.4183  1.1121  0.0447
11428TIP3    H255700   3.879   5.316  12.009 -0.8028 -0.2905  1.0522
11429TIP3   OH255701   3.041   1.256  11.594 -0.3118  0.0951 -0.0406
11429TIP3    H155702   2.974   1.208  11.642 -2.3762  2.7471  0.0023
11429TIP3    H255703   3.098   1.291  11.662  0.9736 -1.8486 -0.0522
11430TIP3   OH255704   2.125   3.646   5.267 -0.0253 -0.2459  0.4171
11430TIP3    H155705   2.075   3.577   5.311 -1.9561 -0.3484 -1.7720
11430TIP3    H255706   2.188   3.598   5.212  1.3214 -0.1340  1.7842
11431TIP3   OH255707   4.728   1.514  12.027  0.1306 -0.4433 -0.1854
11431TIP3    H155708   4.637   1.491  12.005  0.0222  0.9352 -1.3626
11431TIP3    H255709   4.734   1.608  12.009  2.0030 -0.6550 -0.9308
11432TIP3   OH255710   1.318   4.163   4.227 -0.3471  0.0468  0.1373
11432TIP3    H155711   1.399   4.196   4.266  0.5262 -1.4509 -0.2955
11432TIP3    H255712   1.263   4.240   4.215  1.8737  1.4580 -1.5798
11433TIP3   OH255713   4.352   0.949  14.993 -0.4317 -0.4773  0.0424
11433TIP3    H155714   4.405   0.926  15.069  0.5135 -0.4521 -0.5988
11433TIP3    H255715   4.399   0.912  14.918 -1.1498 -0.1705 -0.5766
11434TIP3   OH255716   2.832   1.192  13.054  0.3062 -0.0914 -0.3443
11434TIP3    H155717   2.895   1.130  13.018 -0.1399 -0.0292 -1.2637
11434TIP3    H255718   2.879   1.237  13.124  1.2320 -0.1312 -0.9286
11435TIP3   OH255719   4.150   0.526  17.281 -0.1620  0.5156 -1.0493
11435TIP3    H155720   4.066   0.559  17.248 -1.5171 -2.1592 -0.5781
11435TIP3    H255721   4.173   0.586  17.352 -2.2612  0.7303 -0.4674
11436TIP3   OH255722   1.072   5.744  16.703  0.0825 -0.4521 -0.1086
11436TIP3    H155723   0.997   5.707  16.657 -0.9945 -1.0473  2.0234
11436TIP3    H255724   1.121   5.790  16.635 -0.8735 -2.1126 -2.0260
11437TIP3   OH255725   4.640   3.536   6.227  0.0342  0.2925 -0.1839
11437TIP3    H155726   4.601   3.525   6.314 -0.0721 -2.6650 -0.4719
11437TIP3    H255727   4.606   3.461   6.177  0.6503  1.5193 -2.5845
11438TIP3   OH255728   6.427   0.553  15.840  0.5420  0.0896 -0.3057
11438TIP3    H155729   6.422   0.480  15.779  1.1287 -0.5306  0.3514
11438TIP3    H255730   6.410   0.514  15.926 -0.2603  0.9362 -0.0596
11439TIP3   OH255731   1.698   4.967  12.599 -0.1346  0.2019  0.3007
11439TIP3    H155732   1.626   4.975  12.536  0.5966 -0.0302 -0.5727
11439TIP3    H255733   1.661   4.915  12.670 -0.7302 -0.2341 -0.3124
11440TIP3   OH255734   2.127   1.923  14.208 -0.4189 -0.3564  0.0914
11440TIP3    H155735   2.097   1.868  14.137 -1.3507  0.1219  0.0981
11440TIP3    H255736   2.056   1.922  14.272  0.5105 -0.9882  1.1457
11441TIP3   OH255737   0.983   4.609  12.911  0.0350  0.4416 -0.0546
11441TIP3    H155738   0.989   4.576  13.001 -1.3123 -1.4623 -0.5800
11441TIP3    H255739   1.072   4.605  12.878  0.1686 -1.4729  0.3884
11442TIP3   OH255740   2.092   5.342   5.184 -0.0875  0.6563  0.2609
11442TIP3    H155741   2.062   5.322   5.096 -0.8094 -0.7393  0.8054
11442TIP3    H255742   2.036   5.414   5.213 -1.5866 -0.5533  0.4976
11443TIP3   OH255743   5.075   3.749   3.644  0.1584  0.0658  0.3874
11443TIP3    H155744   4.981   3.735   3.658 -0.4004  1.6426 -1.3123
11443TIP3    H255745   5.111   3.661   3.631 -1.4359 -0.4702 -0.7399
11444TIP3   OH255746   5.727   3.860  15.605  0.4370  0.2538 -0.4962
11444TIP3    H155747   5.704   3.818  15.688  0.7145 -1.2695 -1.1756
11444TIP3    H255748   5.778   3.937  15.631 -0.6358  0.5727  0.7903
11445TIP3   OH255749   6.339   1.390  14.717  0.5873  0.2522 -0.0680
11445TIP3    H155750   6.295   1.400  14.801  1.6827 -0.1556  0.5786
11445TIP3    H255751   6.270   1.403  14.652 -0.3537  0.2168  0.8918
11446TIP3   OH255752   4.353   2.956   6.385  0.4043 -0.0661  0.2335
11446TIP3    H155753   4.369   2.863   6.370  0.4169  0.0498 -0.5315
11446TIP3    H255754   4.367   2.996   6.299  0.4447  0.6471  0.5716
11447TIP3   OH255755   2.842   1.475   0.465  0.5283 -0.2680  0.0928
11447TIP3    H155756   2.840   1.383   0.490  0.1557 -0.4608 -0.6169
11447TIP3    H255757   2.761   1.512   0.500  0.7810 -0.1466  0.5694
11448TIP3   OH255758   2.595   3.791   6.268 -0.4977 -0.4358 -0.5030
11448TIP3    H155759   2.564   3.732   6.337 -1.1198  0.0152 -0.3914
11448TIP3    H255760   2.620   3.871   6.314 -2.0943  0.3354 -0.8989
11449TIP3   OH255761   6.316   0.507   1.634 -0.3147  0.1475 -0.0675
11449TIP3    H155762   6.311   0.436   1.698 -2.0370 -1.5708 -1.9396
11449TIP3    H255763   6.410   0.522   1.622  0.0686  0.1803  2.3935
11450TIP3   OH255764   6.106   6.099  11.903  0.0781  0.1924 -0.0173
11450TIP3    H155765   6.122   6.021  11.957  1.6390 -1.1942 -2.2979
11450TIP3    H255766   6.182   6.103  11.845 -0.5426  2.7843 -0.7573
11451TIP3   OH255767   2.131   6.179   2.652 -0.2911  0.8029 -0.1972
11451TIP3    H155768   2.074   6.227   2.712 -1.1625 -0.6707  0.2099
11451TIP3    H255769   2.215   6.176   2.696  0.5868  4.0636 -1.3371
11452TIP3   OH255770   1.391   0.047  12.858  0.1945 -0.0688  0.2789
11452TIP3    H155771   1.482   0.071  12.873  0.3518  0.1535 -0.9269
11452TIP3    H255772   1.384   0.036  12.763 -1.5297  2.0033  0.0942
11453TIP3   OH255773   6.452   5.915  15.253  0.0223 -0.1785  0.3559
11453TIP3    H155774   6.494   5.836  15.217 -0.0124 -0.4565  0.9154
11453TIP3    H255775   6.446   5.898  15.347 -0.8045  0.1124  0.3644
11454TIP3   OH255776   2.692   5.222  10.862  0.3434 -0.1639  0.3022
11454TIP3    H155777   2.772   5.235  10.810 -0.1352  3.1979  0.1682
11454TIP3    H255778   2.723   5.218  10.952  0.7026  2.9131  0.4271
11455TIP3   OH255779   2.465   5.323  13.949  0.1675  0.3743  0.4114
11455TIP3    H155780   2.436   5.413  13.962  1.8309  1.1032 -0.5919
11455TIP3    H255781   2.465   5.312  13.854  1.1043 -0.2755  0.4771
11456TIP3   OH255782   6.664   1.669   1.783 -0.2272 -0.2942  0.3567
11456TIP3    H155783   6.663   1.703   1.693 -3.0006 -0.3180  0.2891
11456TIP3    H255784   6.718   1.731   1.831 -0.9683  1.3343 -0.8074
11457TIP3   OH255785   1.830   0.853   2.208  0.2711 -0.0938 -0.2875
11457TIP3    H155786   1.805   0.765   2.237 -0.1428  0.3033  0.5938
11457TIP3    H255787   1.924   0.847   2.191  0.0782 -0.9320 -1.0970
11458TIP3   OH255788   0.654   1.593   2.055  0.0399 -0.0191 -0.4399
11458TIP3    H155789   0.747   1.582   2.073  1.0023  1.4687 -3.7454
11458TIP3    H255790   0.641   1.687   2.049 -1.6115 -0.2089 -0.3671
11459TIP3   OH255791   1.160   5.103   4.759  0.3237 -0.0866  0.6807
11459TIP3    H155792   1.237   5.086   4.813 -0.0518 -0.5505  1.0861
11459TIP3    H255793   1.189   5.168   4.695  0.9497  0.0048  1.0479
11460TIP3   OH255794   6.436   1.206  12.649  0.3975 -0.0153  0.3354
11460TIP3    H155795   6.509   1.158  12.610 -0.0013  0.2903 -0.8264
11460TIP3    H255796   6.415   1.156  12.728  0.2902 -1.5097 -0.5834
11461TIP3   OH255797   1.609   3.745   5.643 -0.7353  0.3469  0.1755
11461TIP3    H155798   1.675   3.762   5.710 -0.2135  1.4350 -0.5814
11461TIP3    H255799   1.651   3.684   5.582  0.0268  1.9118 -0.9170
11462TIP3   OH255800   4.725   0.528  13.511  0.0925  0.8314 -0.1620
11462TIP3    H155801   4.712   0.482  13.594 -0.3158 -0.9974 -1.2091
11462TIP3    H255802   4.819   0.546  13.509  0.7192 -2.0386 -0.7267
11463TIP3   OH255803   1.853   4.385  14.494  0.7381  0.1051  0.0928
11463TIP3    H155804   1.932   4.391  14.547  0.9744  1.7784 -0.3997
11463TIP3    H255805   1.821   4.475  14.488 -0.9386 -0.4639 -0.1412
11464TIP3   OH255806   2.370   4.625   4.156 -0.6440  0.1294 -0.3742
11464TIP3    H155807   2.397   4.563   4.088 -0.0465  0.2604 -0.2561
11464TIP3    H255808   2.366   4.573   4.236 -2.1381 -0.2141 -0.6351
11465TIP3   OH255809   2.628   3.783  13.174 -0.3251  0.0696 -0.3454
11465TIP3    H155810   2.636   3.793  13.269  0.9303  0.9095 -0.5151
11465TIP3    H255811   2.597   3.868  13.143  1.1734  0.4624 -0.8610
11466TIP3   OH255812   5.537   4.860   1.956  0.2669  0.4271 -0.5098
11466TIP3    H155813   5.587   4.889   1.880  3.2334 -0.4067  0.9384
11466TIP3    H255814   5.534   4.936   2.014  0.2309  0.3636 -0.4274
11467TIP3   OH255815   2.326   6.218   4.237  0.4756 -0.4090  0.1690
11467TIP3    H155816   2.283   6.152   4.182  2.1427 -1.3267 -0.0803
11467TIP3    H255817   2.275   6.218   4.318 -0.6935 -0.6074 -0.5390
11468TIP3   OH255818   1.067   5.061   1.132 -0.2046 -0.9421 -0.1771
11468TIP3    H155819   1.139   5.012   1.171  0.7666 -1.0545 -1.9869
11468TIP3    H255820   1.029   5.111   1.204  0.9782 -1.7406  1.0323
11469TIP3   OH255821   2.784   3.790  11.625 -0.0997  0.2842 -0.7078
11469TIP3    H155822   2.760   3.853  11.557  0.0966  0.4107 -0.6577
11469TIP3    H255823   2.824   3.717  11.577 -0.2063  0.2543 -0.7523
11470TIP3   OH255824   6.003   2.802  17.255 -0.2004 -0.4240  0.0530
11470TIP3    H155825   6.076   2.861  17.236  0.0953 -0.9997 -0.6304
11470TIP3    H255826   5.925   2.854  17.235  0.0583 -0.2907 -0.6209
11471TIP3   OH255827   3.139   0.576  17.152  0.5217  0.1012  0.0321
11471TIP3    H155828   3.147   0.515  17.225  3.5154  1.8102  1.3254
11471TIP3    H255829   3.161   0.525  17.075  0.6520 -0.9888  0.7725
11472TIP3   OH255830   2.401   1.954  11.463  0.2645  0.0579  0.0984
11472TIP3    H155831   2.312   1.946  11.429 -0.4091  2.3409  1.1404
11472TIP3    H255832   2.391   1.992  11.549  2.2131 -1.0822  0.9099
11473TIP3   OH255833   2.144   3.036  14.203  0.1204  0.5268  0.3815
11473TIP3    H155834   2.195   3.092  14.146 -1.1704  0.6063 -0.7470
11473TIP3    H255835   2.208   2.998  14.264  1.3790  1.1883 -0.4951
11474TIP3   OH255836   5.151   3.234  11.465  0.3165  0.1822  0.0935
11474TIP3    H155837   5.208   3.285  11.408  1.6873 -0.5882  0.7288
11474TIP3    H255838   5.146   3.148  11.423  2.2515 -0.7554  1.6143
11475TIP3   OH255839   5.265   6.186   1.650 -0.2247 -0.3990 -0.6396
11475TIP3    H155840   5.352   6.199   1.688  0.0606  0.7668 -1.6301
11475TIP3    H255841   5.276   6.204   1.557 -1.2460 -1.6301 -1.0353
11476TIP3   OH255842   3.659   1.955  12.237  0.3390 -0.0765  0.1435
11476TIP3    H155843   3.678   1.879  12.181  0.7811  0.0536  0.1158
11476TIP3    H255844   3.721   1.947  12.309 -1.4704 -1.3079  1.6647
11477TIP3   OH255845   6.117   4.387  15.236 -0.2774 -0.0367  0.4080
11477TIP3    H155846   6.141   4.331  15.162 -0.2609 -0.7723  0.9640
11477TIP3    H255847   6.201   4.416  15.273 -0.2458 -1.1547  1.2512
11478TIP3   OH255848   1.147   1.236  16.972 -0.4775  0.2154  0.1205
11478TIP3    H155849   1.220   1.276  16.924 -0.4296  1.2413  0.9944
11478TIP3    H255850   1.101   1.183  16.907  0.3390  0.5262 -0.7316
11479TIP3   OH255851   6.007   1.060   1.914 -0.7814  0.3100  0.0006
11479TIP3    H155852   5.989   1.154   1.902 -0.3491  0.3231 -0.5579
11479TIP3    H255853   5.933   1.016   1.873 -1.0602  0.4066  0.3957
11480TIP3   OH255854   2.130   1.690   2.158 -0.1624  0.4777 -0.2495
11480TIP3    H155855   2.219   1.700   2.191 -0.9895  1.1428  1.9698
11480TIP3    H255856   2.135   1.616   2.097  1.7241 -0.0660  0.4948
11481TIP3   OH255857   0.196   0.436   3.696  0.1888  0.4334 -0.1769
11481TIP3    H155858   0.148   0.375   3.752 -0.4249 -1.6238 -2.7555
11481TIP3    H255859   0.288   0.416   3.711  0.0076 -0.7089 -0.4777
11482TIP3   OH255860   5.180   4.306   4.456 -0.5935  0.3702  0.3943
11482TIP3    H155861   5.198   4.281   4.547 -0.8979 -2.7963 -0.3129
11482TIP3    H255862   5.231   4.245   4.404 -1.0425  1.6234 -1.6092
11483TIP3   OH255863   4.662   3.202   4.498 -0.2702  0.4109 -0.1926
11483TIP3    H155864   4.739   3.185   4.445 -0.5652 -0.7907 -0.2718
11483TIP3    H255865   4.592   3.152   4.456 -1.1774  1.6977 -0.2890
11484TIP3   OH255866   1.329   2.347   5.557  0.3131 -0.3491  0.0733
11484TIP3    H155867   1.250   2.389   5.524 -0.0671 -0.2762  1.0272
11484TIP3    H255868   1.322   2.256   5.530  1.7391  0.3506 -3.1092
11485TIP3   OH255869   1.666   1.442  14.579 -0.1641 -0.0106  0.0116
11485TIP3    H155870   1.673   1.357  14.534  1.3012  1.0279 -1.8503
11485TIP3    H255871   1.591   1.485  14.536 -0.3896 -0.0203  0.3885
11486TIP3   OH255872   4.516   5.237  11.126 -0.1112 -1.1079  0.0493
11486TIP3    H155873   4.437   5.258  11.177  2.1527  4.2705  2.0967
11486TIP3    H255874   4.500   5.276  11.040 -0.3224 -1.5941 -0.1341
11487TIP3   OH255875   6.635   2.411  12.066 -0.0261 -0.2077 -0.5118
11487TIP3    H155876   6.629   2.501  12.036 -2.5106  0.0974  0.6315
11487TIP3    H255877   6.653   2.418  12.160 -0.1082 -0.8927 -0.4358
11488TIP3   OH255878   2.067   2.689   5.437  0.1322 -0.0167  0.1963
11488TIP3    H155879   2.053   2.781   5.460  2.3488  0.0989  1.4187
11488TIP3    H255880   2.020   2.639   5.503  1.8706  0.3201  1.7921
11489TIP3   OH255881   5.999   2.379  13.099 -0.0479 -0.0142  0.1182
11489TIP3    H155882   6.085   2.389  13.139 -0.3932  0.1070  0.8416
11489TIP3    H255883   5.957   2.465  13.108 -0.6814 -0.3836  0.8198
11490TIP3   OH255884   2.829   1.812   6.520 -0.1281 -0.6157  0.0264
11490TIP3    H155885   2.738   1.784   6.534 -0.8449  1.1398 -0.8178
11490TIP3    H255886   2.863   1.751   6.454 -1.7598  0.5543 -2.0415
11491TIP3   OH255887   2.178   0.626  15.498 -0.1571  0.3278  0.4811
11491TIP3    H155888   2.200   0.574  15.576 -2.6303 -0.3702  0.8024
11491TIP3    H255889   2.155   0.712  15.531 -0.2473  0.3275  0.4211
11492TIP3   OH255890   4.916   1.900  13.235 -0.2203 -0.4496 -0.4529
11492TIP3    H155891   4.834   1.885  13.187 -2.7202  1.3540  2.8790
11492TIP3    H255892   4.922   1.827  13.297 -1.3876  1.2312  1.7747
11493TIP3   OH255893   5.029   4.002   3.626 -0.0250 -0.6219 -0.0294
11493TIP3    H155894   5.091   4.053   3.576 -0.4648  0.1749  0.2200
11493TIP3    H255895   5.063   3.912   3.623  0.2701 -0.4834 -1.2315
11494TIP3   OH255896   1.372   6.361  17.346 -0.2250  0.2424  0.1099
11494TIP3    H155897   1.287   6.336  17.382 -0.5134 -1.6899 -1.7117
11494TIP3    H255898   1.435   6.337  17.415 -1.0017 -0.1298  0.7008
11495TIP3   OH255899   2.908   3.528   3.657 -0.2276  0.3000 -0.0217
11495TIP3    H155900   2.898   3.534   3.562  0.4141  0.0823 -0.1066
11495TIP3    H255901   2.929   3.617   3.685 -0.6570  0.4129 -0.0508
11496TIP3   OH255902   5.805   4.886  14.409  0.1353  0.2813  0.0591
11496TIP3    H155903   5.851   4.807  14.381 -1.5794 -0.0308 -2.2034
11496TIP3    H255904   5.712   4.862  14.404 -0.3712  1.8685  1.1905
11497TIP3   OH255905   0.521   5.686   0.347  0.0100 -0.4242 -0.0666
11497TIP3    H155906   0.565   5.702   0.264 -1.2712 -0.6342 -0.8191
11497TIP3    H255907   0.428   5.678   0.323 -0.4270 -0.0715  1.4380
11498TIP3   OH255908   6.408   2.750   5.294  0.1328  0.0430  0.3130
11498TIP3    H155909   6.366   2.834   5.274 -2.9478 -1.3027  0.5599
11498TIP3    H255910   6.430   2.756   5.387  1.2366  1.0652  0.0015
11499TIP3   OH255911   3.197   1.540  15.047 -0.1605 -0.0800  1.0093
11499TIP3    H155912   3.123   1.589  15.014  1.0212  0.8805 -0.3347
11499TIP3    H255913   3.189   1.454  15.006 -0.7514 -0.1197  1.2036
11500TIP3   OH255914   0.932   2.357  16.800 -0.1888 -0.5119  0.2512
11500TIP3    H155915   0.867   2.290  16.824 -2.0860  1.2013  0.2172
11500TIP3    H255916   0.884   2.439  16.807  2.2515  0.9381  0.9828
11501TIP3   OH255917   3.097   2.561  14.101 -0.4578 -0.1511 -0.6886
11501TIP3    H155918   3.157   2.629  14.070 -0.8384  0.1944 -0.6685
11501TIP3    H255919   3.140   2.524  14.178 -1.3561  1.7251  0.8046
11502TIP3   OH255920   5.023   1.242  16.991 -0.5253 -0.0436 -0.2472
11502TIP3    H155921   5.065   1.182  16.929  0.5967  0.4437  0.0085
11502TIP3    H255922   5.089   1.255  17.059 -0.9624  1.0431 -0.0168
11503TIP3   OH255923   4.942   3.719   1.659  0.1669  0.3889  0.1020
11503TIP3    H155924   4.884   3.671   1.717  0.0108  1.6778  1.0598
11503TIP3    H255925   4.902   3.806   1.651  2.1810  1.5003  1.1960
11504TIP3   OH255926   1.374   3.914   6.383  0.7621 -0.0781 -0.2497
11504TIP3    H155927   1.410   3.834   6.421  0.1323 -0.8194 -1.1772
11504TIP3    H255928   1.395   3.982   6.447  2.7103 -0.6788 -0.1688
11505TIP3   OH255929   6.201   3.458  16.183 -0.3275  0.7953  0.1819
11505TIP3    H155930   6.270   3.461  16.116 -1.6260  0.2880 -1.2124
11505TIP3    H255931   6.247   3.427  16.262  0.5794 -2.1974 -1.3737
11506TIP3   OH255932   1.251   0.142   2.100 -0.4001 -0.3640  0.0162
11506TIP3    H155933   1.289   0.229   2.097  1.5077 -1.1103  0.8877
11506TIP3    H255934   1.189   0.140   2.027  0.9778  1.0487 -1.2640
11507TIP3   OH255935   1.583   0.101   1.991 -0.1515  0.4778  0.1362
11507TIP3    H155936   1.500   0.068   2.025  0.4675 -0.8524  0.4019
11507TIP3    H255937   1.619   0.153   2.062 -0.3060  0.2487  0.3851
11508TIP3   OH255938   4.162   3.236   1.224  0.5335  0.2580  0.0324
11508TIP3    H155939   4.146   3.273   1.310  1.2593  0.3578  0.1320
11508TIP3    H255940   4.194   3.147   1.241 -0.1620 -0.0364 -0.1670
11509TIP3   OH255941   3.862   5.684   3.185  0.2347  0.5006 -0.2740
11509TIP3    H155942   3.830   5.726   3.265 -0.2444 -0.1830 -0.0921
11509TIP3    H255943   3.930   5.623   3.215 -0.8321 -0.7126 -0.1907
11510TIP3   OH255944   1.072   5.001  11.192 -0.0965 -0.2298 -0.0018
11510TIP3    H155945   1.134   4.928  11.201 -1.1907 -1.2961 -0.8879
11510TIP3    H255946   1.103   5.049  11.115  1.8179  1.5164  1.7002
11511TIP3   OH255947   4.724   2.415   0.306 -0.0620 -0.2841 -0.2718
11511TIP3    H155948   4.715   2.439   0.398 -1.5456 -1.3758 -0.0773
11511TIP3    H255949   4.818   2.407   0.291  0.1844 -0.3974  1.2364
11512TIP3   OH255950   2.478   3.015   2.334  0.2238  0.4523 -0.1415
11512TIP3    H155951   2.542   3.033   2.264  1.9364  0.9415  1.4759
11512TIP3    H255952   2.518   2.945   2.385 -0.5903  0.6845  0.8441
11513TIP3   OH255953   0.301   4.024  12.288  0.1244 -0.4657  0.3458
11513TIP3    H155954   0.371   4.019  12.353 -1.1125  1.6762  2.0106
11513TIP3    H255955   0.230   3.971  12.324 -0.7003  1.0196  0.9971
11514TIP3   OH255956   4.365   0.600   3.776 -0.6164 -0.0400  0.1660
11514TIP3    H155957   4.365   0.624   3.683  0.3754 -1.9480 -0.3739
11514TIP3    H255958   4.301   0.659   3.816 -1.5628  0.3785 -1.8363
11515TIP3   OH255959   4.668   5.989  14.329 -0.6976  0.1882 -0.0097
11515TIP3    H155960   4.612   5.982  14.407 -2.7694  0.0131 -1.4196
11515TIP3    H255961   4.613   6.032  14.264  1.0567  0.5511 -1.3186
11516TIP3   OH255962   4.229   1.780   3.248 -0.3122  0.3114  0.2567
11516TIP3    H155963   4.323   1.777   3.230  0.1310  2.7128  1.7513
11516TIP3    H255964   4.191   1.821   3.170 -0.1314 -0.5891 -0.3183
11517TIP3   OH255965   5.931   1.895  15.855  0.1071 -0.1280 -0.2898
11517TIP3    H155966   6.013   1.944  15.851 -0.3527  0.5890 -1.0830
11517TIP3    H255967   5.864   1.958  15.831 -0.6245 -0.8659 -0.2253
11518TIP3   OH255968   4.730   3.728  14.163 -0.4003 -0.4317  0.5835
11518TIP3    H155969   4.738   3.634  14.175 -1.0470 -0.4009  1.2819
11518TIP3    H255970   4.722   3.740  14.068  1.5794 -0.9245  0.3108
11519TIP3   OH255971   3.048   6.501  15.895  0.0024  0.2323  0.1247
11519TIP3    H155972   3.006   6.567  15.951  0.1145  1.0043 -0.6776
11519TIP3    H255973   2.987   6.489  15.822  0.7812  0.7652 -0.6395
11520TIP3   OH255974   5.110   2.799   2.535  0.5507 -0.0909 -0.1896
11520TIP3    H155975   5.138   2.886   2.566 -0.4045  0.3295 -0.4832
11520TIP3    H255976   5.075   2.815   2.448 -3.0589 -0.0990  1.0937
11521TIP3   OH255977   2.459   1.172  11.378  0.2145 -0.6286 -0.1468
11521TIP3    H155978   2.453   1.265  11.355  0.3978 -0.1830  1.5257
11521TIP3    H255979   2.376   1.135  11.350 -0.4685  0.3627  0.5104
11522TIP3   OH255980   0.487   2.043  14.228  0.2018  0.4333  0.2057
11522TIP3    H155981   0.401   2.068  14.196 -0.1389  1.3077  1.7043
11522TIP3    H255982   0.535   2.014  14.150 -1.3164  0.2698 -0.6924
11523TIP3   OH255983   0.273   3.168   5.756  0.3612 -0.1063  0.5191
11523TIP3    H155984   0.235   3.236   5.701  1.5030 -0.7771 -1.1830
11523TIP3    H255985   0.345   3.211   5.801  1.5975 -0.3058 -1.1672
11524TIP3   OH255986   5.328   4.667   0.551  0.1829 -0.4597  0.4432
11524TIP3    H155987   5.239   4.675   0.584  0.7019 -1.0286  2.0748
11524TIP3    H255988   5.323   4.599   0.484 -0.7652  0.1866 -0.1728
11525TIP3   OH255989   4.548   6.145   5.713  0.1946 -0.1946  0.1311
11525TIP3    H155990   4.622   6.100   5.753  1.7862 -0.6509 -3.0751
11525TIP3    H255991   4.474   6.124   5.771  1.9738 -2.0930  1.8915
11526TIP3   OH255992   4.967   3.493   2.227 -0.3754 -0.5235 -0.0932
11526TIP3    H155993   5.020   3.424   2.186  0.0639  0.3956 -1.1244
11526TIP3    H255994   4.890   3.448   2.261  0.8679 -1.8414  1.1089
11527TIP3   OH255995   3.539   1.198   0.371 -0.6520 -0.5976  0.3342
11527TIP3    H155996   3.579   1.114   0.394  1.7095  0.7381  1.4785
11527TIP3    H255997   3.521   1.239   0.456 -2.7541 -0.3009 -0.1879
11528TIP3   OH255998   3.876   4.902  13.985 -0.7755  0.2033 -0.6687
11528TIP3    H155999   3.901   4.825  14.036 -0.4881  1.3491  0.9946
11528TIP3    H256000   3.832   4.959  14.048 -4.1685 -0.0032 -2.5731
11529TIP3   OH256001   6.053   4.407   4.367  0.5796 -0.2750  0.5166
11529TIP3    H156002   5.979   4.461   4.338  2.4195  2.6043  0.7610
11529TIP3    H256003   6.053   4.332   4.307 -0.9239  0.9910 -1.1927
11530TIP3   OH256004   1.708   4.641   1.180  0.5734  0.2876 -0.3110
11530TIP3    H156005   1.624   4.681   1.157  0.4201 -0.0638 -0.3679
11530TIP3    H256006   1.708   4.636   1.275 -0.1084 -1.0550 -0.3565
11531TIP3   OH256007   6.583   1.215   3.094  0.1295  0.0145 -0.2715
11531TIP3    H156008   6.642   1.277   3.052 -0.3424  1.6930  1.4403
11531TIP3    H256009   6.529   1.268   3.152 -1.6981 -1.7469 -0.2650
11532TIP3   OH256010   5.810   5.447  14.951 -0.2759 -0.5119 -0.2918
11532TIP3    H156011   5.845   5.391  15.020  1.7687  1.6528  0.5664
11532TIP3    H256012   5.885   5.467  14.896 -1.0365  0.9497 -0.8506
11533TIP3   OH256013   1.241   6.456   1.178 -0.2259  0.0219 -0.2956
11533TIP3    H156014   1.231   6.486   1.087 -1.6710  0.3282 -0.0609
11533TIP3    H256015   1.191   6.375   1.182 -0.1872  0.0202  0.2427
11534TIP3   OH256016   3.677   6.708   2.176  0.3888  0.2241 -0.2423
11534TIP3    H156017   3.618   6.748   2.240  0.5773  0.1851 -0.0454
11534TIP3    H256018   3.737   6.655   2.228 -0.2173 -0.7816 -0.5504
11535TIP3   OH256019   5.453   4.981  12.761 -0.0576 -0.3534  0.0115
11535TIP3    H156020   5.417   4.921  12.826  0.7246 -1.0927 -0.2235
11535TIP3    H256021   5.525   4.933  12.721  0.8598  0.9116  0.1034
11536TIP3   OH256022   2.809   0.811   4.212 -0.0627 -0.3581 -0.1684
11536TIP3    H156023   2.902   0.794   4.230 -0.4101 -0.8574  1.2277
11536TIP3    H256024   2.789   0.890   4.262 -0.9128 -1.4779  1.3302
11537TIP3   OH256025   5.133   0.498   5.001 -0.0774  0.4901  0.7238
11537TIP3    H156026   5.205   0.445   4.966 -0.2687  2.7743 -3.9273
11537TIP3    H256027   5.061   0.437   5.010  0.0444 -0.5287 -3.3052
11538TIP3   OH256028   3.695   3.294  15.728 -0.1017  0.3702 -0.2020
11538TIP3    H156029   3.733   3.362  15.784  0.7263  1.5083 -2.0558
11538TIP3    H256030   3.630   3.341  15.675  0.2024 -0.3627 -1.2420
11539TIP3   OH256031   2.636   4.448  13.093  0.2482  0.7164  0.3358
11539TIP3    H156032   2.675   4.362  13.112  0.0374  0.0413 -1.9604
11539TIP3    H256033   2.708   4.499  13.055  0.3949  1.6334  1.7675
11540TIP3   OH256034   3.756   1.271   1.425 -0.3517 -0.0327 -0.2474
11540TIP3    H156035   3.769   1.345   1.484  1.5808  0.7813 -1.5783
11540TIP3    H256036   3.787   1.195   1.475  0.9372  0.5875 -0.0627
11541TIP3   OH256037   5.903   6.164  10.899  0.2801 -0.1599  0.4805
11541TIP3    H156038   5.935   6.208  10.978  0.7621  0.1096  0.1404
11541TIP3    H256039   5.926   6.223  10.827  0.9204 -0.9604  0.0165
11542TIP3   OH256040   3.837   1.793  13.025  0.1574  0.1391 -0.8478
11542TIP3    H156041   3.742   1.803  13.029  0.1829  0.1013  0.1274
11542TIP3    H256042   3.851   1.698  13.026  0.2561  0.1278  1.4518
11543TIP3   OH256043   1.732   6.172  17.338  0.0024  0.5219  0.1283
11543TIP3    H156044   1.806   6.157  17.279 -0.6320  0.3163 -0.6394
11543TIP3    H256045   1.764   6.235  17.402  0.9054  0.2712 -0.0633
11544TIP3   OH256046   1.540   3.271  15.426 -0.2604  0.0642 -0.0900
11544TIP3    H156047   1.462   3.269  15.480 -0.9364 -1.0826 -1.0373
11544TIP3    H256048   1.613   3.271  15.488 -1.0053  0.3929  0.8016
11545TIP3   OH256049   1.873   0.137   1.352  0.0305  0.4107 -0.0234
11545TIP3    H156050   1.902   0.179   1.433 -1.0779 -0.4969  0.8843
11545TIP3    H256051   1.810   0.198   1.314  0.1962  0.6291  0.0536
11546TIP3   OH256052   3.055   5.660  14.739 -0.1235 -0.2338  0.4058
11546TIP3    H156053   3.046   5.603  14.815  1.5508 -0.6658  0.3238
11546TIP3    H256054   3.003   5.619  14.671 -0.7467 -0.4312  0.9859
11547TIP3   OH256055   4.987   6.415   3.234  0.2554 -0.0041 -0.3796
11547TIP3    H156056   5.037   6.386   3.311  0.3205 -1.0295 -0.7985
11547TIP3    H256057   5.047   6.401   3.161 -0.3859 -0.5643 -0.8034
11548TIP3   OH256058   6.213   0.920  14.688  0.2903  0.3345 -0.0678
11548TIP3    H156059   6.167   0.858  14.745 -0.7947  0.6927 -0.5250
11548TIP3    H256060   6.297   0.934  14.730 -0.1837 -0.0174  1.0251
11549TIP3   OH256061   1.757   0.471   5.764 -0.3587  0.1246 -1.2266
11549TIP3    H156062   1.809   0.505   5.691 -1.5094 -0.5095 -2.3781
11549TIP3    H256063   1.730   0.549   5.812  1.4293  0.4777 -0.7246
11550TIP3   OH256064   1.479   4.684   3.365 -0.4213 -0.5457  0.1977
11550TIP3    H156065   1.467   4.596   3.330  0.9031 -0.9569  0.7172
11550TIP3    H256066   1.558   4.678   3.418  0.2160  1.1645 -0.4831
11551TIP3   OH256067   4.502   0.623   2.661  0.2426  0.1721  0.0995
11551TIP3    H156068   4.420   0.655   2.698  0.3172 -0.3109  0.6949
11551TIP3    H256069   4.555   0.702   2.647 -0.2594  0.4686 -0.1420
11552TIP3   OH256070   4.268   6.419  14.106 -0.6801 -0.4522  0.0730
11552TIP3    H156071   4.238   6.477  14.177 -1.7702 -2.0982  1.0385
11552TIP3    H256072   4.220   6.449  14.029  0.8556  1.6582 -0.1305
11553TIP3   OH256073   0.323   5.816  14.636  0.2566 -0.3342  0.1711
11553TIP3    H156074   0.370   5.895  14.610 -0.3599 -0.2010 -0.5674
11553TIP3    H256075   0.366   5.788  14.717 -0.3701  1.5149  1.1934
11554TIP3   OH256076   4.896   1.939  11.144  0.0148  0.0744  0.5879
11554TIP3    H156077   4.840   1.882  11.092 -1.0112  1.0355  0.6115
11554TIP3    H256078   4.935   1.881  11.210 -2.5576 -0.2769  1.8930
11555TIP3   OH256079   3.724   5.251  15.043 -0.2914  0.0958 -0.1111
11555TIP3    H156080   3.751   5.175  14.993 -0.9274 -0.0699 -0.2141
11555TIP3    H256081   3.804   5.302  15.055  0.0424 -0.3365 -0.4710
11556TIP3   OH256082   3.290   0.384   2.759 -0.1993 -0.4746 -0.2369
11556TIP3    H156083   3.289   0.366   2.853 -0.5031 -1.5657 -0.4398
11556TIP3    H256084   3.284   0.480   2.754 -3.2273 -0.5196  0.8083
11557TIP3   OH256085   3.406   6.558  15.549  0.1253  0.7902 -0.5472
11557TIP3    H156086   3.450   6.488  15.597  1.0379  1.5208 -0.2933
11557TIP3    H256087   3.334   6.514  15.504  0.2995 -0.2003  0.1064
11558TIP3   OH256088   1.934   4.904  12.833  0.2842  0.5814  0.1009
11558TIP3    H156089   1.900   4.835  12.889 -1.6407  0.8673 -0.6321
11558TIP3    H256090   1.911   4.877  12.744  4.7535 -0.7314 -0.9308
11559TIP3   OH256091   4.431   6.466   1.245 -0.9243  0.2849  0.0421
11559TIP3    H156092   4.479   6.439   1.324  1.0624 -0.0430 -1.1963
11559TIP3    H256093   4.399   6.554   1.267  1.9247  1.3792  0.3652
11560TIP3   OH256094   2.626   4.081  14.098 -0.0318  0.0328  0.3393
11560TIP3    H156095   2.561   4.143  14.066  0.2771  0.4181  0.4443
11560TIP3    H256096   2.633   4.016  14.029 -1.7005 -0.9172  1.0123
11561TIP3   OH256097   1.570   2.105   6.137 -0.8203 -0.3910 -0.1735
11561TIP3    H156098   1.550   2.083   6.229 -1.3481  0.1936 -0.1425
11561TIP3    H256099   1.618   2.187   6.143  0.8471 -1.3143 -0.3122
11562TIP3   OH256100   0.326   4.360  10.789  0.1471  0.1356  0.2904
11562TIP3    H156101   0.363   4.435  10.742  1.2101 -1.2145 -1.1234
11562TIP3    H256102   0.249   4.335  10.738 -0.0668  0.1032  0.6239
11563TIP3   OH256103   2.129   1.096   0.666  0.1296  0.2535 -0.7443
11563TIP3    H156104   2.170   1.125   0.748 -0.3643 -1.2352  0.0552
11563TIP3    H256105   2.200   1.100   0.601  1.8374 -2.9134  0.7333
11564TIP3   OH256106   3.232   2.593  12.571  0.1745 -0.4088  0.1518
11564TIP3    H156107   3.281   2.591  12.653 -0.2978  0.1561  0.4634
11564TIP3    H256108   3.289   2.640  12.510 -0.0790  0.4881  0.5889
11565TIP3   OH256109   4.047   5.852   3.051 -0.3174  0.2023 -0.4779
11565TIP3    H156110   4.076   5.892   3.132 -0.9494  1.2614 -0.7604
11565TIP3    H256111   4.022   5.763   3.076  1.0797 -0.0473  0.1578
11566TIP3   OH256112   5.063   3.088  16.329 -0.1875  0.0223  0.0854
11566TIP3    H156113   5.008   3.018  16.296  0.8990 -0.3805 -0.9379
11566TIP3    H256114   5.123   3.045  16.390  0.2651  0.1113 -0.2903
11567TIP3   OH256115   6.323   1.374   3.590 -0.0964  0.2749 -0.5553
11567TIP3    H156116   6.274   1.325   3.656  2.5146 -2.1390 -0.2520
11567TIP3    H256117   6.303   1.466   3.610 -1.7116 -0.4651  1.6885
11568TIP3   OH256118   5.562   1.475  12.319  0.0054 -0.1726  0.5553
11568TIP3    H156119   5.561   1.384  12.291 -0.0826  0.0991 -0.3562
11568TIP3    H256120   5.631   1.516  12.266 -1.3058  0.7287 -0.5302
11569TIP3   OH256121   1.295   5.905   1.291  0.3356 -0.0470  0.2830
11569TIP3    H156122   1.376   5.894   1.342  0.1223  0.4756  0.7545
11569TIP3    H256123   1.234   5.841   1.328  0.7381 -0.9056 -0.5229
11570TIP3   OH256124   4.664   0.302  14.052  0.6165 -0.2136  1.2665
11570TIP3    H156125   4.669   0.229  13.990  0.4395  2.1188 -1.7358
11570TIP3    H256126   4.755   0.324  14.070  0.8124  1.5097 -1.3999
11571TIP3   OH256127   2.129   1.418   4.259  0.2939 -0.2545 -0.2333
11571TIP3    H156128   2.070   1.379   4.324  0.4324 -1.1512 -0.6229
11571TIP3    H256129   2.088   1.500   4.235  0.3590  0.2185  1.1685
11572TIP3   OH256130   0.475   4.683  11.961  0.4478 -0.0500  0.0651
11572TIP3    H156131   0.562   4.709  11.992  0.7144  0.5590 -1.1445
11572TIP3    H256132   0.416   4.749  11.998  0.7158  0.4630 -0.4072
11573TIP3   OH256133   6.196   6.507  14.793  0.0528 -0.2969  0.1223
11573TIP3    H156134   6.220   6.424  14.751  1.1168  0.2505 -0.3959
11573TIP3    H256135   6.118   6.487  14.844  1.7375 -2.2744  2.1378
11574TIP3   OH256136   1.252   4.954   5.125 -0.2100  0.4145 -0.0427
11574TIP3    H156137   1.307   4.885   5.163  0.1157  0.6843 -0.0136
11574TIP3    H256138   1.267   4.946   5.031 -2.5492 -1.5599 -0.3498
11575TIP3   OH256139   5.652   4.939   0.717 -0.6150  0.2387 -0.0556
11575TIP3    H156140   5.712   4.905   0.783 -1.4894  0.1203  0.7038
11575TIP3    H256141   5.645   5.032   0.737 -0.7237  0.2409 -0.1018
11576TIP3   OH256142   3.866   1.164   1.085  0.5730  0.2050  0.4035
11576TIP3    H156143   3.939   1.173   1.146  0.4270  0.3181  0.5592
11576TIP3    H256144   3.901   1.200   1.002  1.0337 -0.6716  0.2034
11577TIP3   OH256145   4.151   3.140   6.406  0.2904 -0.3669  0.0073
11577TIP3    H156146   4.105   3.094   6.335 -2.1685 -1.2988  2.0247
11577TIP3    H256147   4.219   3.080   6.433  2.2213  0.5830 -2.3522
11578TIP3   OH256148   1.750   3.081  15.814 -0.0433 -0.0143 -0.0809
11578TIP3    H156149   1.707   3.027  15.881  1.3238 -1.3539 -0.2285
11578TIP3    H256150   1.785   3.156  15.863 -2.9411  1.4736 -0.0413
11579TIP3   OH256151   5.924   5.268  15.977 -0.2929  0.4551 -0.5105
11579TIP3    H156152   5.996   5.269  15.913  0.8083  2.9635  0.6232
11579TIP3    H256153   5.962   5.306  16.056 -2.6343  1.0538  0.4155
11580TIP3   OH256154   6.400   2.855  15.721  0.0870 -0.1012 -0.2118
11580TIP3    H156155   6.484   2.892  15.694 -0.4106 -0.3077 -2.2144
11580TIP3    H256156   6.420   2.767  15.751  0.7721  0.4032  0.8691
11581TIP3   OH256157   4.095   5.277  17.028  0.1668  0.1166  0.5957
11581TIP3    H156158   4.045   5.348  16.987  1.2239  0.6993  0.2597
11581TIP3    H256159   4.041   5.199  17.015  0.0862  0.4251 -1.2123
11582TIP3   OH256160   3.210   3.793   4.536 -0.2298 -0.4100  0.0567
11582TIP3    H156161   3.232   3.742   4.614  1.8954 -0.4533 -0.4931
11582TIP3    H256162   3.168   3.730   4.478 -0.6570 -0.6969  0.6645
11583TIP3   OH256163   3.217   3.398  17.311 -0.2469  0.1390  0.1129
11583TIP3    H156164   3.136   3.448  17.316  1.3218  2.8709  0.3465
11583TIP3    H256165   3.256   3.406  17.398 -0.4146 -2.5475  0.5240
11584TIP3   OH256166   5.993   5.458  11.544  0.5955 -0.0486  0.5100
11584TIP3    H156167   5.899   5.475  11.546  0.1959 -2.0558  0.8300
11584TIP3    H256168   6.011   5.412  11.626  1.5149 -1.2968 -0.3571
11585TIP3   OH256169   5.156   4.170  15.016 -0.0357  0.2061 -0.3813
11585TIP3    H156170   5.091   4.131  15.075 -0.9900  1.1123 -0.7985
11585TIP3    H256171   5.106   4.197  14.940  0.9611  0.2992 -1.0217
11586TIP3   OH256172   1.118   3.795   3.612 -0.4350  0.3833  0.1225
11586TIP3    H156173   1.110   3.789   3.707 -2.9069  0.5961 -0.0050
11586TIP3    H256174   1.043   3.848   3.585 -0.3733 -0.5097 -2.0198
11587TIP3   OH256175   6.227   3.432  16.743 -0.5185  0.6800  0.7134
11587TIP3    H156176   6.153   3.468  16.792  0.3066  0.1661  2.3837
11587TIP3    H256177   6.288   3.506  16.733 -2.0814  1.7319 -2.5818
11588TIP3   OH256178   4.300   1.998  16.492  0.0300  0.2669 -0.1309
11588TIP3    H156179   4.325   2.002  16.584 -1.1212  1.9216  0.1522
11588TIP3    H256180   4.214   1.955  16.492  0.2109 -0.1102 -0.4910
11589TIP3   OH256181   4.603   2.330  12.760  0.1111  0.2911 -0.2498
11589TIP3    H156182   4.577   2.278  12.684  1.9057 -0.3658 -0.4693
11589TIP3    H256183   4.699   2.326  12.760  0.1914  1.3151  1.3397
11590TIP3   OH256184   4.637   0.550  15.522  0.3873 -0.5294 -0.2437
11590TIP3    H156185   4.645   0.502  15.439  1.5095  0.0218 -0.4789
11590TIP3    H256186   4.547   0.583  15.522  0.4963 -0.1804 -1.4604
11591TIP3   OH256187   3.898   6.479  16.298  0.3234  0.5197 -0.4356
11591TIP3    H156188   3.943   6.468  16.383  2.3399  1.0499 -1.3589
11591TIP3    H256189   3.816   6.431  16.308  0.5940  0.3880  1.7439
11592TIP3   OH256190   2.599   4.015  16.131  0.2146  0.1729 -0.0249
11592TIP3    H156191   2.551   4.054  16.204  1.0668 -1.7413  1.6737
11592TIP3    H256192   2.562   3.928  16.122  1.8814 -0.5811 -0.0786
11593TIP3   OH256193   3.868   0.074  14.168 -0.1929  0.4566 -0.2619
11593TIP3    H156194   3.823  -0.010  14.158 -0.8273  0.6554  0.7552
11593TIP3    H256195   3.868   0.111  14.080  1.0794 -1.0786 -0.9534
11594TIP3   OH256196   1.599   5.190   2.639 -0.2359  0.0332  0.2420
11594TIP3    H156197   1.510   5.207   2.611 -0.0415  0.4790 -0.1136
11594TIP3    H256198   1.615   5.252   2.710  0.7432  2.0032 -1.5840
11595TIP3   OH256199   0.050   6.097  12.207 -0.4181 -0.0370  0.6939
11595TIP3    H156200  -0.041   6.120  12.191 -0.1212 -0.0253 -1.2094
11595TIP3    H256201   0.084   6.168  12.261 -1.2049  0.6412  0.3191
11596TIP3   OH256202   6.423   6.540   2.415  0.2218 -0.7673 -0.3847
11596TIP3    H156203   6.372   6.468   2.378 -1.1641 -0.1857  0.3085
11596TIP3    H256204   6.466   6.503   2.491  0.7388 -1.2275 -0.8921
11597TIP3   OH256205   0.564   1.635   6.062  0.1487  0.1530  0.0941
11597TIP3    H156206   0.639   1.578   6.046  0.3899  0.2781  0.7506
11597TIP3    H256207   0.576   1.666   6.152  0.1352  1.3917 -0.3057
11598TIP3   OH256208   3.590   2.489   3.599 -0.2384  0.4810 -0.3025
11598TIP3    H156209   3.518   2.552   3.596  0.9636  1.8358 -2.1404
11598TIP3    H256210   3.621   2.483   3.509  1.6352 -0.4433  0.3600
11599TIP3   OH256211   1.947   1.942  13.345 -0.3474 -0.3255 -0.0460
11599TIP3    H156212   1.997   2.018  13.314  1.1732 -1.1297  0.3563
11599TIP3    H256213   1.968   1.937  13.439 -0.7081 -1.0305  0.0024
11600TIP3   OH256214   4.887   3.681   0.122 -0.4135  0.2543 -0.4723
11600TIP3    H156215   4.906   3.697   0.215  0.2857 -0.2359 -0.5146
11600TIP3    H256216   4.793   3.691   0.114 -0.8111 -1.8416  0.7578
11601TIP3   OH256217   1.396   5.861   1.943  0.0318 -0.1350  0.1216
11601TIP3    H156218   1.489   5.837   1.934  0.4026  1.0698  0.5031
11601TIP3    H256219   1.386   5.938   1.887 -0.5799  0.1403  0.6068
11602TIP3   OH256220   6.510   4.070  11.526 -0.3383  0.3605 -0.1431
11602TIP3    H156221   6.542   4.097  11.612 -0.8433 -0.7542  0.4247
11602TIP3    H256222   6.494   4.152  11.479  1.6202  0.9679  0.1712
11603TIP3   OH256223   5.717   2.043   2.596 -0.3306 -0.2815 -0.3655
11603TIP3    H156224   5.734   2.091   2.677 -1.5978  0.2273 -0.3756
11603TIP3    H256225   5.702   1.953   2.625  0.4939 -0.3683 -0.1808
11604TIP3   OH256226   2.418   4.424   3.975  0.0527  0.1011  0.0494
11604TIP3    H156227   2.375   4.350   4.018 -2.2495  0.4039 -1.5426
11604TIP3    H256228   2.428   4.396   3.884 -2.7587  2.3745 -1.1016
11605TIP3   OH256229   5.785   4.836   4.154 -0.5217 -0.0246  0.8079
11605TIP3    H156230   5.698   4.825   4.193 -0.5616 -2.4090  0.2393
11605TIP3    H256231   5.768   4.857   4.063 -0.5033  0.0668  0.8259
11606TIP3   OH256232   4.400   5.815  16.851  0.3240  0.3265 -0.3165
11606TIP3    H156233   4.345   5.804  16.774 -0.9380  0.6866  0.4981
11606TIP3    H256234   4.350   5.774  16.922  0.2885  2.1260  0.7609
11607TIP3   OH256235   4.165   5.364   1.930  0.0822 -0.8335 -0.1511
11607TIP3    H156236   4.233   5.315   1.975  0.2881 -0.0420  0.4268
11607TIP3    H256237   4.196   5.454   1.929 -0.6730 -0.5613 -0.4272
11608TIP3   OH256238   2.310   0.609  15.812  0.1125  0.6051  0.4194
11608TIP3    H156239   2.226   0.653  15.824 -0.6942  0.0953 -2.5004
11608TIP3    H256240   2.299   0.524  15.854 -1.1130  0.2968 -0.4601
11609TIP3   OH256241   1.485   3.641  15.657  0.2346 -0.2487 -0.3486
11609TIP3    H156242   1.408   3.697  15.673 -1.2085 -2.4252  0.7865
11609TIP3    H256243   1.542   3.657  15.732  0.3960  0.5547 -0.6329
11610TIP3   OH256244   2.463   3.290   3.817  0.2251  0.4896  0.3397
11610TIP3    H156245   2.458   3.212   3.762 -0.2929 -0.5859  1.8580
11610TIP3    H256246   2.524   3.348   3.770 -0.4681 -0.2084 -1.5293
11611TIP3   OH256247   4.710   0.313  13.704 -0.2319  0.0242 -0.0364
11611TIP3    H156248   4.794   0.267  13.704 -0.5885 -0.6417  0.4755
11611TIP3    H256249   4.649   0.253  13.661 -0.6528  0.1066  0.4402
11612TIP3   OH256250   4.707   0.804   0.408 -0.0969  0.2526 -0.2405
11612TIP3    H156251   4.743   0.758   0.331  1.5435  1.3951 -0.2008
11612TIP3    H256252   4.756   0.886   0.412  0.5146 -0.1486  2.5416
11613TIP3   OH256253   4.346   6.425   2.200  0.4121  0.0817 -0.0439
11613TIP3    H156254   4.308   6.373   2.270  0.4979 -1.0299 -0.7981
11613TIP3    H256255   4.432   6.450   2.232  0.0405  0.4798  0.6619
11614TIP3   OH256256   0.449   2.448   5.087  0.1879 -0.1572  0.2572
11614TIP3    H156257   0.425   2.358   5.066  1.0250 -0.9486  2.3893
11614TIP3    H256258   0.366   2.494   5.096 -0.2741 -0.9189 -0.0688
11615TIP3   OH256259   0.670   2.128   4.003 -0.7080 -0.0691 -0.0791
11615TIP3    H156260   0.607   2.107   4.071 -0.9465  1.0055  0.0486
11615TIP3    H256261   0.672   2.224   4.000  2.4030  0.0386  1.3319
11616TIP3   OH256262   0.264   3.492  15.762  0.5535 -0.1037 -0.2746
11616TIP3    H156263   0.243   3.432  15.690 -0.3470  1.3415 -1.2802
11616TIP3    H256264   0.359   3.488  15.770  0.5206 -1.5874 -0.3548
11617TIP3   OH256265   3.808   0.861   4.366 -0.3841 -0.0423 -0.3311
11617TIP3    H156266   3.853   0.823   4.441 -0.3791  2.1905  0.8817
11617TIP3    H256267   3.878   0.901   4.314 -0.4220 -1.3238 -1.4363
11618TIP3   OH256268   1.949   1.454  16.309 -0.3949 -0.2176  0.1050
11618TIP3    H156269   1.969   1.393  16.238 -3.0050 -0.1817 -0.7569
11618TIP3    H256270   1.907   1.528  16.267  0.3926  1.0423  1.4432
11619TIP3   OH256271   5.930   6.636   3.484  0.0846 -0.1226 -0.3757
11619TIP3    H156272   6.013   6.609   3.523 -0.2884  0.0766  0.5987
11619TIP3    H256273   5.864   6.587   3.533 -0.5120  1.4872  0.5325
11620TIP3   OH256274   1.870   1.979  15.184  0.0849 -0.1489 -0.0969
11620TIP3    H156275   1.904   1.983  15.095 -0.7616  0.4400 -0.4027
11620TIP3    H256276   1.778   1.952  15.174 -0.5316  1.5929  0.4460
11621TIP3   OH256277   2.702   0.071   4.314  0.3057  0.4666 -0.2304
11621TIP3    H156278   2.659   0.141   4.362 -0.2028 -0.5116  0.7843
11621TIP3    H256279   2.637   0.001   4.309  1.1987 -0.3947 -0.1535
11622TIP3   OH256280   4.732   6.367   3.388  0.1550 -0.0506 -0.0852
11622TIP3    H156281   4.799   6.406   3.333  0.8968 -0.4794  0.5012
11622TIP3    H256282   4.754   6.273   3.390 -0.2162 -0.1293  0.4459
11623TIP3   OH256283   1.506   6.446   1.346 -0.1843 -0.2406  0.0819
11623TIP3    H156284   1.427   6.415   1.302 -0.5719  0.3159  0.3782
11623TIP3    H256285   1.477   6.520   1.399  0.5492  0.0240  0.1276
11624TIP3   OH256286   2.289   3.086   6.323  0.1870  0.4594  0.4075
11624TIP3    H156287   2.275   3.178   6.304  0.0621 -0.1870 -3.1924
11624TIP3    H256288   2.204   3.054   6.352 -0.8203  0.7432 -2.0477
11625TIP3   OH256289   0.433   4.372   2.249  0.1886 -0.3024 -0.1872
11625TIP3    H156290   0.519   4.393   2.285  0.2347 -0.0005 -0.4748
11625TIP3    H256291   0.424   4.278   2.263  0.4070 -0.2710  0.1811
11626TIP3   OH256292   1.393   6.131   1.201  0.2548 -0.3499  0.5033
11626TIP3    H156293   1.387   6.159   1.292 -2.8120  1.1449 -0.0374
11626TIP3    H256294   1.346   6.048   1.199 -3.3559  1.5194 -0.2503
11627TIP3   OH256295   4.027   1.882   1.860 -0.1625 -0.6359 -0.1292
11627TIP3    H156296   3.992   1.800   1.896  0.3779 -0.9044 -0.2070
11627TIP3    H256297   3.950   1.928   1.828 -0.3424 -1.8132 -1.5098
11628TIP3   OH256298   4.361   0.610   6.801 -0.4636  0.3780  0.1765
11628TIP3    H156299   4.413   0.599   6.722 -0.4158  0.4357  0.2002
11628TIP3    H256300   4.411   0.568   6.870 -0.0434  1.1569  0.3640
11629TIP3   OH256301   5.867   1.559   2.010 -0.7021 -0.2246 -0.7503
11629TIP3    H156302   5.909   1.480   2.045  0.0060  0.9473  1.1821
11629TIP3    H256303   5.861   1.543   1.916  2.9083 -1.0582 -1.0055
11630TIP3   OH256304   6.375   6.615  12.327  0.2391  0.2615  0.0806
11630TIP3    H156305   6.281   6.627  12.339  0.0165 -0.3758 -0.9413
11630TIP3    H256306   6.390   6.637  12.235  0.9568 -0.4469  0.0217
11631TIP3   OH256307   6.228   6.170  11.514  0.0903  0.4578 -0.1616
11631TIP3    H156308   6.142   6.144  11.481  0.4805  1.3881 -2.0919
11631TIP3    H256309   6.288   6.154  11.441  1.3229  1.1206  0.6601
11632TIP3   OH256310   0.724   3.494  13.615 -0.5809 -0.3623 -0.1019
11632TIP3    H156311   0.648   3.483  13.559 -0.3684  0.8369 -0.6628
11632TIP3    H256312   0.698   3.560  13.680  0.6322  1.7746 -1.6563
11633TIP3   OH256313   6.059   4.626   5.096 -0.0426 -0.3280 -0.0696
11633TIP3    H156314   6.042   4.652   5.006 -0.9676 -0.1375  0.1473
11633TIP3    H256315   5.982   4.574   5.121 -1.2523  2.0407  1.5361
11634TIP3   OH256316   3.138   1.268  14.193 -0.2860 -0.2324 -0.3873
11634TIP3    H156317   3.223   1.236  14.162 -0.0381 -1.3467  1.2615
11634TIP3    H256318   3.158   1.352  14.235 -0.0044 -0.4224 -0.1331
11635TIP3   OH256319   1.587   6.507   1.619 -0.1438 -0.1129 -0.2163
11635TIP3    H156320   1.497   6.519   1.648 -0.9757 -2.3383 -1.6604
11635TIP3    H256321   1.618   6.595   1.600 -1.5935  0.8091  1.4042
11636TIP3   OH256322   3.109   2.569  11.477  0.5493 -0.5380 -0.0184
11636TIP3    H156323   3.160   2.632  11.426  0.1561 -0.8178 -0.7739
11636TIP3    H256324   3.169   2.540  11.545 -0.2018  3.0321  2.4258
11637TIP3   OH256325   2.711   3.691   5.205 -0.2635 -0.3601  0.1485
11637TIP3    H156326   2.635   3.651   5.162  0.7350 -2.5620  0.3239
11637TIP3    H256327   2.681   3.779   5.227 -1.8838 -0.2340 -2.1322
11638TIP3   OH256328   5.668   0.630  14.454  0.3741  0.4623  0.5261
11638TIP3    H156329   5.574   0.650  14.460 -0.1759 -1.8769  0.8018
11638TIP3    H256330   5.698   0.679  14.377 -1.4484  0.0097 -0.5328
11639TIP3   OH256331   1.668   6.168   5.865  0.1207  0.3891  0.2305
11639TIP3    H156332   1.697   6.234   5.802 -0.7480 -0.1004 -0.7121
11639TIP3    H256333   1.630   6.219   5.936  1.0477  0.9510  0.3456
11640TIP3   OH256334   0.141   3.271  14.427 -0.1406  0.2281  0.2171
11640TIP3    H156335   0.178   3.359  14.420 -0.9965  0.9393  3.3063
11640TIP3    H256336   0.218   3.215  14.439  0.4739  0.3309 -2.4674
11641TIP3   OH256337   2.851   1.246  15.914 -0.2199 -0.3628 -0.4027
11641TIP3    H156338   2.800   1.261  15.835 -0.4274  0.0014 -0.2060
11641TIP3    H256339   2.792   1.200  15.973 -0.6288  0.8410  0.1544
11642TIP3   OH256340   0.862   0.290  14.458  0.5308 -0.2519  0.4269
11642TIP3    H156341   0.869   0.377  14.498  0.8556  0.2769 -0.7558
11642TIP3    H256342   0.953   0.264  14.441  0.3994 -0.5144  0.1182
11643TIP3   OH256343   5.147   2.482  16.290  0.5810 -0.3873 -0.0091
11643TIP3    H156344   5.213   2.432  16.242  2.3496  0.8466  0.9939
11643TIP3    H256345   5.083   2.508  16.224  2.3280  0.2997 -1.5226
11644TIP3   OH256346   2.572   6.732   2.868 -0.2716 -0.0894  0.1131
11644TIP3    H156347   2.624   6.679   2.808 -1.0213 -0.8835  0.1375
11644TIP3    H256348   2.533   6.668   2.928 -1.7980  0.3845 -0.3261
11645TIP3   OH256349   5.160   3.434   0.439 -0.9461  0.7533 -0.2434
11645TIP3    H156350   5.160   3.463   0.347  0.5562  0.7959 -0.2423
11645TIP3    H256351   5.164   3.515   0.489  0.5012  0.6777 -0.1976
11646TIP3   OH256352   3.715   4.823   4.052 -0.3929  0.4228  0.7351
11646TIP3    H156353   3.809   4.835   4.047 -0.2715 -0.7400 -0.6562
11646TIP3    H256354   3.703   4.753   4.117 -0.0904 -0.9049 -0.5737
11647TIP3   OH256355   2.231   6.149   1.805  0.5373 -0.2304  0.3456
11647TIP3    H156356   2.252   6.058   1.784  1.9439  0.0514  0.4390
11647TIP3    H256357   2.213   6.189   1.720 -0.7892 -0.7319  0.3594
11648TIP3   OH256358   5.257   3.083   0.890 -0.0923  0.1889  0.3211
11648TIP3    H156359   5.227   3.169   0.919 -0.1241 -0.4705  2.4032
11648TIP3    H256360   5.179   3.028   0.892 -0.3789  0.3888 -2.3934
11649TIP3   OH256361   0.061   2.407   2.684 -0.3315 -0.2543 -0.2862
11649TIP3    H156362   0.035   2.465   2.756  1.9301  0.5447 -0.0291
11649TIP3    H256363  -0.009   2.342   2.679 -1.8380  1.1850  0.9086
11650TIP3   OH256364   4.261   6.360  12.133 -0.4484 -0.4936 -0.1727
11650TIP3    H156365   4.179   6.321  12.165  0.3570 -1.8031  0.3736
11650TIP3    H256366   4.255   6.353  12.038 -0.5545 -1.4821 -0.1033
11651TIP3   OH256367   1.960   5.722  15.501 -0.3945  0.9890 -0.3052
11651TIP3    H156368   1.947   5.754  15.412 -1.9216 -0.0360 -0.4900
11651TIP3    H256369   2.040   5.669  15.496 -1.6205 -0.8374 -1.6170
11652TIP3   OH256370   2.438   0.435  12.371 -0.5134 -0.0690  0.6029
11652TIP3    H156371   2.460   0.496  12.441 -1.7209  0.9416  0.1470
11652TIP3    H256372   2.367   0.478  12.323  1.2433 -0.0381 -2.1705
11653TIP3   OH256373   4.117   5.356  16.640 -0.3186 -0.6229  0.0930
11653TIP3    H156374   4.196   5.306  16.660  0.6623  1.2368  1.1499
11653TIP3    H256375   4.124   5.376  16.547 -0.7170 -2.3419 -0.3446
11654TIP3   OH256376   5.752   5.499  11.675  0.7017  0.0076 -0.1349
11654TIP3    H156377   5.671   5.530  11.634  0.9185 -0.2161 -0.7446
11654TIP3    H256378   5.751   5.537  11.763  0.4701  0.9048 -0.5160
11655TIP3   OH256379   4.003   3.038  16.008  0.2443 -0.3397  0.1478
11655TIP3    H156380   4.008   2.943  16.021 -0.2334 -0.2849  0.7800
11655TIP3    H256381   3.910   3.055  15.997  0.4976 -0.2238 -2.3061
11656TIP3   OH256382   0.316   3.512  14.427 -0.1686 -0.2007 -0.3167
11656TIP3    H156383   0.233   3.557  14.412  0.4328  1.4428  0.8689
11656TIP3    H256384   0.379   3.560  14.374  0.2272 -0.6320 -0.2394
11657TIP3   OH256385   6.471   3.311  15.831  0.3456  0.1717  0.0799
11657TIP3    H156386   6.438   3.386  15.880 -2.4881 -1.8488  1.5074
11657TIP3    H256387   6.523   3.262  15.895  2.0878  0.7719 -0.8137
11658TIP3   OH256388   5.817   4.207   3.823  0.5464  0.6300  0.4112
11658TIP3    H156389   5.819   4.126   3.872 -1.0181  1.5578  2.1692
11658TIP3    H256390   5.874   4.267   3.871 -0.9952  1.5493  1.1837
11659TIP3   OH256391   2.236   0.522  12.217  0.0654  0.3778  0.2716
11659TIP3    H156392   2.143   0.534  12.236 -0.8554  0.1548 -3.2738
11659TIP3    H256393   2.261   0.599  12.167  1.4397 -0.1650  0.0731
11660TIP3   OH256394   4.157   4.023   0.731 -0.0796 -0.0626  0.5334
11660TIP3    H156395   4.158   3.960   0.804 -0.5767  0.9745  1.4652
11660TIP3    H256396   4.195   3.975   0.658 -0.1802 -1.3570  1.2945
11661TIP3   OH256397   6.288   0.071  11.714  0.2388  0.3090 -0.6448
11661TIP3    H156398   6.251   0.067  11.625 -0.1047  2.2047 -0.6381
11661TIP3    H256399   6.371   0.025  11.708 -1.2438 -2.5138 -1.1087
11662TIP3   OH256400   4.106   0.271  10.982 -0.1897 -0.6537 -0.0912
11662TIP3    H156401   4.103   0.354  11.029 -1.5852 -0.7243 -0.0194
11662TIP3    H256402   4.065   0.208  11.042  0.5879 -1.3325 -0.2632
11663TIP3   OH256403   4.662   0.648   4.390  0.2309 -0.2715 -0.2895
11663TIP3    H156404   4.597   0.685   4.330 -1.6435 -2.4899  0.2490
11663TIP3    H256405   4.729   0.612   4.332 -0.4220 -0.4060 -0.9849
11664TIP3   OH256406   4.987   2.925   1.971 -0.4849  0.5698  0.5186
11664TIP3    H156407   4.915   2.872   1.937  0.8367 -0.6209 -0.5279
11664TIP3    H256408   5.059   2.912   1.909  1.0467  0.7194  2.1689
11665TIP3   OH256409   0.067   0.631   1.747  1.0768  0.0625 -0.0691
11665TIP3    H156410   0.126   0.581   1.691 -0.6924 -1.0175 -1.0458
11665TIP3    H256411   0.111   0.716   1.758  1.9832 -0.0706 -2.2112
11666TIP3   OH256412   4.825   5.136   0.415 -0.3370 -0.2636 -0.3598
11666TIP3    H156413   4.889   5.079   0.458  0.3744 -0.0635 -1.1176
11666TIP3    H256414   4.873   5.218   0.401 -1.1215  0.2831  0.0733
11667TIP3   OH256415   2.114   5.072   2.800  0.5106  0.0352  0.2685
11667TIP3    H156416   2.077   5.104   2.718  2.2441 -0.6003 -0.8279
11667TIP3    H256417   2.044   5.083   2.864 -0.6612  1.1995 -1.1333
11668TIP3   OH256418   6.453   3.437   4.777  0.5111 -0.0895 -0.5578
11668TIP3    H156419   6.540   3.407   4.749  1.8568  1.8926  1.2101
11668TIP3    H256420   6.439   3.519   4.730 -0.2191 -0.1450 -0.4543
11669TIP3   OH256421   3.237   1.507  17.122  0.1925 -0.2018  0.1112
11669TIP3    H156422   3.224   1.602  17.117 -0.5058 -0.2676  0.6350
11669TIP3    H256423   3.258   1.482  17.032 -4.4137 -0.2230 -1.2176
11670TIP3   OH256424   5.343   2.570  16.488  0.1316 -0.6850  0.6110
11670TIP3    H156425   5.277   2.552  16.422  1.2195  1.6186 -1.2670
11670TIP3    H256426   5.383   2.485  16.506 -2.7690 -2.0065  1.2750
11671TIP3   OH256427   0.647   2.213  15.174  0.5015  0.6247 -0.8590
11671TIP3    H156428   0.661   2.261  15.093 -1.1701  0.6179 -1.1996
11671TIP3    H256429   0.590   2.270  15.227  1.5272  0.6118  0.3084
11672TIP3   OH256430   1.566   5.921  15.751 -0.5740 -0.9592 -0.0588
11672TIP3    H156431   1.653   5.887  15.770 -0.0528  0.7387  0.7933
11672TIP3    H256432   1.580   5.983  15.679 -0.6856  0.8129  1.3689
11673TIP3   OH256433   2.502   1.338   4.853 -0.9235  0.6315  0.7578
11673TIP3    H156434   2.431   1.276   4.867 -1.7990  1.2083 -0.8190
11673TIP3    H256435   2.582   1.288   4.871 -1.6848 -0.0661  2.4286
11674TIP3   OH256436   1.482   6.384   3.922  0.1302 -0.2423  0.1185
11674TIP3    H156437   1.395   6.421   3.905 -0.8708 -1.8055  1.4797
11674TIP3    H256438   1.478   6.296   3.885  1.6372  0.1124 -0.9887
11675TIP3   OH256439   2.835   6.694   0.055  0.3665 -0.5448  0.5311
11675TIP3    H156440   2.802   6.707   0.144 -0.0589 -0.7103  0.4015
11675TIP3    H256441   2.924   6.662   0.067  0.7373  0.5617  0.8783
11676TIP3   OH256442   4.144   4.663  14.286  0.1774 -0.0859  1.1391
11676TIP3    H156443   4.106   4.751  14.282 -0.6832 -0.4844  0.1798
11676TIP3    H256444   4.237   4.678  14.306  0.7756  1.2587 -2.0002
11677TIP3   OH256445   2.057   2.990  16.853 -0.0096  0.7917  0.1421
11677TIP3    H156446   1.973   2.984  16.809 -0.0354  0.6556  0.2101
11677TIP3    H256447   2.077   3.084  16.854  0.4598  0.7247 -1.0454
11678TIP3   OH256448   2.080   5.770  14.261  0.4708  0.0252 -0.6670
11678TIP3    H156449   2.093   5.816  14.344  1.0703 -0.4597 -0.4908
11678TIP3    H256450   2.004   5.714  14.276 -0.1600  0.8214 -0.8298
11679TIP3   OH256451   4.289   1.508   5.029  0.3762  0.6957 -0.2853
11679TIP3    H156452   4.245   1.492   4.945 -0.9569  2.3966  0.0255
11679TIP3    H256453   4.260   1.436   5.085  0.8367 -0.1457 -1.0902
11680TIP3   OH256454   0.579   3.870  12.481  0.1993 -0.2844 -0.2086
11680TIP3    H156455   0.541   3.878  12.569 -0.1087  2.7145 -0.4785
11680TIP3    H256456   0.641   3.797  12.487  0.8712  0.3937  2.7911
11681TIP3   OH256457   0.446   1.024  13.452  0.1020 -0.1936 -0.3082
11681TIP3    H156458   0.462   1.030  13.546  0.0022 -0.5304 -0.2675
11681TIP3    H256459   0.513   0.965  13.419 -0.9752 -1.5487 -0.1460
11682TIP3   OH256460   1.368   4.941  14.386 -0.4081  0.2681  0.1250
11682TIP3    H156461   1.438   4.963  14.325  1.5836 -1.3846  1.6559
11682TIP3    H256462   1.413   4.907  14.463 -2.8928 -0.2114  1.4770
11683TIP3   OH256463   4.437   5.286  13.713  0.4398  0.7216  0.2024
11683TIP3    H156464   4.411   5.210  13.662  1.0613  0.8912 -0.3813
11683TIP3    H256465   4.410   5.266  13.802  0.0570  0.0814 -0.0523
11684TIP3   OH256466   0.106   5.615   5.336  0.0879  0.0020  0.4160
11684TIP3    H156467   0.035   5.555   5.313 -0.7884  1.1584  0.0098
11684TIP3    H256468   0.169   5.606   5.264  0.5795 -1.3321  0.9813
11685TIP3   OH256469   1.523   3.321   1.082  0.1617 -0.2852  0.0097
11685TIP3    H156470   1.480   3.407   1.078  2.3296  0.8364 -0.9082
11685TIP3    H256471   1.476   3.274   1.151 -0.7797  1.8161  0.8944
11686TIP3   OH256472   4.754   4.183   5.368  0.0120  0.4733 -0.5372
11686TIP3    H156473   4.718   4.119   5.429  1.5090  1.3062  1.2976
11686TIP3    H256474   4.702   4.171   5.288 -0.7979 -1.9058  0.2551
11687TIP3   OH256475   6.310   0.768  12.345  0.2607 -0.0814 -1.0312
11687TIP3    H156476   6.318   0.713  12.424  0.1263  0.8738 -0.3320
11687TIP3    H256477   6.225   0.810  12.354  0.1356 -0.1668 -1.8256
11688TIP3   OH256478   1.938   3.995  15.396 -0.1222  0.1805 -0.1049
11688TIP3    H156479   2.028   4.028  15.395  0.2769 -0.8900 -0.3967
11688TIP3    H256480   1.898   4.034  15.318 -0.6509  2.5656  1.2610
11689TIP3   OH256481   0.823   1.217  15.703  0.3857 -0.4813 -0.0784
11689TIP3    H156482   0.859   1.172  15.626  0.2813  1.0350 -1.0492
11689TIP3    H256483   0.877   1.186  15.776  1.1775 -1.1454 -0.9177
11690TIP3   OH256484   5.058   0.341  11.234  0.0474  0.2475 -0.0276
11690TIP3    H156485   4.998   0.271  11.207  0.1561  0.0397  0.2624
11690TIP3    H256486   5.062   0.400  11.158  1.1634 -0.8655 -0.8690
11691TIP3   OH256487   1.813   4.812  14.266 -0.7482  0.0851  0.2903
11691TIP3    H156488   1.768   4.801  14.182 -1.5692  2.4134  0.3746
11691TIP3    H256489   1.905   4.794  14.246 -0.8940  0.8163 -1.1780
11692TIP3   OH256490   4.943   1.953  11.750 -0.8919 -0.4028 -0.6042
11692TIP3    H156491   4.991   1.964  11.832 -2.0203 -0.3290  0.0675
11692TIP3    H256492   5.006   1.979  11.682  0.2954 -1.1633  0.1679
11693TIP3   OH256493   3.933   0.657  17.152  0.2868  0.1219 -0.3306
11693TIP3    H156494   3.857   0.640  17.208  0.5709 -0.2286 -0.0492
11693TIP3    H256495   3.909   0.736  17.103  0.9064  1.7821  1.8716
11694TIP3   OH256496   3.104   1.867   0.652  0.0347  0.2153  0.5580
11694TIP3    H156497   3.011   1.850   0.668 -0.0329 -0.9072 -0.8929
11694TIP3    H256498   3.147   1.841   0.734 -0.6027 -2.3307  0.1512
11695TIP3   OH256499   0.457   1.218  17.222  0.1370 -0.4827 -0.0546
11695TIP3    H156500   0.505   1.299  17.240  0.1810 -0.3063 -0.9158
11695TIP3    H256501   0.451   1.215  17.126  1.5394 -2.3170 -0.1393
11696TIP3   OH256502   5.050   6.047  17.214 -0.4860  0.0473  0.5815
11696TIP3    H156503   5.101   5.988  17.269 -0.8063  0.5668  1.4615
11696TIP3    H256504   5.006   6.105  17.276 -0.2938  1.1171 -0.2546
11697TIP3   OH256505   5.925   0.617   1.583 -0.3833 -0.4914 -0.0571
11697TIP3    H156506   5.842   0.570   1.578 -0.9098  0.3656  0.4565
11697TIP3    H256507   5.903   0.708   1.562  0.1782 -0.0055  1.2956
11698TIP3   OH256508   1.298   5.656   2.833 -0.4820 -0.1983  0.1251
11698TIP3    H156509   1.242   5.706   2.892 -0.5892 -0.5165  0.2927
11698TIP3    H256510   1.349   5.723   2.787 -2.6989  0.2931 -1.8206
11699TIP3   OH256511   1.779   3.787   0.121  0.2212  0.3991 -0.2353
11699TIP3    H156512   1.750   3.877   0.111 -1.5188 -0.1773 -0.7262
11699TIP3    H256513   1.837   3.788   0.198  0.0738  1.8758 -0.1274
11700TIP3   OH256514   6.589   5.455   3.075  0.5116  0.0526 -0.7709
11700TIP3    H156515   6.624   5.418   3.156 -0.3504  2.9460  1.0612
11700TIP3    H256516   6.496   5.430   3.075  0.9013 -1.5672 -1.9433
11701TIP3   OH256517   4.040   1.904   0.427 -0.3116 -0.0535 -0.2900
11701TIP3    H156518   3.958   1.905   0.475  0.0614 -0.8185  0.4052
11701TIP3    H256519   4.081   1.988   0.447 -1.2571  0.6630 -1.2736
11702TIP3   OH256520   0.249   3.564  16.173 -0.0142 -0.1177  0.5238
11702TIP3    H156521   0.200   3.557  16.091 -0.4800  1.4527  0.6495
11702TIP3    H256522   0.337   3.590  16.146 -0.2878  0.8455  0.5422
11703TIP3   OH256523   5.485   3.586   2.903 -0.7741 -0.6195  0.4292
11703TIP3    H156524   5.559   3.644   2.884  0.3715 -2.4826 -1.1657
11703TIP3    H256525   5.468   3.599   2.996  1.1992  0.2813  0.7109
11704TIP3   OH256526   1.040   3.916   1.982 -0.2771 -0.3665  0.4030
11704TIP3    H156527   1.013   3.971   2.055 -1.3545  0.4786 -0.5928
11704TIP3    H256528   1.107   3.858   2.019  1.8491  2.3816  1.2518
11705TIP3   OH256529   6.591   2.409  13.016  0.0548 -0.5288 -0.6596
11705TIP3    H156530   6.618   2.491  13.057 -1.8730  0.3358 -1.0003
11705TIP3    H256531   6.671   2.358  13.009  1.4218  1.5527 -0.9824
11706TIP3   OH256532   5.120   1.882  10.835  0.3490 -0.2194  0.6527
11706TIP3    H156533   5.070   1.941  10.778  0.0107 -0.4180  0.7390
11706TIP3    H256534   5.060   1.810  10.853  0.9115 -0.8061  0.2046
11707TIP3   OH256535   3.058   3.497   2.486 -0.0470  0.5369  0.0087
11707TIP3    H156536   3.127   3.438   2.458 -0.6011  0.0854 -0.4459
11707TIP3    H256537   2.978   3.461   2.447 -0.8071  0.1277  1.8147
11708TIP3   OH256538   1.771   3.820  12.459 -0.4152 -0.2470  0.2870
11708TIP3    H156539   1.693   3.875  12.457  0.4116  1.0070  1.0789
11708TIP3    H256540   1.820   3.844  12.380 -0.3086 -0.2430  0.3541
11709TIP3   OH256541   4.132   5.582   1.565 -0.0366  0.5386 -0.4637
11709TIP3    H156542   4.132   5.641   1.489 -1.1280  0.4010 -0.5872
11709TIP3    H256543   4.187   5.508   1.538  1.1711  1.3931 -0.3823
11710TIP3   OH256544   2.133   0.701  12.801  0.4234 -0.4447  0.2370
11710TIP3    H156545   2.202   0.758  12.833 -1.2273  1.1780  1.1210
11710TIP3    H256546   2.164   0.612  12.820  2.2623  0.2206  0.5138
11711TIP3   OH256547   3.084   5.434   3.776  0.0333  0.2784 -0.1240
11711TIP3    H156548   3.132   5.372   3.832  0.1858  0.3180 -0.2107
11711TIP3    H256549   2.992   5.417   3.794  0.0616  1.7355  1.7882
11712TIP3   OH256550   5.168   5.631  16.800  0.2038 -0.2490 -0.0022
11712TIP3    H156551   5.201   5.700  16.743 -0.4265  0.0395 -0.0299
11712TIP3    H256552   5.118   5.573  16.742 -2.3152  1.2353  0.5435
11713TIP3   OH256553   3.464   4.048  11.559 -0.8262  0.3570  0.3366
11713TIP3    H156554   3.432   3.988  11.626 -0.2021 -1.3305 -0.8174
11713TIP3    H256555   3.389   4.102  11.536 -1.3000  0.2921  1.6571
11714TIP3   OH256556   3.261   2.407   1.718  0.3095  0.3129  0.1411
11714TIP3    H156557   3.248   2.427   1.626  3.6509  3.3772  0.1086
11714TIP3    H256558   3.307   2.323   1.718 -1.5231 -0.7490 -0.7500
11715TIP3   OH256559   4.729   5.933   2.267 -0.4408 -0.4566 -0.3421
11715TIP3    H156560   4.678   5.928   2.186 -0.8083 -0.7105 -0.0991
11715TIP3    H256561   4.709   6.019   2.303 -1.2775 -0.8334  0.1219
11716TIP3   OH256562   1.690   5.662   0.321  0.1228  0.8465 -0.0516
11716TIP3    H156563   1.776   5.703   0.328 -0.2479  1.7274 -0.4445
11716TIP3    H256564   1.634   5.730   0.283 -0.5533  0.0238 -0.5762
11717TIP3   OH256565   1.812   5.136   1.099 -0.2359  0.1039  0.0977
11717TIP3    H156566   1.876   5.166   1.034  0.9917  2.1161  2.0975
11717TIP3    H256567   1.727   5.155   1.060  0.3005 -1.8405 -2.2669
11718TIP3   OH256568   5.067   1.611  14.722 -0.5956 -0.1462  0.0611
11718TIP3    H156569   5.141   1.628  14.781 -1.4533  0.2039  1.0728
11718TIP3    H256570   5.072   1.517  14.703  0.4467 -0.0173 -0.3754
11719TIP3   OH256571   6.541   0.882  14.017 -0.2584 -0.3146 -0.6431
11719TIP3    H156572   6.620   0.913  13.973 -0.6397  0.4301 -0.8231
11719TIP3    H256573   6.523   0.797  13.977  1.3557 -1.2783  0.5371
11720TIP3   OH256574   3.200   3.289  11.328 -0.3848 -0.0321  0.0220
11720TIP3    H156575   3.160   3.312  11.245 -2.1501  0.5205  0.9665
11720TIP3    H256576   3.262   3.219  11.307 -1.6027 -0.6843 -1.5815
11721TIP3   OH256577   5.313   4.713   4.246 -0.3285  0.1813  0.0839
11721TIP3    H156578   5.256   4.722   4.322  0.1580 -2.4888  0.8751
11721TIP3    H256579   5.254   4.687   4.175 -0.4255 -0.1977  0.2985
11722TIP3   OH256580   0.264   4.002  14.395  0.0931 -0.0569  0.2272
11722TIP3    H156581   0.276   4.091  14.427  1.3035 -0.9131  2.3228
11722TIP3    H256582   0.180   4.004  14.348 -0.3875  1.9365  1.0895
11723TIP3   OH256583   1.610   4.402  15.508 -0.0977 -0.7641 -0.3904
11723TIP3    H156584   1.660   4.320  15.501  0.9372 -0.4128  2.1005
11723TIP3    H256585   1.531   4.377  15.557  0.3495 -0.2520  0.6126
11724TIP3   OH256586   6.726   5.549   1.565  0.2250  0.2295 -0.0956
11724TIP3    H156587   6.648   5.574   1.515  0.6232  2.2223  0.1844
11724TIP3    H256588   6.775   5.630   1.574  1.8143 -0.7684  0.6788
11725TIP3   OH256589   6.147   0.060   5.378 -0.1994 -0.8835  0.0535
11725TIP3    H156590   6.147  -0.020   5.430  0.3181 -0.7050  0.3459
11725TIP3    H256591   6.161   0.130   5.442  1.4275 -0.7381 -0.4114
11726TIP3   OH256592   3.502   0.745  14.884  0.3007 -0.1548  0.1518
11726TIP3    H156593   3.437   0.724  14.816 -1.3384  3.3288  0.3885
11726TIP3    H256594   3.577   0.778  14.835 -0.8532  2.2952 -0.1493
11727TIP3   OH256595   2.878   1.077  12.652  0.6491  0.3068 -0.0799
11727TIP3    H156596   2.926   1.052  12.731 -0.2475  1.7721  1.0050
11727TIP3    H256597   2.920   1.158  12.623 -1.9070  2.5114  1.7896
11728TIP3   OH256598   2.333   5.463   1.814 -0.3882 -0.3375  0.4217
11728TIP3    H156599   2.331   5.451   1.909  1.1502  1.8211  0.8039
11728TIP3    H256600   2.405   5.525   1.799 -1.6839  0.7082 -2.0069
11729TIP3   OH256601   6.147   4.072   5.621  0.1626 -0.0647 -0.4967
11729TIP3    H156602   6.234   4.083   5.583 -0.2537  0.8944 -1.2416
11729TIP3    H256603   6.147   4.129   5.698  0.1442  0.0793 -0.6022
11730TIP3   OH256604   1.044   0.000   1.639  0.1350 -0.3189 -0.2959
11730TIP3    H156605   0.976  -0.054   1.599 -0.2827  0.8267 -1.1969
11730TIP3    H256606   1.034   0.086   1.597  0.1412  0.7537  1.7598
11731TIP3   OH256607   3.117   4.559   2.658  0.0303  0.1956  0.2632
11731TIP3    H156608   3.078   4.517   2.581  1.3984  2.0122 -1.5204
11731TIP3    H256609   3.057   4.629   2.680  0.7653  1.1539 -0.6692
11732TIP3   OH256610   2.526   5.013  13.239  0.1897  0.3532 -0.1597
11732TIP3    H156611   2.533   5.106  13.263 -0.0775  0.4879 -0.5762
11732TIP3    H256612   2.475   5.014  13.158  0.8086 -0.1028 -0.5628
11733TIP3   OH256613   5.531   0.479  17.317 -0.0687 -0.1452 -0.6028
11733TIP3    H156614   5.612   0.530  17.321  0.7015 -1.3827  0.2816
11733TIP3    H256615   5.558   0.390  17.341 -1.7267 -0.5294 -0.0600
11734TIP3   OH256616   5.605   4.152   2.435 -0.0042 -0.4157  0.0065
11734TIP3    H156617   5.530   4.177   2.383 -0.3392 -0.7134  0.3380
11734TIP3    H256618   5.634   4.233   2.477 -1.0776 -0.5587  1.0789
11735TIP3   OH256619   1.827   6.221  16.263 -0.2436 -0.1175  0.2659
11735TIP3    H156620   1.832   6.210  16.168 -1.0381  0.3827  0.1479
11735TIP3    H256621   1.874   6.146  16.299  0.5789  0.0008 -0.5253
11736TIP3   OH256622   4.832   5.980   4.129 -0.1886  0.0290 -0.4985
11736TIP3    H156623   4.786   6.046   4.077  0.1647 -0.3691 -1.3244
11736TIP3    H256624   4.837   5.904   4.072 -0.1253 -0.5423  0.2568
11737TIP3   OH256625   0.500   0.627   6.066  0.5604  0.2316  0.2442
11737TIP3    H156626   0.531   0.537   6.076  1.5811  0.5924  0.4395
11737TIP3    H256627   0.447   0.625   5.986 -0.9668 -0.9222  1.2123
11738TIP3   OH256628   3.084   0.692  16.862  0.1712 -0.3784  0.0889
11738TIP3    H156629   3.088   0.597  16.848  1.0508 -0.1615 -1.3495
11738TIP3    H256630   3.140   0.728  16.794 -2.0859  1.3370 -0.9633
11739TIP3   OH256631   0.817   6.515   3.818  0.5052  0.0324  0.0243
11739TIP3    H156632   0.728   6.482   3.821  0.4871  0.1535  1.5526
11739TIP3    H256633   0.845   6.502   3.727 -0.9084 -0.3916 -0.3637
11740TIP3   OH256634   4.155   0.388   4.257 -0.3514 -0.3813 -0.3054
11740TIP3    H156635   4.074   0.439   4.256 -0.3039 -0.3016 -0.1795
11740TIP3    H256636   4.131   0.303   4.293 -0.6192 -0.7746 -1.3723
11741TIP3   OH256637   3.446   3.011  15.577  0.4711  0.6204  0.1811
11741TIP3    H156638   3.415   2.968  15.498 -0.0112  0.2441  0.5682
11741TIP3    H256639   3.513   2.953  15.612  0.9034  0.9355 -0.1063
11742TIP3   OH256640   1.456   3.390   6.000  0.1971  0.1727  0.1918
11742TIP3    H156641   1.544   3.383   6.037 -0.6964  0.0157  2.4657
11742TIP3    H256642   1.413   3.308   6.025 -0.4508  0.0214 -1.3393
11743TIP3   OH256643   5.091   1.266  15.348 -0.0645  1.0680 -0.5311
11743TIP3    H156644   5.179   1.233  15.366 -0.0957  1.7869  1.1751
11743TIP3    H256645   5.078   1.336  15.412 -1.4969  1.6749 -1.4324
11744TIP3   OH256646   3.105   6.310  12.546  0.0643 -0.1402  0.7523
11744TIP3    H156647   3.072   6.400  12.554  1.0369  0.3619 -0.4129
11744TIP3    H256648   3.154   6.295  12.626 -2.2397 -0.6174  2.1565
11745TIP3   OH256649   4.763   3.177   6.184  0.1632 -0.1708  0.1899
11745TIP3    H156650   4.699   3.245   6.164 -0.0795  0.2447  2.1591
11745TIP3    H256651   4.838   3.224   6.221  0.6280 -0.8449  0.1323
11746TIP3   OH256652   6.011   1.072   1.080 -0.4584 -0.1041 -0.2109
11746TIP3    H156653   6.034   1.117   0.999 -1.0397 -1.4254 -1.1395
11746TIP3    H256654   5.917   1.058   1.075 -0.6387  0.4747  1.0674
11747TIP3   OH256655   4.209   4.979   2.081  0.7128 -0.0537  0.2646
11747TIP3    H156656   4.193   5.021   2.165  0.0802  2.2906 -0.9381
11747TIP3    H256657   4.128   4.932   2.061 -0.2197  1.6672 -0.2224
11748TIP3   OH256658   2.058   3.141  11.420 -0.0113  0.2072  0.5719
11748TIP3    H156659   2.133   3.171  11.369  0.7151 -0.1574  1.4013
11748TIP3    H256660   2.051   3.203  11.492 -1.3466  1.0194 -0.2030
11749TIP3   OH256661   0.489   3.144   0.898 -0.8395 -0.7228  0.5167
11749TIP3    H156662   0.425   3.175   0.834 -0.6608  0.6097  0.9631
11749TIP3    H256663   0.534   3.073   0.853 -1.1521 -0.2376 -0.6100
11750TIP3   OH256664   1.145   1.172  11.844  0.4984 -0.1172  0.1066
11750TIP3    H156665   1.159   1.265  11.863 -0.1200  0.0557 -0.2513
11750TIP3    H256666   1.110   1.171  11.755 -0.4755 -0.6165  0.4802
11751TIP3   OH256667   4.503   0.481  14.253  0.2351  0.0187 -0.3697
11751TIP3    H156668   4.465   0.518  14.174  0.3934 -0.0052 -0.4567
11751TIP3    H256669   4.430   0.436  14.297  0.7747 -2.7527 -2.0830
11752TIP3   OH256670   3.571   5.707   0.551 -0.0747  0.2966  0.0298
11752TIP3    H156671   3.631   5.714   0.477 -2.1727  0.6570 -1.7202
11752TIP3    H256672   3.567   5.613   0.569 -0.1723  0.1211 -0.8719
11753TIP3   OH256673   2.456   6.253   3.763  0.3658 -0.0165  0.0817
11753TIP3    H156674   2.511   6.230   3.838  0.7612  1.2805  0.2119
11753TIP3    H256675   2.472   6.346   3.749 -1.1965  0.2156 -0.3862
11754TIP3   OH256676   3.870   4.107   2.341 -0.2935 -0.1769  0.1797
11754TIP3    H156677   3.945   4.158   2.369  0.0066  0.5052 -1.7165
11754TIP3    H256678   3.853   4.047   2.414  1.4994  0.2773  1.0233
11755TIP3   OH256679   3.187   1.776   4.569 -0.1369  0.3384  0.7562
11755TIP3    H156680   3.108   1.808   4.613  0.4212  0.6650  1.5446
11755TIP3    H256681   3.175   1.681   4.564  0.5704  0.0495  3.2806
11756TIP3   OH256682   4.005   3.314  11.998  0.6796 -0.2707 -0.9965
11756TIP3    H156683   4.061   3.248  11.959 -0.0117 -1.8084  0.4806
11756TIP3    H256684   4.047   3.336  12.081  0.1563  0.0550 -0.8076
11757TIP3   OH256685   2.992   2.263   6.360 -0.7618 -0.2088 -0.1343
11757TIP3    H156686   2.924   2.202   6.331  0.1306 -0.1257 -2.6569
11757TIP3    H256687   3.070   2.209   6.372 -0.7556 -0.0076  0.8441
11758TIP3   OH256688   1.751   0.200  11.049  0.0223  0.3803 -0.1694
11758TIP3    H156689   1.760   0.252  10.969 -0.4824  1.9728  0.7440
11758TIP3    H256690   1.695   0.127  11.024 -1.8257  1.9295 -0.8683
11759TIP3   OH256691   5.478   3.492   2.512  0.4078 -0.3134 -0.4578
11759TIP3    H156692   5.418   3.487   2.438  0.3933 -2.6288 -0.3724
11759TIP3    H256693   5.423   3.477   2.589  0.8383 -0.8606 -0.2450
11760TIP3   OH256694   6.420   3.540  10.687 -0.5304  0.4683 -0.0289
11760TIP3    H156695   6.372   3.576  10.612  0.6132 -0.8833 -1.4850
11760TIP3    H256696   6.439   3.616  10.742 -1.7660  1.4420 -0.8970
11761TIP3   OH256697   2.410   3.992   4.425  0.2427  0.2951 -0.4996
11761TIP3    H156698   2.450   4.026   4.506 -0.2862  1.8920 -0.8738
11761TIP3    H256699   2.469   3.921   4.398  1.7253  1.2497  0.0576
11762TIP3   OH256700   4.901   4.650  10.903 -0.2118 -0.7148 -0.0336
11762TIP3    H156701   4.972   4.693  10.950  0.2053 -0.4825 -0.8481
11762TIP3    H256702   4.829   4.712  10.906 -1.3636 -2.0384  3.1428
11763TIP3   OH256703   2.718   4.394  12.289  0.0100 -0.1931 -0.2525
11763TIP3    H156704   2.747   4.464  12.230 -0.5112  1.1226  0.9876
11763TIP3    H256705   2.730   4.314  12.239 -1.0003  0.9123 -2.3698
11764TIP3   OH256706   6.559   5.315   2.252  0.1021 -0.1735 -0.0503
11764TIP3    H156707   6.558   5.223   2.226  1.3980 -0.3853  0.5566
11764TIP3    H256708   6.468   5.344   2.245 -0.2060 -1.3124 -0.8935
11765TIP3   OH256709   0.435   4.525   0.659 -0.2398  0.2839 -0.4137
11765TIP3    H156710   0.469   4.503   0.572 -0.9633  1.0466 -0.9176
11765TIP3    H256711   0.512   4.548   0.710  0.1964 -0.1667 -0.8660
11766TIP3   OH256712   0.575   5.689  13.005 -0.7364 -0.0970  0.3951
11766TIP3    H156713   0.588   5.597  12.982 -1.0090 -0.1355  0.3919
11766TIP3    H256714   0.664   5.725  13.011 -0.5161 -0.8552  2.4564
11767TIP3   OH256715   4.991   3.508   5.289  0.4828  0.3365  0.1405
11767TIP3    H156716   4.976   3.458   5.369  2.1702  2.1492  1.6694
11767TIP3    H256717   4.925   3.474   5.227 -0.7692 -1.2200  2.2009
11768TIP3   OH256718   5.782   4.610  16.973  0.4775 -0.5316 -0.2650
11768TIP3    H156719   5.701   4.601  16.923  0.4736 -0.1466 -0.3356
11768TIP3    H256720   5.803   4.522  17.002  0.2753 -0.7020 -0.6291
11769TIP3   OH256721   0.385   3.427   0.451  0.0057  0.3398  0.1543
11769TIP3    H156722   0.407   3.335   0.468  0.5293  0.4757  0.2375
11769TIP3    H256723   0.293   3.435   0.476  0.2413  0.0918  1.1544
11770TIP3   OH256724   1.380   3.449  16.730 -0.1675 -0.4629  0.1404
11770TIP3    H156725   1.396   3.531  16.683 -0.0786 -0.7746 -0.3860
11770TIP3    H256726   1.299   3.465  16.778 -1.0835 -0.6162 -1.2804
11771TIP3   OH256727   6.508   5.850  11.853 -0.6006 -0.3436 -0.1156
11771TIP3    H156728   6.453   5.923  11.824 -1.5944 -1.2806 -0.6346
11771TIP3    H256729   6.573   5.891  11.911 -1.3092  0.9038 -0.1682
11772TIP3   OH256730   6.146   0.653  14.798  0.3870 -0.6294 -0.5453
11772TIP3    H156731   6.069   0.630  14.746  1.7082 -2.1370 -1.9467
11772TIP3    H256732   6.153   0.582  14.863  0.6459 -0.5562 -0.4934
11773TIP3   OH256733   4.013   3.065   1.688 -0.0702 -0.1933 -0.2722
11773TIP3    H156734   3.947   3.119   1.733 -1.1738 -2.0811  0.4697
11773TIP3    H256735   3.979   3.057   1.599 -0.2236 -0.1878 -0.2155
11774TIP3   OH256736   6.015   2.926  15.616  0.3643  0.7954 -0.1995
11774TIP3    H156737   5.993   3.007  15.663  4.4313  1.4336  0.9467
11774TIP3    H256738   6.031   2.862  15.686  0.7130  0.0430 -0.9565
11775TIP3   OH256739   1.580   6.174   4.794  0.4836 -0.2774  0.0604
11775TIP3    H156740   1.597   6.089   4.836  1.1414 -0.0273  0.3220
11775TIP3    H256741   1.485   6.181   4.792  0.4126 -0.0930  1.9593
11776TIP3   OH256742   1.291   0.151  14.804 -0.3086  0.7019 -0.4508
11776TIP3    H156743   1.239   0.081  14.764 -2.3199  1.5855  0.5085
11776TIP3    H256744   1.374   0.148  14.757 -0.8025 -1.4693 -1.3197
11777TIP3   OH256745   6.309   0.929  12.671  0.3369  0.0248 -0.3185
11777TIP3    H156746   6.235   0.874  12.695  0.3325 -0.1325 -0.6925
11777TIP3    H256747   6.385   0.872  12.677  0.4015  0.1290 -0.1447
11778TIP3   OH256748   0.154   4.958   4.232  0.1576 -0.0609 -0.4288
11778TIP3    H156749   0.103   4.933   4.309 -0.7065  0.4571 -0.8205
11778TIP3    H256750   0.244   4.932   4.254 -0.3240 -1.3692  0.1068
11779TIP3   OH256751   6.051   4.989  11.731  0.3414  0.2114  0.1030
11779TIP3    H156752   6.062   5.023  11.820  0.1817  0.5475 -0.0014
11779TIP3    H256753   6.140   4.986  11.695  0.5019 -0.7045  0.5462
11780TIP3   OH256754   3.115   4.907   3.778 -0.0229 -0.0615  1.1070
11780TIP3    H156755   3.160   4.825   3.798 -0.7437 -0.0652  2.8656
11780TIP3    H256756   3.166   4.974   3.824  0.7230  0.5551 -0.5406
11781TIP3   OH256757   5.990   2.792   3.970  0.6009 -0.1261  0.2326
11781TIP3    H156758   6.013   2.878   3.935 -3.5728  0.7128 -0.9358
11781TIP3    H256759   6.003   2.801   4.065  2.2497  1.0312 -0.0562
11782TIP3   OH256760   6.471   1.423  12.459  0.5697  0.3131 -0.2374
11782TIP3    H156761   6.440   1.351  12.514 -1.7774 -0.0184 -1.8667
11782TIP3    H256762   6.565   1.405  12.447  0.1679 -2.1723 -0.1449
11783TIP3   OH256763   4.636   1.155  11.775 -0.2599  0.2410 -0.8147
11783TIP3    H156764   4.578   1.082  11.752  0.2433  0.0520 -1.5158
11783TIP3    H256765   4.678   1.179  11.692 -1.3065  2.1269 -0.8482
11784TIP3   OH256766   1.472   6.195   4.398 -0.2703  0.0834 -0.1062
11784TIP3    H156767   1.457   6.121   4.457  1.5038 -0.0128  0.2614
11784TIP3    H256768   1.388   6.242   4.397 -0.4287 -0.0288  2.3214
11785TIP3   OH256769   0.042   4.511   4.171 -0.0383 -0.2132 -0.0254
11785TIP3    H156770   0.061   4.533   4.262 -1.6274 -1.5824  0.6928
11785TIP3    H256771   0.006   4.591   4.134 -0.0262  0.1612  0.7517
11786TIP3   OH256772   4.922   4.586   1.254 -0.5035 -0.6610 -0.4252
11786TIP3    H156773   4.889   4.589   1.344 -0.3080  0.4613 -0.3827
11786TIP3    H256774   4.858   4.636   1.203 -0.0768 -0.4319 -0.7371
11787TIP3   OH256775   1.629   0.190  13.831 -0.6393  0.0280 -0.1350
11787TIP3    H156776   1.591   0.276  13.812 -2.0448 -0.0082  2.1523
11787TIP3    H256777   1.691   0.207  13.902 -0.2393 -0.7148 -0.3054
11788TIP3   OH256778   1.077   6.171  12.258  0.7768 -0.0433 -0.3914
11788TIP3    H156779   1.055   6.092  12.209 -1.3559  1.8460 -2.8193
11788TIP3    H256780   1.032   6.161  12.342 -0.4986 -0.8914 -1.1448
11789TIP3   OH256781   0.608   2.974   5.304  0.0216 -0.6605 -0.2083
11789TIP3    H156782   0.675   3.020   5.354  0.0516 -0.4929 -0.3991
11789TIP3    H256783   0.634   2.985   5.212 -0.8688  0.3710 -0.3582
11790TIP3   OH256784   4.766   5.899  16.442  0.6794 -0.1056 -0.5434
11790TIP3    H156785   4.686   5.911  16.493  1.1332 -0.2553  0.2292
11790TIP3    H256786   4.837   5.905  16.507  1.2204 -1.4817 -0.9643
11791TIP3   OH256787   6.673   2.952  15.649  0.5308  0.1539  0.2089
11791TIP3    H156788   6.714   2.889  15.590  0.0843 -1.0443  1.1372
11791TIP3    H256789   6.622   3.009  15.592  0.2040 -0.8988 -0.5786
11792TIP3   OH256790   5.169   2.078   5.724 -0.6314  0.1520 -0.1371
11792TIP3    H156791   5.139   1.988   5.714 -2.4107  0.8021 -1.0286
11792TIP3    H256792   5.262   2.069   5.747  0.0669 -1.9097 -3.0306
11793TIP3   OH256793   5.293   6.178  11.614 -0.2403 -0.0463 -0.2985
11793TIP3    H156794   5.361   6.112  11.598 -2.5494 -2.4553 -0.8983
11793TIP3    H256795   5.258   6.197  11.527  0.2394  1.8899 -0.1025
11794TIP3   OH256796   4.764   3.453  10.411 -0.3138 -0.4539 -0.0420
11794TIP3    H156797   4.749   3.519  10.344 -1.3857 -2.0873 -1.4967
11794TIP3    H256798   4.736   3.495  10.492  0.9858  1.5644 -0.5638
11795TIP3   OH256799   1.178   4.871  12.946  0.4945  0.0149  0.1193
11795TIP3    H156800   1.229   4.790  12.956 -0.2538 -0.6407 -1.0649
11795TIP3    H256801   1.153   4.872  12.854 -2.6526 -0.3864  0.8314
11796TIP3   OH256802   2.527   5.154  16.975  0.1824  0.2241 -0.0663
11796TIP3    H156803   2.556   5.083  17.032  1.1433  0.9837  0.4104
11796TIP3    H256804   2.589   5.153  16.902  1.2135  1.5929  0.7520
11797TIP3   OH256805   5.850   2.661   1.431 -0.6105  0.3089 -0.2971
11797TIP3    H156806   5.937   2.643   1.468 -0.6622  1.0177  0.1955
11797TIP3    H256807   5.858   2.750   1.396 -0.8092 -0.0445 -1.2811
11798TIP3   OH256808   3.746   2.322  14.381 -0.3148  0.3893 -0.3393
11798TIP3    H156809   3.808   2.281  14.320 -1.2078 -1.0775 -0.2943
11798TIP3    H256810   3.719   2.252  14.440 -0.4900  1.4797  0.9351
11799TIP3   OH256811   0.183   4.273  13.527 -0.1769 -0.2199 -0.8599
11799TIP3    H156812   0.262   4.314  13.492 -0.0852 -1.1227 -1.7367
11799TIP3    H256813   0.112   4.330  13.497  0.0469  0.0408 -0.9044
11800TIP3   OH256814   0.126   3.551  12.285 -0.0060  0.7556 -0.1489
11800TIP3    H156815   0.049   3.501  12.260  0.2822 -0.0564  0.5477
11800TIP3    H256816   0.099   3.643  12.279 -0.4432  0.5555 -1.7695
11801TIP3   OH256817   3.783   1.420  12.071 -0.0150  1.1740 -0.3275
11801TIP3    H156818   3.833   1.470  12.135 -1.9344  0.2683  2.0482
11801TIP3    H256819   3.732   1.486  12.024  0.2781  1.7461  0.1442
11802TIP3   OH256820   5.502   5.736   3.129 -0.3363  1.0182 -0.4848
11802TIP3    H156821   5.463   5.709   3.212 -0.0837 -0.2295 -0.7455
11802TIP3    H256822   5.595   5.721   3.140 -0.5046 -2.0506 -1.9031
11803TIP3   OH256823   5.346   5.526  12.436 -0.5086  0.3206  0.5779
11803TIP3    H156824   5.407   5.496  12.368 -1.1135 -1.4582  0.7584
11803TIP3    H256825   5.285   5.583  12.390  0.1643  0.5925  0.0081
11804TIP3   OH256826   5.925   1.595   0.594 -0.7753  0.0508 -0.0825
11804TIP3    H156827   6.018   1.616   0.583 -0.5372 -2.0460 -3.8018
11804TIP3    H256828   5.881   1.680   0.590  0.9128  1.0739  1.6283
11805TIP3   OH256829   4.008   5.644   1.122  0.2684  0.0294 -0.3743
11805TIP3    H156830   4.070   5.575   1.100 -2.1373 -2.0723 -1.1146
11805TIP3    H256831   3.971   5.671   1.038  0.0211  1.0818  0.0544
11806TIP3   OH256832   5.459   3.387  13.183 -0.0173  0.7802  0.0116
11806TIP3    H156833   5.411   3.395  13.100  0.0789  1.6103  0.0245
11806TIP3    H256834   5.549   3.371  13.157  0.2750  2.4550 -0.0906
11807TIP3   OH256835   5.100   2.536   4.677  0.0285  0.3268 -0.5196
11807TIP3    H156836   5.172   2.593   4.702 -0.5506  0.3641  1.2054
11807TIP3    H256837   5.128   2.448   4.704 -1.1894  0.5623  1.7583
11808TIP3   OH256838   3.012   3.352  11.551  0.1967 -0.2209  0.4293
11808TIP3    H156839   3.082   3.314  11.497 -0.2346 -0.8168  0.2742
11808TIP3    H256840   3.001   3.441  11.518  0.5487 -0.2898  0.1284
11809TIP3   OH256841   1.433   4.172  16.922  0.2349 -0.0457 -0.0201
11809TIP3    H156842   1.358   4.231  16.916 -0.0882 -0.4207  0.2775
11809TIP3    H256843   1.424   4.114  16.846 -0.2545 -0.6341  0.4762
11810TIP3   OH256844   3.640   6.483   2.501  0.1007 -0.2586  0.1518
11810TIP3    H156845   3.553   6.522   2.490  0.1564  0.9152  3.0160
11810TIP3    H256846   3.623   6.389   2.507 -0.4861 -0.4503 -2.8474
11811TIP3   OH256847   2.199   6.126   2.090  0.2243  0.3146 -0.3102
11811TIP3    H156848   2.129   6.160   2.145  1.0827 -0.5647  1.4361
11811TIP3    H256849   2.188   6.170   2.006 -1.4256  1.3900  0.4186
11812TIP3   OH256850   4.043   5.068   6.037 -0.1588 -0.2934  0.6969
11812TIP3    H156851   3.989   5.007   5.986  1.2614 -0.7938 -0.2767
11812TIP3    H256852   4.027   5.043   6.129 -0.0681 -1.7601  0.3410
11813TIP3   OH256853   5.938   1.622  15.810  0.1086  0.1294 -0.1972
11813TIP3    H156854   5.920   1.716  15.809  0.3050  0.1633 -0.8172
11813TIP3    H256855   5.966   1.604  15.899  0.0313  0.6528 -0.0631
11814TIP3   OH256856   2.906   6.431  16.817  0.1907 -0.2245  0.2844
11814TIP3    H156857   2.939   6.382  16.742 -0.0801 -0.6515  0.4431
11814TIP3    H256858   2.980   6.485  16.844  0.9294 -1.5407  0.9498
11815TIP3   OH256859   1.239   0.972   2.233  0.0160  0.3964 -0.3061
11815TIP3    H156860   1.243   1.035   2.305 -0.7498 -1.5650  1.5876
11815TIP3    H256861   1.145   0.964   2.213  0.0436 -0.5593 -0.0983
11816TIP3   OH256862   2.968   2.298   3.617 -0.2693  0.0204  0.0243
11816TIP3    H156863   2.976   2.313   3.522  1.0159 -0.4806  0.0344
11816TIP3    H256864   3.019   2.369   3.657 -0.2639 -0.1461  0.3140
11817TIP3   OH256865   3.176   0.494   1.061  0.5350 -0.0603 -0.2752
11817TIP3    H156866   3.231   0.437   1.115 -0.4351 -0.7454  0.0230
11817TIP3    H256867   3.224   0.503   0.978  1.2446 -0.3651  0.0932
11818TIP3   OH256868   1.899   1.360   6.033  0.2426 -0.0518 -0.1455
11818TIP3    H156869   1.856   1.419   5.971 -0.2760  0.6169  0.8119
11818TIP3    H256870   1.990   1.389   6.035  0.2504 -0.0460 -0.5528
11819TIP3   OH256871   2.852   2.162  16.960 -0.0952  0.2702 -0.5128
11819TIP3    H156872   2.762   2.134  16.977 -0.0176 -0.1142 -0.7205
11819TIP3    H256873   2.874   2.218  17.034 -0.2738 -0.1814 -0.1157
11820TIP3   OH256874   4.799   4.104  14.688  0.1100  0.1118 -0.3039
11820TIP3    H156875   4.830   4.128  14.776 -0.8490  0.3666 -0.0321
11820TIP3    H256876   4.814   4.183  14.635 -0.3631  0.3384 -0.0997
11821TIP3   OH256877   1.514   5.521  15.360  0.0392 -0.1837  0.1177
11821TIP3    H156878   1.445   5.480  15.412 -0.0889 -1.0568 -0.7136
11821TIP3    H256879   1.590   5.463  15.372  0.1732 -0.0738 -0.2067
11822TIP3   OH256880   6.599   5.124  14.582 -0.1922  0.8640  0.3150
11822TIP3    H156881   6.626   5.045  14.536 -0.4675  1.4799 -0.9639
11822TIP3    H256882   6.507   5.108  14.605 -0.5081  1.1073 -0.6917
11823TIP3   OH256883   3.408   3.980   1.407  0.4743  0.0523 -0.1271
11823TIP3    H156884   3.398   3.909   1.344  0.6998  0.2066 -0.3378
11823TIP3    H256885   3.498   4.010   1.395  0.9402 -0.7475  1.1226
11824TIP3   OH256886   2.277   2.409  13.011 -0.0215  0.4984 -0.1296
11824TIP3    H156887   2.288   2.487  13.066 -0.6906  0.4632  0.0657
11824TIP3    H256888   2.330   2.426  12.933 -1.7698  2.0744 -1.0542
11825TIP3   OH256889   6.657   3.598   0.716  0.0882 -0.7274  0.4070
11825TIP3    H156890   6.684   3.656   0.787  1.6010 -0.0156 -0.7023
11825TIP3    H256891   6.636   3.516   0.760  1.7018 -0.5449  1.6103
11826TIP3   OH256892   5.145   5.012  12.079  0.2960 -0.4805 -0.6831
11826TIP3    H156893   5.213   4.946  12.066 -1.7834 -2.7947 -0.3932
11826TIP3    H256894   5.168   5.054  12.162  0.4032 -2.4930  0.3544
11827TIP3   OH256895   1.207   4.798   1.162 -0.0414  0.3543 -0.4969
11827TIP3    H156896   1.244   4.876   1.202  0.4541  0.2934 -0.8244
11827TIP3    H256897   1.124   4.784   1.209  0.9853 -0.3067  1.2385
11828TIP3   OH256898   3.633   2.730  13.732  0.4238 -0.0436  0.4544
11828TIP3    H156899   3.550   2.700  13.694  1.0598 -0.0515 -1.0053
11828TIP3    H256900   3.669   2.789  13.666  0.8425  1.2222  1.7731
11829TIP3   OH256901   2.491   6.575   0.120  0.5044  0.4000 -0.0380
11829TIP3    H156902   2.414   6.544   0.072  0.9191 -0.3252 -0.2504
11829TIP3    H256903   2.553   6.502   0.116  0.9982  0.7727  0.5974
11830TIP3   OH256904   3.380   0.437   4.086 -0.2242 -0.1155 -0.6762
11830TIP3    H156905   3.445   0.451   4.154 -1.0431  0.5661 -0.0054
11830TIP3    H256906   3.333   0.359   4.113 -1.6209  1.0508  0.4636
11831TIP3   OH256907   2.160   2.707   1.471  0.2852  0.0365  0.0865
11831TIP3    H156908   2.175   2.632   1.528 -0.8130  0.4085  0.9042
11831TIP3    H256909   2.160   2.671   1.383  0.7845 -0.7463  0.3948
11832TIP3   OH256910   6.168   2.425   2.857  0.0052 -0.2022 -0.2814
11832TIP3    H156911   6.251   2.422   2.906 -0.3922  0.5838  0.4652
11832TIP3    H256912   6.181   2.497   2.795 -0.2631  0.2012  0.1237
11833TIP3   OH256913   2.939   0.021   2.067  0.1096 -0.7783 -0.1079
11833TIP3    H156914   2.929  -0.074   2.068 -1.3175 -0.7122 -2.0995
11833TIP3    H256915   2.849   0.054   2.064  0.6053  0.5965 -0.3093
11834TIP3   OH256916   0.726   2.931  16.198  0.1332 -0.2241 -0.0044
11834TIP3    H156917   0.783   2.859  16.169 -1.2028 -0.4372 -2.2861
11834TIP3    H256918   0.646   2.887  16.227 -0.7010  0.3229 -1.4341
11835TIP3   OH256919   4.925   6.431  11.961 -0.2370 -0.5670 -0.0939
11835TIP3    H156920   4.902   6.413  12.052  1.1031  0.7280  0.5457
11835TIP3    H256921   4.931   6.527  11.957  0.8162 -0.6626 -1.2593
11836TIP3   OH256922   6.356   1.110  12.961  0.3517  0.0999 -0.1348
11836TIP3    H156923   6.424   1.101  13.028 -0.2506 -0.0970  0.4722
11836TIP3    H256924   6.307   1.188  12.987  0.8159  0.6995 -1.0129
11837TIP3   OH256925   4.197   5.753  12.204  0.5938 -0.6511  0.4505
11837TIP3    H156926   4.128   5.701  12.162  0.2530 -0.8156  1.1968
11837TIP3    H256927   4.164   5.843  12.203  1.0098 -0.5038 -0.4862
11838TIP3   OH256928   6.130   1.483  13.545 -0.2008  0.1898 -0.1755
11838TIP3    H156929   6.207   1.485  13.601 -1.2739  0.1416  1.3524
11838TIP3    H256930   6.110   1.575  13.528 -0.8784  0.2718  0.9843
11839TIP3   OH256931   5.971   3.979   1.183 -0.3758  0.1516 -0.3385
11839TIP3    H156932   6.047   3.979   1.126 -0.6493  1.0443 -0.7203
11839TIP3    H256933   5.919   4.053   1.154 -0.6757  0.4396  0.8646
11840TIP3   OH256934   5.133   5.880  12.745 -0.7545  0.5273  0.0173
11840TIP3    H156935   5.227   5.878  12.727 -0.0469 -0.8095  3.0935
11840TIP3    H256936   5.123   5.947  12.813 -1.4697 -1.3052  1.8214
11841TIP3   OH256937   1.367   2.202   0.591 -0.3983  0.0447  0.0763
11841TIP3    H156938   1.272   2.195   0.579 -0.3167 -0.9294 -0.1525
11841TIP3    H256939   1.402   2.130   0.538  0.2951 -1.1782  2.0749
11842TIP3   OH256940   2.553   0.644   3.154 -0.0785  0.3231 -0.6508
11842TIP3    H156941   2.641   0.626   3.121 -1.2608 -0.4926 -3.6486
11842TIP3    H256942   2.508   0.687   3.081 -2.5127 -0.3280  0.3594
11843TIP3   OH256943   6.391   6.369  11.793  0.0511  0.1794 -0.2016
11843TIP3    H156944   6.334   6.355  11.868  1.4444 -2.6209  0.4608
11843TIP3    H256945   6.473   6.401  11.831  0.9859 -1.8770 -0.3691
11844TIP3   OH256946   4.081   2.194  13.236  0.0950 -0.4675 -0.3313
11844TIP3    H156947   4.105   2.249  13.311 -1.9379 -1.6328  1.2571
11844TIP3    H256948   3.991   2.219  13.216 -0.1377 -1.7259 -0.9429
11845TIP3   OH256949   5.581   3.350   4.647  0.2576 -0.2331 -0.6990
11845TIP3    H156950   5.558   3.407   4.574  1.2148  0.9939 -0.0753
11845TIP3    H256951   5.532   3.269   4.630  0.4806 -0.0046 -2.6990
11846TIP3   OH256952   3.657   0.997  17.192 -0.1685 -0.4623 -0.1011
11846TIP3    H156953   3.656   1.022  17.284  0.3762 -0.2545 -0.1487
11846TIP3    H256954   3.614   0.911  17.190  0.9971 -1.0892  0.5367
11847TIP3   OH256955   6.733   6.128  17.196  0.3974 -0.3530 -0.5725
11847TIP3    H156956   6.732   6.181  17.275  0.6369 -3.6959  1.8978
11847TIP3    H256957   6.643   6.098  17.185  0.2787  0.3832 -1.8702
11848TIP3   OH256958   6.419   3.102  14.549 -0.1463 -0.6173  0.1070
11848TIP3    H156959   6.513   3.085  14.556  0.1385  0.4062 -0.9104
11848TIP3    H256960   6.378   3.016  14.554  1.0916 -1.5620 -3.1521
11849TIP3   OH256961   5.008   6.662  16.428  0.1370 -0.0582  0.2389
11849TIP3    H156962   5.027   6.756  16.434 -1.7860  0.5873 -2.0392
11849TIP3    H256963   4.920   6.658  16.389  0.1451 -2.8188  0.3079
11850TIP3   OH256964   4.614   5.726   0.505 -0.1118 -0.1161 -0.0560
11850TIP3    H156965   4.652   5.640   0.488  1.6355  0.3585  1.0924
11850TIP3    H256966   4.576   5.753   0.422  1.9304 -0.7716 -1.2851
11851TIP3   OH256967   2.611   5.181   3.608  0.0053  0.1707 -0.6344
11851TIP3    H156968   2.639   5.217   3.524  1.5196 -1.1621 -0.7557
11851TIP3    H256969   2.516   5.175   3.601 -0.0608  1.7530 -1.5443
11852TIP3   OH256970   2.801   3.001   4.085  0.0207 -0.7963  0.4762
11852TIP3    H156971   2.888   2.965   4.072 -0.0396 -0.2616 -1.6469
11852TIP3    H256972   2.745   2.953   4.025 -0.0891  2.5305 -2.4246
11853TIP3   OH256973   4.611   3.238   3.123  0.1115 -0.4410  0.0078
11853TIP3    H156974   4.646   3.324   3.145 -1.1720  0.2164 -0.4197
11853TIP3    H256975   4.569   3.250   3.037  0.6299 -1.7002 -0.4467
11854TIP3   OH256976   6.318   4.632   0.715 -0.3570 -0.6003  0.2668
11854TIP3    H156977   6.376   4.600   0.647  0.9935 -0.3804  1.2679
11854TIP3    H256978   6.281   4.712   0.679 -0.9122 -1.3253 -0.8145
11855TIP3   OH256979   5.156   4.652   4.741 -0.4695  0.0948 -0.1009
11855TIP3    H156980   5.211   4.694   4.807  0.4701 -0.5648 -0.4455
11855TIP3    H256981   5.121   4.574   4.785 -0.0369 -0.2147 -0.3015
11856TIP3   OH256982   4.396   0.349  10.549 -0.4075  0.0883  0.0594
11856TIP3    H156983   4.350   0.431  10.567 -0.0542  0.7937 -1.9379
11856TIP3    H256984   4.484   0.363  10.585 -0.1683  0.8504 -0.7645
11857TIP3   OH256985   1.427   4.365   0.540  0.1471 -0.3757  0.0946
11857TIP3    H156986   1.397   4.438   0.593 -0.5878  0.5483 -1.5313
11857TIP3    H256987   1.357   4.350   0.476  0.7976 -1.7314 -0.3627
11858TIP3   OH256988   1.387   6.045   0.059  0.5023  0.0170  0.2404
11858TIP3    H156989   1.297   6.067   0.034  0.6123  0.2743  0.0619
11858TIP3    H256990   1.437   6.056  -0.022  0.6722 -0.2594  0.3062
11859TIP3   OH256991   2.393   3.134  16.273  0.2167  0.1830  0.1388
11859TIP3    H156992   2.475   3.179  16.252  1.0347 -0.7351  1.2143
11859TIP3    H256993   2.352   3.188  16.340  0.4346  0.1462  0.3046
11860TIP3   OH256994   5.983   4.452  14.350 -0.4342 -0.4594  0.4054
11860TIP3    H156995   5.911   4.403  14.309 -0.5209 -0.3299  0.4010
11860TIP3    H256996   5.968   4.442  14.444  0.1126 -1.2694  0.4130
11861TIP3   OH256997   1.444   3.254   5.728  0.2853  0.0499 -0.3593
11861TIP3    H156998   1.367   3.200   5.707  1.0562 -0.9909 -0.5856
11861TIP3    H256999   1.428   3.282   5.819 -0.3054 -0.2472 -0.3614
11862TIP3   OH257000   6.254   4.999   3.086 -0.5841 -0.7142  0.8779
11862TIP3    H157001   6.184   5.003   3.022 -0.5147  1.1572  0.8735
11862TIP3    H257002   6.333   4.982   3.034 -0.6028  0.2630  0.5177
11863TIP3   OH257003   5.045   6.234  12.328  0.4360  0.4219  0.1987
11863TIP3    H157004   5.062   6.263  12.417  2.0762  1.3573 -0.3679
11863TIP3    H257005   5.115   6.170  12.310 -0.8424 -1.0192  0.1082
11864TIP3   OH257006   4.166   4.926  17.383  0.4434  0.2927  0.2808
11864TIP3    H157007   4.118   4.911  17.302  0.3073 -0.5577  0.5077
11864TIP3    H257008   4.139   5.014  17.411 -0.8905 -0.0985  0.3259
11865TIP3   OH257009   2.520   4.302   5.842 -0.0385 -0.3472 -0.4954
11865TIP3    H157010   2.526   4.389   5.881 -0.3429 -0.4865 -0.1369
11865TIP3    H257011   2.468   4.251   5.904  0.4920 -0.9014 -0.4981
11866TIP3   OH257012   0.597   0.988   2.843 -0.7036  0.1021  0.5354
11866TIP3    H157013   0.647   0.914   2.810 -1.1018  0.3067 -0.5530
11866TIP3    H257014   0.641   1.013   2.924 -0.6970 -1.4611  1.0416
11867TIP3   OH257015   4.071   2.526   2.426 -0.5262 -0.2602  0.0232
11867TIP3    H157016   4.022   2.569   2.496 -0.9944  0.7064 -0.8602
11867TIP3    H257017   4.154   2.574   2.421  0.3605 -1.5931  1.2020
11868TIP3   OH257018   4.973   1.095  12.484  0.3525  0.5090 -0.2509
11868TIP3    H157019   4.893   1.048  12.459  1.1886 -0.4738 -1.1962
11868TIP3    H257020   5.009   1.125  12.400  0.7526  1.3348  0.2071
11869TIP3   OH257021   0.466   1.792   2.503 -0.5951 -0.2628 -0.6696
11869TIP3    H157022   0.462   1.885   2.477  1.7908  0.4768  1.2178
11869TIP3    H257023   0.464   1.744   2.420 -1.4342  1.4850 -1.7204
11870TIP3   OH257024   6.282   5.875  15.793 -0.1744 -0.3682 -0.6049
11870TIP3    H157025   6.289   5.781  15.773 -0.0943 -0.5613  0.2688
11870TIP3    H257026   6.365   5.897  15.836  0.1720  0.3236 -1.5980
11871TIP3   OH257027   0.171   2.075   5.814 -0.0642 -0.2216  0.2909
11871TIP3    H157028   0.260   2.059   5.845 -0.4393  1.4333  2.3847
11871TIP3    H257029   0.181   2.085   5.719  2.1688  1.0088  0.5857
11872TIP3   OH257030   0.378   3.684  15.185  0.1041  0.1206 -0.2771
11872TIP3    H157031   0.288   3.652  15.183 -0.4775  1.7318 -1.3477
11872TIP3    H257032   0.414   3.662  15.100  0.1229  1.0657 -0.5270
11873TIP3   OH257033   3.011   3.833   4.915  0.8847 -0.0168 -0.1274
11873TIP3    H157034   2.958   3.911   4.934 -0.8587 -1.3001  0.5863
11873TIP3    H257035   3.001   3.819   4.821 -1.6478 -1.2394  0.2368
11874TIP3   OH257036   2.795   1.208   4.198 -0.3839  0.2440 -0.0724
11874TIP3    H157037   2.750   1.173   4.275 -1.0004  2.4642  0.6287
11874TIP3    H257038   2.873   1.153   4.189 -0.0080  0.2664  2.4565
11875TIP3   OH257039   4.732   1.938   1.528 -0.2034  0.2796  0.1079
11875TIP3    H157040   4.650   1.981   1.501  0.8915  3.0667  0.8684
11875TIP3    H257041   4.772   1.911   1.445 -1.4886 -0.4129 -0.3219
11876TIP3   OH257042   5.219   1.862   1.631 -0.0376 -0.6087 -0.4437
11876TIP3    H157043   5.133   1.822   1.644 -1.4714  2.5824  0.7917
11876TIP3    H257044   5.203   1.933   1.569  1.8834 -0.3659 -0.7251
11877TIP3   OH257045   6.336   1.535   4.047 -0.0080  0.0238 -0.5548
11877TIP3    H157046   6.249   1.540   4.007 -0.1542 -0.9319 -0.3860
11877TIP3    H257047   6.347   1.442   4.068  0.9993  0.1567 -0.4480
11878TIP3   OH257048   4.619   4.873  11.638  0.2379 -0.0703  0.1701
11878TIP3    H157049   4.635   4.906  11.550 -0.8060 -2.3114 -0.9350
11878TIP3    H257050   4.707   4.860  11.675  0.7554 -0.7608 -1.2394
11879TIP3   OH257051   4.347   4.890  17.096  0.1903  0.1519  0.1352
11879TIP3    H157052   4.342   4.974  17.142  1.7267 -0.2170  1.0759
11879TIP3    H257053   4.359   4.825  17.165  0.3412 -0.6983 -0.6597
11880TIP3   OH257054   5.053   1.801   5.699  0.1418 -0.4362 -0.4300
11880TIP3    H157055   5.117   1.743   5.740 -0.8797  0.0504  2.0202
11880TIP3    H257056   4.970   1.754   5.705 -0.3580  0.4479 -0.1792
11881TIP3   OH257057   5.281   3.488   2.729  0.0632  0.6558  0.2703
11881TIP3    H157058   5.205   3.531   2.767  0.4484 -0.7822  2.9084
11881TIP3    H257059   5.355   3.525   2.777  0.9737  1.2635 -1.5242
11882TIP3   OH257060   2.070   2.843  13.257 -0.1139 -0.0027 -0.4451
11882TIP3    H157061   2.128   2.906  13.301  0.3412 -0.1084 -0.8867
11882TIP3    H257062   1.988   2.847  13.307 -0.2049  1.1714 -0.6497
11883TIP3   OH257063   1.336   3.719   5.592  0.3974  0.0419  0.6178
11883TIP3    H157064   1.344   3.656   5.520 -1.1216  0.6206 -0.1078
11883TIP3    H257065   1.419   3.767   5.591 -0.7967  2.5439 -3.2738
11884TIP3   OH257066   3.236   0.163   2.390 -0.0366  0.2167 -0.5119
11884TIP3    H157067   3.314   0.165   2.444 -0.5538 -0.0270  0.2606
11884TIP3    H257068   3.164   0.153   2.452 -0.6602  0.1694 -1.2274
11885TIP3   OH257069   2.976   6.034   5.131  0.0972 -0.7517  0.4063
11885TIP3    H157070   2.931   6.117   5.117  1.5126 -0.2558 -1.6447
11885TIP3    H257071   3.043   6.053   5.197  0.7924 -0.0868 -0.4769
11886TIP3   OH257072   1.275   4.682   0.656 -0.1474 -0.0824 -0.0309
11886TIP3    H157073   1.228   4.621   0.599  0.9405 -0.0106 -1.0558
11886TIP3    H257074   1.312   4.747   0.596 -0.1145  0.7942  0.9060
11887TIP3   OH257075   0.046   4.327   2.352 -0.6167  0.3104  0.0395
11887TIP3    H157076  -0.031   4.383   2.367 -1.2285 -0.4703 -0.1359
11887TIP3    H257077   0.019   4.241   2.384  0.3630  0.1372  0.4261
11888TIP3   OH257078   3.208   2.836  13.722  0.0951 -0.7058  0.1301
11888TIP3    H157079   3.227   2.930  13.719  0.2015 -0.7401 -0.2350
11888TIP3    H257080   3.120   2.831  13.760 -0.5461 -0.3833 -1.2800
11889TIP3   OH257081   1.062   2.940   3.901  1.0022  0.2955  0.3458
11889TIP3    H157082   1.101   3.007   3.844  0.1723 -0.1748 -0.8274
11889TIP3    H257083   1.055   2.863   3.844  1.1645 -0.5394  1.4283
11890TIP3   OH257084   1.832   1.702  13.698 -0.5731 -0.2548 -0.2211
11890TIP3    H157085   1.881   1.629  13.737  2.6918  0.2227 -2.9888
11890TIP3    H257086   1.812   1.759  13.772  1.9261 -1.1977  1.3131
11891TIP3   OH257087   4.583   4.779  16.068  0.5102  0.5478  0.0944
11891TIP3    H157088   4.534   4.702  16.038  0.8549  0.9170 -1.5072
11891TIP3    H257089   4.568   4.845  16.001 -0.2968  2.1376  1.7483
11892TIP3   OH257090   5.185   4.631  11.742 -0.3156 -0.2739 -0.4531
11892TIP3    H157091   5.203   4.689  11.669 -0.7671 -0.2289 -0.5275
11892TIP3    H257092   5.161   4.548  11.701  3.0901 -1.4502 -0.3986
11893TIP3   OH257093   1.084   6.154  15.700 -0.3088 -0.1541 -0.2049
11893TIP3    H157094   1.176   6.138  15.681 -0.1554  1.5059 -1.0538
11893TIP3    H257095   1.063   6.234  15.652 -2.0223 -0.1312  0.5018
11894TIP3   OH257096   0.305   1.941  17.376  0.0423 -0.1546 -0.3904
11894TIP3    H157097   0.305   1.922  17.282 -1.7168 -1.3369 -0.2060
11894TIP3    H257098   0.233   2.003  17.388 -0.4383 -0.8131  0.2823
11895TIP3   OH257099   5.108   0.679  12.499 -0.3237 -0.1460 -0.2481
11895TIP3    H157100   5.168   0.744  12.536  0.0081 -0.4832 -0.1886
11895TIP3    H257101   5.136   0.670  12.408 -0.4072 -0.1644 -0.2721
11896TIP3   OH257102   4.819   5.732  16.062 -0.1218 -0.6057  0.1524
11896TIP3    H157103   4.881   5.737  16.135 -0.0774  1.0100  0.0570
11896TIP3    H257104   4.764   5.810  16.073 -0.4641 -0.6280 -1.2226
11897TIP3   OH257105   6.006   2.695  11.516 -0.1428 -0.2391  0.6103
11897TIP3    H157106   5.923   2.651  11.537  0.0029  0.1601  2.1719
11897TIP3    H257107   6.011   2.692  11.421 -1.8179 -0.5272  0.4931
11898TIP3   OH257108   0.015   4.127   1.361 -0.2545 -0.3388 -0.1319
11898TIP3    H157109  -0.054   4.114   1.426  0.4918  2.7326  1.4838
11898TIP3    H257110  -0.026   4.182   1.293 -0.0583 -0.5739 -0.4432
11899TIP3   OH257111   0.108   6.648  11.535  0.2862  0.2157  0.1571
11899TIP3    H157112   0.134   6.740  11.534  0.4437  0.1671 -0.2873
11899TIP3    H257113   0.183   6.601  11.499 -0.1125  0.0011 -0.4064
11900TIP3   OH257114   6.440   0.078  14.106 -0.4585  0.1701 -0.1745
11900TIP3    H157115   6.446   0.167  14.143  0.3301 -0.1410  0.4566
11900TIP3    H257116   6.383   0.031  14.166 -0.5509  0.1334 -0.2896
11901TIP3   OH257117   3.068   1.662  11.745 -0.6823 -0.0692 -0.1758
11901TIP3    H157118   3.048   1.573  11.774  2.4134 -1.1779 -1.0205
11901TIP3    H257119   3.004   1.679  11.676 -1.4302 -1.5885  0.0806
11902TIP3   OH257120   2.449   1.142   2.953  0.7048  0.0356  0.1137
11902TIP3    H157121   2.382   1.082   2.919  0.0729 -0.0627  1.4696
11902TIP3    H257122   2.419   1.163   3.042  0.8992  2.3434 -0.2971
11903TIP3   OH257123   5.535   4.476  12.967 -0.0079 -0.0138  0.1804
11903TIP3    H157124   5.625   4.507  12.953 -0.4082  0.6334 -1.0201
11903TIP3    H257125   5.521   4.412  12.897 -0.7163  0.3896 -0.0519
11904TIP3   OH257126   3.120   6.616  12.401 -0.4214 -0.1217  0.3696
11904TIP3    H157127   3.106   6.708  12.382  0.4355 -0.1366 -0.4119
11904TIP3    H257128   3.033   6.577  12.396 -0.4949  0.1663 -2.1358
11905TIP3   OH257129   5.832   0.685   5.402  0.5340  0.3464  0.4418
11905TIP3    H157130   5.806   0.741   5.476 -1.9625 -1.6334  1.2217
11905TIP3    H257131   5.775   0.712   5.330 -1.5008 -1.7339  1.1412
11906TIP3   OH257132   4.539   4.920   1.631 -0.5075  0.0738  0.0323
11906TIP3    H157133   4.585   4.885   1.707 -0.4369 -0.6863 -0.3527
11906TIP3    H257134   4.559   5.013   1.631  0.4130 -0.1197  0.2989
11907TIP3   OH257135   0.332   1.397  15.549 -0.4560 -0.2223 -0.1390
11907TIP3    H157136   0.328   1.455  15.472  1.1228  0.5992  0.3519
11907TIP3    H257137   0.412   1.347  15.537 -1.5809 -2.0820 -0.3336
11908TIP3   OH257138   6.228   5.350   5.843  0.1566 -0.1469 -0.0823
11908TIP3    H157139   6.175   5.336   5.765  0.5240  0.2136 -0.4041
11908TIP3    H257140   6.300   5.406   5.813  0.9748 -1.0121  0.2476
11909TIP3   OH257141   5.609   1.839  16.387 -0.1321 -0.1246  0.2447
11909TIP3    H157142   5.568   1.761  16.424  0.3799 -0.1914  0.6863
11909TIP3    H257143   5.587   1.909  16.449  1.9923 -0.5172  1.5602
11910TIP3   OH257144   5.755   4.481  11.295 -0.1632 -0.0868 -0.3879
11910TIP3    H157145   5.749   4.386  11.305 -0.3519 -0.1721 -1.2152
11910TIP3    H257146   5.702   4.501  11.218 -0.4994  0.7507  0.0398
11911TIP3   OH257147   3.474   4.061   6.587  0.1600 -0.2828  0.1333
11911TIP3    H157148   3.488   4.041   6.495  1.9013  0.6331  0.1438
11911TIP3    H257149   3.491   3.979   6.633 -2.6457 -1.2711 -0.4356
11912TIP3   OH257150   1.651   0.064  12.022 -0.1105 -0.0227  0.3445
11912TIP3    H157151   1.595   0.123  12.072 -0.6717  0.5066 -0.8549
11912TIP3    H257152   1.594   0.030  11.953  0.8814  0.0547 -0.5406
11913TIP3   OH257153   0.779   0.406   1.000 -0.3934 -0.5693 -0.0812
11913TIP3    H157154   0.703   0.454   0.966 -0.2194  0.1446  0.5245
11913TIP3    H257155   0.842   0.407   0.927  0.5260  2.1464  0.6167
11914TIP3   OH257156   4.545   0.641   5.351  0.6251  0.0128 -0.0519
11914TIP3    H157157   4.541   0.735   5.367 -1.5573  0.0129 -0.2438
11914TIP3    H257158   4.523   0.631   5.259 -1.9354 -0.7764  0.5693
11915TIP3   OH257159   5.171   5.788  13.076 -0.4437  0.0602  0.0958
11915TIP3    H157160   5.177   5.882  13.055 -0.8931  0.1211  0.2244
11915TIP3    H257161   5.220   5.745  13.007 -0.1062  0.4015  0.1160
11916TIP3   OH257162   1.909   6.413   5.894 -0.9361  0.2059  0.7348
11916TIP3    H157163   1.861   6.383   5.817 -1.0395 -0.0070  0.8813
11916TIP3    H257164   1.920   6.335   5.948  0.5519  0.0185  0.1963
11917TIP3   OH257165   4.987   2.115  10.724 -0.2328 -0.3935 -0.1669
11917TIP3    H157166   4.915   2.117  10.661  0.2942  0.1808 -0.7613
11917TIP3    H257167   4.952   2.161  10.800 -0.8870 -1.1330 -0.0021
11918TIP3   OH257168   3.472   1.923  15.275 -0.1444  0.2056 -0.0518
11918TIP3    H157169   3.562   1.928  15.240  0.1988  3.0508  0.9439
11918TIP3    H257170   3.418   1.964  15.207 -0.7243 -1.3285 -0.5647
11919TIP3   OH257171   3.996   5.766   2.407  0.3001 -0.4493  0.5202
11919TIP3    H157172   3.966   5.851   2.440 -0.1890 -0.1935 -0.5442
11919TIP3    H257173   3.937   5.702   2.447 -1.2951 -0.0120 -1.0116
11920TIP3   OH257174   4.808   1.856   1.272  0.2970  0.1966 -0.0790
11920TIP3    H157175   4.863   1.925   1.237 -0.6856  1.1578  0.2168
11920TIP3    H257176   4.748   1.835   1.200  0.4678 -0.2056 -0.1038
11921TIP3   OH257177   5.914   4.145   2.951  0.3302  0.0060  0.0239
11921TIP3    H157178   5.910   4.148   3.046  1.3447 -0.4215  0.0993
11921TIP3    H257179   5.859   4.218   2.921  0.9723  0.8991  0.9647
11922TIP3   OH257180   2.656   5.305  17.170  0.5544  0.0322  0.2342
11922TIP3    H157181   2.634   5.258  17.090  0.5712  0.9867 -0.3416
11922TIP3    H257182   2.592   5.275  17.235 -0.6483  0.6569 -0.6420
11923TIP3   OH257183   5.427   1.121   5.789 -0.5242 -0.2810  0.3351
11923TIP3    H157184   5.367   1.138   5.862 -0.9508  0.7743 -0.2454
11923TIP3    H257185   5.435   1.026   5.786 -1.7727 -0.4136  0.7401
11924TIP3   OH257186   2.159   1.468  14.562 -0.3074 -0.4402 -0.1177
11924TIP3    H157187   2.103   1.537  14.526  2.3189  3.0226  1.8139
11924TIP3    H257188   2.108   1.388  14.551 -3.3341  1.6057 -3.1452
11925TIP3   OH257189   6.118   1.793   1.694  0.0644 -0.2119 -0.3300
11925TIP3    H157190   6.118   1.702   1.663 -0.5501  0.4958 -2.5501
11925TIP3    H257191   6.210   1.813   1.710  0.3971 -0.6982 -1.5087
11926TIP3   OH257192   3.139   3.419   3.732  0.5243  0.3728  0.4221
11926TIP3    H157193   3.139   3.324   3.736 -0.0724  0.3246 -0.3813
11926TIP3    H257194   3.046   3.443   3.733  0.6185  0.8694 -0.5327
11927TIP3   OH257195   5.377   3.248  13.672  0.3007 -0.6420  0.3276
11927TIP3    H157196   5.323   3.299  13.732 -0.0246 -1.3207  0.6199
11927TIP3    H257197   5.386   3.304  13.595  0.2420 -0.0020  0.7796
11928TIP3   OH257198   4.944   3.629   0.804 -0.6989  0.7593  0.4993
11928TIP3    H157199   4.919   3.568   0.874  0.9215  0.1372  0.5712
11928TIP3    H257200   4.948   3.575   0.725  0.0616  0.8952  0.4350
11929TIP3   OH257201   4.624   0.177   6.030 -0.6856 -0.3983 -0.2940
11929TIP3    H157202   4.637   0.204   6.121  0.6891  2.1608 -1.1315
11929TIP3    H257203   4.562   0.242   5.996 -1.1967 -1.3418 -1.1857
11930TIP3   OH257204   2.340   2.350  14.909 -0.1686  0.2029  0.4429
11930TIP3    H157205   2.365   2.440  14.932 -0.1751  0.5958 -0.9504
11930TIP3    H257206   2.262   2.332  14.961  1.8663 -0.3876  3.5460
11931TIP3   OH257207   6.075   0.146   2.896 -0.2808  0.9773 -0.0613
11931TIP3    H157208   6.006   0.126   2.958 -1.6305  1.5076 -1.3446
11931TIP3    H257209   6.114   0.062   2.874 -1.6287  0.4608 -0.5639
11932TIP3   OH257210   4.584   3.106  17.172 -0.6203 -0.0487 -0.2573
11932TIP3    H157211   4.610   3.022  17.133 -0.4961 -0.4358  0.6516
11932TIP3    H257212   4.498   3.089  17.210  0.1947 -0.2956  1.5544
11933TIP3   OH257213   2.863   4.606   2.396 -0.2110  0.1332  0.2908
11933TIP3    H157214   2.892   4.520   2.428  0.5767 -0.0542 -0.8456
11933TIP3    H257215   2.814   4.587   2.316  1.5340  0.7948 -1.0261
11934TIP3   OH257216   5.513   0.721  11.919  0.5274 -0.0356 -0.4782
11934TIP3    H157217   5.531   0.656  11.850 -0.5551  0.4541 -1.2593
11934TIP3    H257218   5.510   0.804  11.872  1.8782  0.6066  0.5150
11935TIP3   OH257219   2.521   1.943   4.023  0.6623 -0.2121 -0.1445
11935TIP3    H157220   2.521   2.006   3.951  0.7071 -0.5379 -0.4302
11935TIP3    H257221   2.526   1.997   4.102 -2.7147  0.4125 -0.1747
11936TIP3   OH257222   2.196   5.538  16.509  0.0473 -0.2488 -0.1626
11936TIP3    H157223   2.105   5.566  16.511 -0.5877 -2.2309  0.7222
11936TIP3    H257224   2.246   5.619  16.493 -1.7843  0.9932  0.1471
11937TIP3   OH257225   5.803   3.435  15.806 -0.1814  0.5650  0.2577
11937TIP3    H157226   5.710   3.454  15.823 -0.6406 -1.3777  0.1433
11937TIP3    H257227   5.810   3.434  15.711 -1.3412 -4.2872 -0.0498
11938TIP3   OH257228   3.537   0.987  16.767 -0.3821  0.4546  0.4355
11938TIP3    H157229   3.504   1.006  16.679 -0.2667 -1.1464  0.0292
11938TIP3    H257230   3.462   0.952  16.814  0.3405 -2.0474 -0.1262
11939TIP3   OH257231   3.461   2.484  12.208  0.2437 -0.3274 -0.4596
11939TIP3    H157232   3.407   2.409  12.233  1.1608 -1.0118 -0.5078
11939TIP3    H257233   3.400   2.557  12.206 -0.4125 -0.8032  0.9534
11940TIP3   OH257234   5.193   5.628  13.304 -0.4581  0.2750  0.3398
11940TIP3    H157235   5.172   5.702  13.362 -1.5952  0.2462 -0.0164
11940TIP3    H257236   5.194   5.666  13.216  1.8301  0.4341  0.3911
11941TIP3   OH257237   0.214   2.893  15.162  0.4169  0.1747 -0.0164
11941TIP3    H157238   0.159   2.950  15.215  0.6512  0.1839  0.2211
11941TIP3    H257239   0.234   2.944  15.084  0.5951  0.4062  0.1784
11942TIP3   OH257240   6.750   0.362  14.038 -0.1312 -0.1469 -0.0459
11942TIP3    H157241   6.744   0.332  14.129  1.9001  0.1921  0.2465
11942TIP3    H257242   6.811   0.301  13.997 -0.0995  0.4247 -0.8595
11943TIP3   OH257243   1.801   1.198  13.798 -0.6077 -0.4040  0.3854
11943TIP3    H157244   1.827   1.164  13.883  0.7810  1.1587  0.6540
11943TIP3    H257245   1.754   1.279  13.818  1.3424  0.9952 -0.2813
11944TIP3   OH257246   6.710   3.385   4.693  0.4485  0.0791 -0.4589
11944TIP3    H157247   6.771   3.393   4.766 -0.0547 -0.8535  0.0774
11944TIP3    H257248   6.729   3.300   4.655 -0.8321 -0.4483  0.0286
11945TIP3   OH257249   2.847   4.202  13.041  0.1870  0.2977  0.5224
11945TIP3    H157250   2.920   4.240  12.993  0.1289 -0.2029  0.0184
11945TIP3    H257251   2.771   4.217  12.985 -0.2010  1.3169  1.3033
11946TIP3   OH257252   5.350   4.756   1.716 -0.4364  0.2154  0.7995
11946TIP3    H157253   5.367   4.842   1.754  1.0397  0.1697  0.2869
11946TIP3    H257254   5.435   4.714   1.712 -0.8584 -0.5778 -0.6635
11947TIP3   OH257255   3.868   4.464   1.895  0.0554  0.2190  0.5636
11947TIP3    H157256   3.843   4.378   1.929 -0.7427  0.8370  1.5852
11947TIP3    H257257   3.935   4.444   1.828  1.3073 -1.0759  2.1140
11948TIP3   OH257258   0.512   2.315  14.298  0.2223  0.2498  0.1792
11948TIP3    H157259   0.525   2.351  14.386 -0.1634  0.3807  0.1876
11948TIP3    H257260   0.492   2.223  14.312 -1.0138  0.5222  0.3191
11949TIP3   OH257261   1.281   1.618  14.827 -0.2882  0.2085  0.0415
11949TIP3    H157262   1.225   1.569  14.886  0.3063 -1.0451 -0.4062
11949TIP3    H257263   1.275   1.571  14.744  3.5804 -1.7597  0.6355
11950TIP3   OH257264   1.223   2.184   6.611 -0.4210 -0.2922 -0.7639
11950TIP3    H157265   1.226   2.237   6.531  1.5067 -0.6925 -0.9913
11950TIP3    H257266   1.205   2.095   6.580  0.7198 -0.5150 -0.7990
11951TIP3   OH257267   2.049   2.835  13.684  0.6630  0.2608 -0.0989
11951TIP3    H157268   2.044   2.889  13.764 -0.3337 -1.6587  1.2099
11951TIP3    H257269   1.963   2.794  13.678  0.0998  1.6317 -3.1903
11952TIP3   OH257270   1.787   3.961  15.732 -0.1512 -0.5887 -0.5185
11952TIP3    H157271   1.857   3.956  15.797 -0.4809 -0.1478 -0.1227
11952TIP3    H257272   1.758   3.870  15.722  0.5863 -0.7975 -0.8189
11953TIP3   OH257273   0.132   6.542  11.060 -0.2469  0.3834 -0.1929
11953TIP3    H157274   0.176   6.600  10.998 -0.7317 -0.5869 -1.4949
11953TIP3    H257275   0.178   6.458  11.052 -1.5257 -0.2957 -0.6765
11954TIP3   OH257276   1.757   5.052  16.653 -0.1394 -0.3880  0.1164
11954TIP3    H157277   1.675   5.098  16.635  0.3172 -0.2595 -1.8850
11954TIP3    H257278   1.825   5.110  16.620  0.6171 -1.3448 -0.0592
11955TIP3   OH257279   4.964   1.250  12.865  0.5830  0.0797 -0.3485
11955TIP3    H157280   4.957   1.156  12.847  1.1268 -0.1559  0.6013
11955TIP3    H257281   5.044   1.259  12.916  0.6442  1.0962 -0.6060
11956TIP3   OH257282   1.187   4.921  11.865 -0.3237 -0.2031  0.1218
11956TIP3    H157283   1.118   4.910  11.799 -1.1754  0.5898  0.8525
11956TIP3    H257284   1.183   4.841  11.917 -1.6438  0.3928  1.0009
11957TIP3   OH257285   0.062   5.158   5.638  0.4932 -0.3788  0.5694
11957TIP3    H157286   0.039   5.090   5.575 -0.4321 -1.9568  2.4694
11957TIP3    H257287  -0.007   5.223   5.631  0.9968  0.0357 -0.7762
11958TIP3   OH257288   3.436   4.727  17.081 -0.0662  0.2172  0.5022
11958TIP3    H157289   3.420   4.692  17.169 -0.1662  0.0023  0.3980
11958TIP3    H257290   3.498   4.799  17.095 -2.0039  1.8545  1.0612
11959TIP3   OH257291   2.382   0.786   4.169  0.3613  0.1721 -0.3377
11959TIP3    H157292   2.432   0.850   4.119  1.0234 -0.6422 -0.7454
11959TIP3    H257293   2.444   0.714   4.184 -0.3209 -0.3068  0.2341
11960TIP3   OH257294   0.321   3.401  14.706  0.0457 -0.2405 -0.0103
11960TIP3    H157295   0.233   3.377  14.734 -0.3910  0.6677 -0.5327
11960TIP3    H257296   0.308   3.445  14.622  0.9468  0.3396  0.1380
11961TIP3   OH257297   0.905   3.483   4.440  0.5719  0.4663  0.7876
11961TIP3    H157298   0.923   3.562   4.389  1.1914  0.4480  0.9612
11961TIP3    H257299   0.916   3.411   4.378  0.7348  0.4781  0.8017
11962TIP3   OH257300   0.749   0.249  12.138 -0.0790 -0.1836 -0.3581
11962TIP3    H157301   0.692   0.181  12.101  0.2532 -0.7432  0.1426
11962TIP3    H257302   0.827   0.202  12.168 -0.5011  0.1662  1.4236
11963TIP3   OH257303   1.238   5.301  13.039 -0.6156  0.1481  0.5005
11963TIP3    H157304   1.177   5.300  13.114  0.4618 -1.9232  1.4212
11963TIP3    H257305   1.321   5.331  13.076  0.2605 -2.0894  0.4843
11964TIP3   OH257306   0.448   3.020  13.810  0.2052  0.4358  0.0799
11964TIP3    H157307   0.443   3.110  13.844  0.8138 -0.1297  1.8003
11964TIP3    H257308   0.525   3.020  13.753  1.3390  0.5900  1.5527
11965TIP3   OH257309   0.474   4.777   0.283 -0.1943 -0.4454  0.8336
11965TIP3    H157310   0.429   4.722   0.219 -0.0223  1.0919 -0.6670
11965TIP3    H257311   0.405   4.832   0.320 -0.1043 -0.5284  1.1277
11966TIP3   OH257312   5.442   4.891   4.066 -0.5329  0.6791  0.1408
11966TIP3    H157313   5.357   4.864   4.031 -0.0162 -0.0293 -0.6171
11966TIP3    H257314   5.425   4.909   4.158 -1.3017 -0.4634  0.2489
11967TIP3   OH257315   1.096   1.408  11.335  0.1727  0.0335  0.6447
11967TIP3    H157316   1.037   1.471  11.378  0.7587  0.7140  0.4838
11967TIP3    H257317   1.085   1.327  11.384 -1.1841  0.0302  0.3814
11968TIP3   OH257318   6.556   4.131   6.461  0.5057 -0.1356  0.2141
11968TIP3    H157319   6.492   4.061   6.471  3.0089 -3.0926 -2.4113
11968TIP3    H257320   6.640   4.090   6.477  2.0371  2.6932  0.0760
11969TIP3   OH257321   5.506   0.906  11.673 -0.1573  0.2408 -0.4202
11969TIP3    H157322   5.418   0.867  11.680 -0.1814 -0.0945 -2.1598
11969TIP3    H257323   5.557   0.841  11.625  0.9467  0.6276  0.1877
11970TIP3   OH257324   0.080   2.537  14.236 -0.3766  0.2721 -0.8186
11970TIP3    H157325  -0.001   2.533  14.185 -0.5040  0.9954 -0.6813
11970TIP3    H257326   0.120   2.619  14.210  0.3282 -0.0903 -0.8965
11971TIP3   OH257327   5.861   3.192   2.390  0.3916 -0.0246 -1.0502
11971TIP3    H157328   5.822   3.261   2.444 -0.8848 -0.7696 -0.9647
11971TIP3    H257329   5.820   3.203   2.304 -1.4386 -1.8869 -0.5001
11972TIP3   OH257330   2.482   2.924  14.144  0.5670  0.1084  0.1820
11972TIP3    H157331   2.450   2.944  14.232  1.6559  1.1531  0.3590
11972TIP3    H257332   2.577   2.936  14.149  0.5934  0.7016 -1.2640
11973TIP3   OH257333   2.130   2.299  11.664 -0.9271  0.2383 -0.0652
11973TIP3    H157334   2.052   2.354  11.663 -0.6466  1.0072  3.9785
11973TIP3    H257335   2.198   2.353  11.705  1.9314 -0.3445 -3.4950
11974TIP3   OH257336   1.775   4.463  12.985 -0.8078  0.1524  0.1752
11974TIP3    H157337   1.849   4.425  12.938 -0.7850  0.5981 -0.1655
11974TIP3    H257338   1.780   4.557  12.965 -1.8095  0.1075 -0.3549
11975TIP3   OH257339   2.334   1.950  12.038  0.0665 -0.0763 -0.1718
11975TIP3    H157340   2.354   1.904  12.119 -1.7081 -0.2489  0.2167
11975TIP3    H257341   2.391   1.910  11.972 -0.8449 -2.3243  0.3203
11976TIP3   OH257342   0.842   0.324   4.536 -1.1051 -0.0048  0.0786
11976TIP3    H157343   0.866   0.233   4.518  1.1676  0.1792  1.6422
11976TIP3    H257344   0.780   0.319   4.608  1.6320 -0.3544  2.6027
11977TIP3   OH257345   2.061   4.814  14.461 -0.5202  0.1784 -0.4625
11977TIP3    H157346   2.023   4.884  14.407 -1.5584  0.6373  0.8141
11977TIP3    H257347   2.107   4.758  14.399 -1.3122  0.9225 -1.7583
11978TIP3   OH257348   4.247   4.263  13.620  0.3263 -0.5064  0.6278
11978TIP3    H157349   4.279   4.313  13.695  1.2574 -0.7563  0.4052
11978TIP3    H257350   4.197   4.191  13.660 -1.7068  0.9767  0.9406
11979TIP3   OH257351   2.108   5.545   4.173 -0.2587  0.1042  0.2653
11979TIP3    H157352   2.108   5.522   4.266 -0.9766  0.5686  0.3877
11979TIP3    H257353   2.018   5.528   4.144  0.0767 -0.4613 -0.4561
11980TIP3   OH257354   6.639   0.824  13.517 -0.0276  0.0160 -0.1962
11980TIP3    H157355   6.551   0.819  13.554  0.1666 -1.0108  0.1724
11980TIP3    H257356   6.685   0.749  13.555  0.7829  0.1040 -0.9731
11981TIP3   OH257357   4.243   2.845  15.511  0.8413  0.0098 -0.6857
11981TIP3    H157358   4.331   2.880  15.504  0.7442  0.1271 -1.4513
11981TIP3    H257359   4.186   2.922  15.512  0.8362  0.0516  2.1548
11982TIP3   OH257360   1.825   3.602  15.640 -0.7398  0.1053  1.0985
11982TIP3    H157361   1.820   3.657  15.562  1.8512 -0.8100  0.1496
11982TIP3    H257362   1.780   3.521  15.616  1.1643 -0.6953 -0.0633
11983TIP3   OH257363   6.598   3.946  17.306 -0.2516 -0.2818  0.1481
11983TIP3    H157364   6.685   3.922  17.338  0.5466  1.4748 -0.5926
11983TIP3    H257365   6.604   4.040  17.288 -1.8242 -0.4399 -1.4397
11984TIP3   OH257366   3.843   3.424  14.121  0.2509  0.2894  0.4243
11984TIP3    H157367   3.785   3.461  14.188  1.4598 -0.6112  2.0362
11984TIP3    H257368   3.801   3.342  14.097  0.4286  0.0094  1.0288
11985TIP3   OH257369   3.351   3.640   4.286 -0.4574 -0.0712 -0.2520
11985TIP3    H157370   3.407   3.716   4.272  1.8733 -1.8254 -1.0100
11985TIP3    H257371   3.263   3.670   4.260  0.4117  2.2565 -0.7444
11986TIP3   OH257372   3.109   3.702   4.113  0.5137  0.5863 -0.1472
11986TIP3    H157373   3.033   3.656   4.076  0.1771 -1.0056  2.2551
11986TIP3    H257374   3.184   3.664   4.067 -0.0107  0.7205 -1.1499
11987TIP3   OH257375   2.149   0.174  11.930 -0.4389 -1.0705 -0.2555
11987TIP3    H157376   2.183   0.106  11.871  0.4867  1.1159 -2.4289
11987TIP3    H257377   2.088   0.224  11.876 -1.4855 -0.4546  1.4310
11988TIP3   OH257378   1.230   0.390  12.819  0.4445 -0.1013 -0.3478
11988TIP3    H157379   1.257   0.371  12.729  0.5461  0.3524 -0.4193
11988TIP3    H257380   1.312   0.390  12.869  0.1753 -2.6407  0.2080
11989TIP3   OH257381   3.453   3.990  16.619  0.0555 -0.4484 -0.2946
11989TIP3    H157382   3.412   3.963  16.701  0.1668 -1.4312 -0.5518
11989TIP3    H257383   3.470   4.084  16.630  0.1081 -0.5809  0.8156
11990TIP3   OH257384   1.447   1.649   4.123 -0.0456  0.4180  0.5102
11990TIP3    H157385   1.518   1.601   4.165 -0.1446  0.6335  0.9257
11990TIP3    H257386   1.436   1.606   4.037 -0.7558 -0.9121  1.2294
11991TIP3   OH257387   1.812   1.614   4.671  0.9809  0.1188  0.3743
11991TIP3    H157388   1.808   1.552   4.598  2.6375  1.8645 -1.3288
11991TIP3    H257389   1.733   1.596   4.722 -0.6586 -0.7369 -2.2539
11992TIP3   OH257390   4.996   0.472   4.730 -0.0405  0.3224 -0.0783
11992TIP3    H157391   5.035   0.438   4.810 -1.0265 -0.5880  0.0347
11992TIP3    H257392   5.042   0.555   4.715  0.8843  0.0053  0.8420
11993TIP3   OH257393   6.455   6.176   2.119 -0.0668 -0.0412  0.2015
11993TIP3    H157394   6.465   6.202   2.028  1.2356 -0.7147  0.1262
11993TIP3    H257395   6.373   6.217   2.147 -1.2262 -0.9424 -1.6602
11994TIP3   OH257396   0.943   6.612   1.190  0.0813  0.3736 -0.0271
11994TIP3    H157397   1.006   6.540   1.196 -0.4999 -0.1543 -0.1564
11994TIP3    H257398   0.983   6.675   1.130 -0.2272 -0.7088 -1.3917
11995TIP3   OH257399   4.473   6.689  12.773 -0.1865 -0.2390 -0.4217
11995TIP3    H157400   4.441   6.673  12.862 -1.2370  1.1005 -0.5244
11995TIP3    H257401   4.426   6.627  12.718  0.1607 -0.7892 -0.1024
11996TIP3   OH257402   0.829   1.890   5.378 -0.1122  0.2519  0.1566
11996TIP3    H157403   0.894   1.958   5.360  0.9915 -0.9723 -0.5925
11996TIP3    H257404   0.830   1.881   5.473 -0.0486  1.0601  0.2420
11997TIP3   OH257405   5.853   3.059   0.318  0.3251  0.4775  0.0057
11997TIP3    H157406   5.846   3.086   0.226  1.8907 -0.2509 -0.3713
11997TIP3    H257407   5.854   3.141   0.368  0.2585  0.9143 -0.6960
11998TIP3   OH257408   0.673   1.431   6.842 -0.6656 -0.2219 -0.2454
11998TIP3    H157409   0.585   1.462   6.862 -0.6095 -1.4106  2.1535
11998TIP3    H257410   0.720   1.508   6.810 -2.7684  0.2418 -2.4788
11999TIP3   OH257411   1.167   3.327   2.628  0.2828  0.6782  0.0584
11999TIP3    H157412   1.074   3.344   2.613  0.6354  1.6380 -1.1525
11999TIP3    H257413   1.171   3.295   2.718 -1.2825  0.0621 -0.0606
12000TIP3   OH257414   3.511   4.816  13.172 -0.1404 -0.3602 -0.4394
12000TIP3    H157415   3.557   4.899  13.158 -0.6481 -0.2813 -1.7917
12000TIP3    H257416   3.502   4.779  13.085  0.1147 -1.8780  0.1532
12001TIP3   OH257417   6.216   6.291   2.239  0.4336  0.1204 -0.1313
12001TIP3    H157418   6.222   6.356   2.168  1.0081 -1.1709 -1.3059
12001TIP3    H257419   6.151   6.328   2.299  0.8410  1.8423 -0.6843
12002TIP3   OH257420   5.398   4.750   4.638  0.3527  0.0311 -0.4557
12002TIP3    H157421   5.312   4.758   4.596 -0.2541  1.8864  0.9955
12002TIP3    H257422   5.391   4.672   4.692  0.1982 -0.8005 -1.6320
12003TIP3   OH257423   0.304   2.824   0.809 -0.3204  0.1919  0.4218
12003TIP3    H157424   0.266   2.855   0.726  2.1911  2.4934 -0.0227
12003TIP3    H257425   0.332   2.735   0.791 -1.3363  0.0799 -0.6732
12004TIP3   OH257426   3.807   5.592  12.408 -0.0936 -0.1382 -0.4392
12004TIP3    H157427   3.737   5.628  12.353  0.5516 -0.0921 -1.2527
12004TIP3    H257428   3.761   5.541  12.475 -0.9629  1.0204 -0.1222
12005TIP3   OH257429   6.207   4.366   1.301  0.2291 -0.7525 -0.6855
12005TIP3    H157430   6.213   4.438   1.364 -0.5115  0.3940 -1.8498
12005TIP3    H257431   6.256   4.294   1.340  1.6391  0.6328  0.1940
12006TIP3   OH257432   5.943   1.841  12.089 -0.5225  0.3455 -0.9121
12006TIP3    H157433   5.993   1.763  12.066  0.8407  1.3615 -1.5684
12006TIP3    H257434   5.852   1.811  12.093  0.0383 -1.4158 -0.3855
12007TIP3   OH257435   1.019   2.004   3.791  0.6301  0.3192  0.2750
12007TIP3    H157436   0.996   1.977   3.702  1.6591  1.3575 -0.3389
12007TIP3    H257437   1.113   2.022   3.787  1.0504 -1.1610  1.9929
12008TIP3   OH257438   1.427   3.136  14.357  0.1349  1.0611  0.3073
12008TIP3    H157439   1.365   3.063  14.353  0.8909  0.4583 -1.8065
12008TIP3    H257440   1.403   3.192  14.283  0.5181  2.1765  1.0042
12009TIP3   OH257441   6.363   0.566  16.309 -0.0675  0.7475  0.1918
12009TIP3    H157442   6.382   0.535  16.398 -1.1692 -0.3136  0.0787
12009TIP3    H257443   6.321   0.651  16.323 -0.0347  0.6910  0.6668
12010TIP3   OH257444   6.673   6.738   1.589  0.3848 -0.3536  0.0863
12010TIP3    H157445   6.681   6.832   1.607 -0.6066  0.1412 -1.7979
12010TIP3    H257446   6.675   6.732   1.494  0.0180 -2.2080  0.1653
12011TIP3   OH257447   1.629   5.293  11.857  0.3764 -0.3065  0.5788
12011TIP3    H157448   1.656   5.233  11.788  1.3967 -0.0071  0.6999
12011TIP3    H257449   1.534   5.301  11.846  0.1751 -2.1374  0.7400
12012TIP3   OH257450   1.850   2.423  13.730  0.5969 -0.5640  0.4094
12012TIP3    H157451   1.890   2.419  13.817 -0.7395  1.1068  1.1539
12012TIP3    H257452   1.895   2.495  13.686  1.4184 -1.5407 -0.4074
12013TIP3   OH257453   5.330   1.730  13.380  0.8064 -0.7933  0.2761
12013TIP3    H157454   5.312   1.663  13.446  2.0732 -1.1464  0.2851
12013TIP3    H257455   5.317   1.685  13.297  0.0466 -0.5849  0.2769
12014TIP3   OH257456   4.572   6.595  12.006  0.1154 -0.2325 -0.2970
12014TIP3    H157457   4.621   6.656  12.060  0.9908 -0.4237 -0.8643
12014TIP3    H257458   4.571   6.513  12.055  1.3222 -0.5451 -0.7645
12015TIP3   OH257459   3.056   2.559  13.258 -0.0885  0.7939 -0.0337
12015TIP3    H157460   2.967   2.550  13.291 -0.0351  0.4338  0.0241
12015TIP3    H257461   3.069   2.482  13.203  0.0472  1.0566 -0.3710
12016TIP3   OH257462   5.252   6.143  16.691 -0.3918  0.4967 -0.1891
12016TIP3    H157463   5.222   6.215  16.746  1.6351  1.0409  0.2925
12016TIP3    H257464   5.340   6.169  16.664  0.4407 -1.8423  0.0679
12017TIP3   OH257465   5.069   0.687   1.029  0.2702  0.0354  0.1017
12017TIP3    H157466   5.056   0.780   1.050  0.2139 -0.2491  1.4512
12017TIP3    H257467   5.153   0.666   1.069  0.1094 -0.5729  0.1250
12018TIP3   OH257468   5.361   5.915  16.473  0.0732  0.1936  0.0765
12018TIP3    H157469   5.447   5.953  16.460 -0.0478 -0.0076 -1.3986
12018TIP3    H257470   5.301   5.990  16.468  0.0145  0.0964 -0.6754
12019TIP3   OH257471   0.353   2.884   2.711 -0.4994 -0.2906 -0.6137
12019TIP3    H157472   0.299   2.933   2.649  1.2315  0.9990 -1.1869
12019TIP3    H257473   0.364   2.943   2.785 -0.9362 -1.0703  0.0985
12020TIP3   OH257474   3.883   5.506   2.954  0.1660 -0.1918  0.1858
12020TIP3    H157475   3.932   5.441   3.005 -0.8311 -0.7967  0.3940
12020TIP3    H257476   3.860   5.574   3.017  0.2732 -0.1698  0.2015
12021TIP3   OH257477   6.335   2.031   6.512  0.2208 -0.0772 -0.6605
12021TIP3    H157478   6.381   2.092   6.569 -0.2629 -0.3704  0.0540
12021TIP3    H257479   6.307   2.084   6.438 -1.4372  0.9108  0.6185
12022TIP3   OH257480   2.512   0.874  12.973 -0.3451  0.6863 -0.1252
12022TIP3    H157481   2.572   0.915  12.910  1.0477  0.1010  0.7793
12022TIP3    H257482   2.428   0.870  12.927  0.3327  1.3983 -1.4822
12023TIP3   OH257483   0.057   5.451  13.729 -0.1353 -0.9856  0.0979
12023TIP3    H157484   0.077   5.543  13.744  1.1163 -1.4932  1.8453
12023TIP3    H257485   0.073   5.439  13.635  2.3832 -0.0038  0.3083
12024TIP3   OH257486   1.989   4.747  11.168  0.0917 -0.1464  0.2588
12024TIP3    H157487   1.935   4.786  11.098 -0.2669 -0.6557  0.2476
12024TIP3    H257488   2.078   4.779  11.149 -0.0587  0.0069 -0.2254
12025TIP3   OH257489   6.400   1.332   5.364 -0.1860  0.0744 -0.9703
12025TIP3    H157490   6.371   1.412   5.408  2.0171  0.9658 -1.0322
12025TIP3    H257491   6.404   1.266   5.433  0.8620  0.8123 -0.3061
12026TIP3   OH257492   5.432   4.986   5.152  0.1228 -0.1632 -0.8616
12026TIP3    H157493   5.438   5.078   5.176  2.0530 -0.6300  0.7506
12026TIP3    H257494   5.341   4.962   5.166 -0.4676  1.5545 -1.6159
12027TIP3   OH257495   3.220   4.126   2.256  0.2985  0.2027  0.3509
12027TIP3    H157496   3.220   4.085   2.343 -0.3130 -0.4592  0.0533
12027TIP3    H257497   3.304   4.103   2.218  0.7313  0.8235  0.9118
12028TIP3   OH257498   1.158   6.520   1.642  0.2234 -0.6624 -0.1064
12028TIP3    H157499   1.240   6.518   1.692 -0.2156 -1.1258  0.5957
12028TIP3    H257500   1.118   6.604   1.664 -0.1647 -1.0391  0.6419
12029TIP3   OH257501   6.748   3.130   6.353 -0.4076 -0.0530  0.3866
12029TIP3    H157502   6.810   3.179   6.299  0.4319 -1.5225 -0.0554
12029TIP3    H257503   6.762   3.163   6.441 -0.5985  1.1964 -0.0279
12030TIP3   OH257504   2.751   4.039  15.857  0.0158  0.0047 -0.6319
12030TIP3    H157505   2.832   4.038  15.907  0.6251 -0.5198 -1.5959
12030TIP3    H257506   2.683   4.020  15.921  0.7880 -0.7575 -0.0132
12031TIP3   OH257507   4.134   4.168   6.050 -0.1432  0.5489  0.2396
12031TIP3    H157508   4.070   4.239   6.045 -1.9686 -1.0384 -0.6196
12031TIP3    H257509   4.094   4.103   6.108  1.7572  0.4444  1.5107
12032TIP3   OH257510   5.910   5.600   6.694 -0.2381  0.4690  0.1324
12032TIP3    H157511   5.973   5.659   6.655 -1.2297  1.9218  0.6500
12032TIP3    H257512   5.860   5.565   6.620  1.9088 -1.7227 -0.4289
12033TIP3   OH257513   3.352   2.436   5.986 -0.0258 -0.1536 -0.0268
12033TIP3    H157514   3.430   2.457   6.037  0.2479 -0.4283 -0.3256
12033TIP3    H257515   3.283   2.421   6.051  0.3181 -0.5035  0.2549
12034TIP3   OH257516   5.012   3.209   2.356 -0.6728  0.7013  0.2154
12034TIP3    H157517   4.961   3.175   2.283  0.3245 -0.8657  0.2123
12034TIP3    H257518   5.099   3.171   2.346  0.0502  1.9933  1.1492
12035TIP3   OH257519   4.610   6.078  11.360 -0.2924 -0.3409  0.6778
12035TIP3    H157520   4.525   6.037  11.349 -1.0810  1.3909 -0.1402
12035TIP3    H257521   4.673   6.007  11.346 -1.5687 -1.6982  1.5326
12036TIP3   OH257522   1.105   6.599   2.546  0.0315 -0.8303 -0.3944
12036TIP3    H157523   1.020   6.624   2.581 -0.3153 -2.1330 -0.2541
12036TIP3    H257524   1.129   6.671   2.487 -0.9942 -0.2780 -0.1598
12037TIP3   OH257525   1.626   3.086   4.924 -0.4196  0.1287 -0.4653
12037TIP3    H157526   1.694   3.153   4.925 -1.3735  1.1364  0.0848
12037TIP3    H257527   1.564   3.117   4.858 -0.8557 -0.2228 -0.2238
12038TIP3   OH257528   2.172   3.585  11.589 -0.2810  0.1470  0.0369
12038TIP3    H157529   2.158   3.565  11.496  2.2248 -0.7375 -0.2045
12038TIP3    H257530   2.262   3.616  11.594 -0.0819 -0.5995  2.2804
12039TIP3   OH257531   0.754   0.553   2.963  0.4034  0.2102  0.5240
12039TIP3    H157532   0.678   0.553   2.905 -0.1715 -0.5493  1.2573
12039TIP3    H257533   0.822   0.508   2.914  0.2477  0.4899  0.0446
12040TIP3   OH257534   0.796   3.819  14.059 -0.5908 -0.3696  0.2879
12040TIP3    H157535   0.700   3.818  14.065 -0.6933 -0.7341 -0.9985
12040TIP3    H257536   0.819   3.911  14.055 -0.7542 -0.2166  1.9570
12041TIP3   OH257537   0.653   2.394  11.556 -0.4575  0.2738 -0.3465
12041TIP3    H157538   0.645   2.317  11.501  0.7269 -0.5100  0.5351
12041TIP3    H257539   0.563   2.419  11.577 -0.8782 -2.3915  1.4198
12042TIP3   OH257540   6.541   3.185  16.078  0.1459  0.6067 -0.1585
12042TIP3    H157541   6.470   3.138  16.120 -0.1985  2.0621  0.9765
12042TIP3    H257542   6.615   3.124  16.079 -1.5441 -1.8092 -3.3696
12043TIP3   OH257543   6.037   1.491   0.228  0.4408  0.0176  0.2512
12043TIP3    H157544   6.044   1.398   0.253  0.2743  0.5897  2.6177
12043TIP3    H257545   6.027   1.537   0.311 -1.7824  1.9816 -1.0177
12044TIP3   OH257546   3.772   0.420  16.029 -0.2761  0.4330 -0.4521
12044TIP3    H157547   3.695   0.463  16.064  0.4672 -0.1868  2.1867
12044TIP3    H257548   3.744   0.330  16.013 -0.6012  0.7017 -1.4435
12045TIP3   OH257549   1.807   1.586   1.786  0.1154 -0.2568  0.3403
12045TIP3    H157550   1.819   1.653   1.719 -0.5890 -2.1944 -1.8706
12045TIP3    H257551   1.787   1.506   1.736 -2.3851 -1.4072  2.9523
12046TIP3   OH257552   6.206   2.175   0.612  0.7110 -0.0265  0.3504
12046TIP3    H157553   6.122   2.180   0.567  1.0250  1.1731 -0.1440
12046TIP3    H257554   6.220   2.082   0.628  1.3288 -0.7551 -3.4590
12047TIP3   OH257555   0.985   0.476  13.940 -0.2820 -0.1444 -0.7280
12047TIP3    H157556   0.976   0.536  13.865 -1.4830 -0.2800 -0.7053
12047TIP3    H257557   1.079   0.477  13.959 -0.2757  1.9253 -0.5752
12048TIP3   OH257558   2.879   5.999  12.057  0.4061 -0.0356  0.1786
12048TIP3    H157559   2.938   5.998  11.981 -0.8901  1.4055 -0.9217
12048TIP3    H257560   2.803   5.949  12.029 -1.0774  2.3702 -0.4223
12049TIP3   OH257561   2.435   5.281  15.870 -0.2237  0.2226  0.2177
12049TIP3    H157562   2.525   5.311  15.879 -0.6458  1.3052  1.0121
12049TIP3    H257563   2.442   5.188  15.849  1.0516 -0.1526  2.1407
12050TIP3   OH257564   5.375   4.292   0.216 -0.3558 -0.7524  0.4183
12050TIP3    H157565   5.445   4.300   0.152  0.6424 -2.4216  1.2238
12050TIP3    H257566   5.311   4.235   0.175 -0.7802 -0.0454  0.0778
12051TIP3   OH257567   6.242   1.901  14.366 -0.0610 -0.4106  0.1748
12051TIP3    H157568   6.307   1.862  14.307  1.3545  2.0499 -0.0322
12051TIP3    H257569   6.159   1.894  14.318  1.0133  1.3111 -2.1280
12052TIP3   OH257570   0.106   2.914   6.569  0.4586 -0.2425 -0.2734
12052TIP3    H157571   0.136   2.823   6.575  0.4689 -0.1983  0.3478
12052TIP3    H257572   0.172   2.965   6.615  0.7626  0.1599 -1.1268
12053TIP3   OH257573   3.354   6.323  13.872 -0.1770 -0.7262 -0.3446
12053TIP3    H157574   3.362   6.342  13.966 -0.3079 -0.4455 -0.3917
12053TIP3    H257575   3.443   6.328  13.839 -0.3369  0.9264 -0.5765
12054TIP3   OH257576   4.266   1.295  12.268 -0.0628 -0.1952 -0.2668
12054TIP3    H157577   4.271   1.386  12.237 -0.3763 -0.4758 -1.1695
12054TIP3    H257578   4.356   1.264  12.266  0.0736  0.1475  0.2293
12055TIP3   OH257579   1.531   4.894   1.089  0.2016  0.1639 -0.8644
12055TIP3    H157580   1.542   4.985   1.117  2.0521 -0.7699  1.9048
12055TIP3    H257581   1.597   4.882   1.022  0.4805  0.6617 -0.6871
12056TIP3   OH257582   5.704   3.428   1.198 -0.1466 -0.0706 -0.0902
12056TIP3    H157583   5.674   3.516   1.177  0.5801  0.4898  1.1350
12056TIP3    H257584   5.707   3.383   1.114  0.9801  1.5369 -0.9495
12057TIP3   OH257585   5.479   4.980  13.450 -0.0782 -0.2990 -0.0746
12057TIP3    H157586   5.524   4.896  13.463  0.3900  0.2840  2.6878
12057TIP3    H257587   5.412   4.982  13.518  1.3010  2.3909  1.3785
12058TIP3   OH257588   4.244   3.997  12.857 -0.0725 -0.2322  0.0161
12058TIP3    H157589   4.260   4.087  12.828 -0.7959  0.3304  1.2783
12058TIP3    H257590   4.322   3.948  12.829  0.3145  0.7730 -0.7127
12059TIP3   OH257591   6.344   6.645  11.193  0.0966  0.1869  0.4160
12059TIP3    H157592   6.432   6.612  11.180  0.1757  1.2224 -2.4728
12059TIP3    H257593   6.315   6.673  11.106 -3.6384 -1.3733  0.9431
12060TIP3   OH257594   4.092   3.002  12.777  0.1350 -0.1040 -0.6351
12060TIP3    H157595   4.021   3.065  12.771 -1.6571 -1.9284  0.3473
12060TIP3    H257596   4.122   3.008  12.868 -0.5714 -1.1733 -0.3189
12061TIP3   OH257597   3.995   2.479   3.409 -0.1239 -0.6780  0.4136
12061TIP3    H157598   4.083   2.509   3.433 -0.8459  2.0241  0.0606
12061TIP3    H257599   3.966   2.429   3.484  1.1235 -0.2526  1.2209
12062TIP3   OH257600   3.341   5.192  13.022  0.2677  0.2524 -0.0705
12062TIP3    H157601   3.400   5.196  13.097 -0.1671  0.6793  0.2541
12062TIP3    H257602   3.388   5.239  12.953  1.9083 -2.4878 -0.9742
12063TIP3   OH257603   5.612   1.211   4.765 -0.5079 -0.4796 -1.0231
12063TIP3    H157604   5.650   1.211   4.853  0.4429 -0.2549 -1.4152
12063TIP3    H257605   5.688   1.213   4.707 -1.1316  0.1498 -1.8424
12064TIP3   OH257606   1.131   1.632  16.028  0.0198  0.5724  0.1837
12064TIP3    H157607   1.183   1.658  15.952 -0.1876 -0.4871 -0.3259
12064TIP3    H257608   1.075   1.562  15.997 -1.4829  1.4388  0.8138
12065TIP3   OH257609   4.109   2.378   4.959 -0.3679 -0.1493 -0.0467
12065TIP3    H157610   4.099   2.437   4.884  2.2565 -1.4023 -1.5085
12065TIP3    H257611   4.164   2.426   5.021 -1.5839  0.4320  0.6291
12066TIP3   OH257612   3.379   1.827   6.700 -0.4321  0.6275  0.2005
12066TIP3    H157613   3.416   1.866   6.621  0.8989 -0.4236  0.2726
12066TIP3    H257614   3.374   1.899   6.763 -2.9861  1.8523 -1.2686
12067TIP3   OH257615   5.137   1.902  13.058 -0.2636  0.3129  0.9779
12067TIP3    H157616   5.071   1.904  13.127 -0.9123 -0.7869  0.4148
12067TIP3    H257617   5.168   1.811  13.058 -0.9134  0.0697 -0.7535
12068TIP3   OH257618   1.746   5.359  14.451 -0.0937  0.0671  0.2597
12068TIP3    H157619   1.668   5.414  14.456  0.0273  0.3670 -1.0030
12068TIP3    H257620   1.804   5.394  14.518  1.6056  4.1004 -2.9153
12069TIP3   OH257621   0.238   2.020   0.845  0.1345 -0.0775  0.4094
12069TIP3    H157622   0.292   1.997   0.921  1.1474  0.0707 -0.2424
12069TIP3    H257623   0.299   2.063   0.785 -0.5040 -0.7508 -0.7506
12070TIP3   OH257624   4.628   5.647   3.292  0.3334  0.0340  0.7265
12070TIP3    H157625   4.572   5.676   3.220 -0.3266  0.0447  1.2349
12070TIP3    H257626   4.654   5.728   3.336  2.9605  0.2797 -1.0634
12071TIP3   OH257627   5.922   3.445  14.191 -0.9908 -0.5739  0.1559
12071TIP3    H157628   5.835   3.414  14.164 -1.2489  0.1375  0.1481
12071TIP3    H257629   5.953   3.497  14.116  0.6566 -3.0896 -1.0237
12072TIP3   OH257630   2.347   2.169  13.179 -0.1806  0.0779  0.1932
12072TIP3    H157631   2.427   2.133  13.141 -1.8447 -1.1278 -2.4716
12072TIP3    H257632   2.346   2.261  13.150  0.1690  0.0629  0.1254
12073TIP3   OH257633   2.491   2.825  14.470 -0.3332  0.1071 -0.0462
12073TIP3    H157634   2.501   2.778  14.388 -2.1263  0.8827 -0.7705
12073TIP3    H257635   2.532   2.910  14.455 -1.7840  0.7479 -0.6634
12074TIP3   OH257636   5.478   0.870   5.868 -0.1428  0.3459 -0.6273
12074TIP3    H157637   5.523   0.790   5.842 -0.7575 -0.2085 -0.0415
12074TIP3    H257638   5.446   0.851   5.957 -1.2832  0.8136 -0.9207
12075TIP3   OH257639   1.501   6.148  17.231 -0.3432  0.1496 -0.3617
12075TIP3    H157640   1.584   6.160  17.277 -0.5592 -0.4756  0.1924
12075TIP3    H257641   1.459   6.235  17.235  0.2508  0.4544 -0.5978
12076TIP3   OH257642   2.987   0.314   2.720  0.0655 -0.2518 -0.4172
12076TIP3    H157643   2.995   0.230   2.765  1.4916  0.2060  0.2665
12076TIP3    H257644   3.072   0.356   2.734  0.2585  0.3016 -2.8091
12077TIP3   OH257645   1.322   5.395   2.923 -0.3252  0.5820  0.2479
12077TIP3    H157646   1.391   5.407   2.989 -0.9646  1.7950  0.7249
12077TIP3    H257647   1.324   5.475   2.871  1.1169 -0.8994 -2.2020
12078TIP3   OH257648   1.430   3.490  14.529  0.5178 -0.1835 -0.3450
12078TIP3    H157649   1.462   3.580  14.532 -0.0154  0.0500 -1.2712
12078TIP3    H257650   1.485   3.447  14.463  1.4171 -0.8188  0.7771
12079TIP3   OH257651   3.940   0.904  17.394  0.0448  0.2549 -0.3885
12079TIP3    H157652   3.991   0.835  17.436  1.5732  1.2882 -0.4649
12079TIP3    H257653   3.855   0.864  17.375  0.1912 -0.9916  1.3836
12080TIP3   OH257654   3.766   3.172   2.104 -0.4613  0.3776  0.1414
12080TIP3    H157655   3.681   3.176   2.059 -0.7814  1.8172  0.8019
12080TIP3    H257656   3.806   3.091   2.073 -2.7189 -1.1340  0.9672
12081TIP3   OH257657   3.889   4.920   4.963  0.4502 -0.2129 -0.8928
12081TIP3    H157658   3.983   4.903   4.976 -0.0276 -1.9557  0.7071
12081TIP3    H257659   3.865   4.864   4.889  0.5560 -0.1916 -0.9441
12082TIP3   OH257660   4.114   1.907   0.059  0.1760 -0.2573 -0.4579
12082TIP3    H157661   4.087   1.834   0.004  0.5052 -1.0976  0.4824
12082TIP3    H257662   4.108   1.874   0.148  1.8428  0.3349 -0.0885
12083TIP3   OH257663   2.017   1.081  14.680 -0.4010  0.7190  0.1069
12083TIP3    H157664   1.965   1.000  14.678  1.1355 -0.3170  0.2225
12083TIP3    H257665   1.990   1.128  14.602 -0.3689 -0.5672 -0.7180
12084TIP3   OH257666   5.760   6.322  16.642  0.1696 -0.8112 -0.1948
12084TIP3    H157667   5.824   6.371  16.591  1.5434 -2.6671 -0.3684
12084TIP3    H257668   5.768   6.357  16.730  0.4968 -0.1417 -0.4855
12085TIP3   OH257669   0.070   4.889  15.863  0.1061  0.1911 -0.1572
12085TIP3    H157670   0.042   4.816  15.918 -2.1263  1.0625 -0.0130
12085TIP3    H257671   0.020   4.880  15.782  0.8353  0.8020 -0.6984
12086TIP3   OH257672   4.949   1.335   2.339 -0.0107 -0.3591  0.7701
12086TIP3    H157673   4.902   1.304   2.262  1.9721 -0.5413 -0.4503
12086TIP3    H257674   4.990   1.256   2.376  0.9224  0.0437  0.6353
12087TIP3   OH257675   4.266   3.188  13.292  0.2164 -0.2853  0.0360
12087TIP3    H157676   4.178   3.215  13.319  1.0784  2.2644  0.5535
12087TIP3    H257677   4.323   3.261  13.318  2.3950 -1.5418 -0.9237
12088TIP3   OH257678   5.520   4.583   1.948 -0.0600  0.1348  0.0173
12088TIP3    H157679   5.447   4.551   2.002 -0.3897 -1.1263 -1.1236
12088TIP3    H257680   5.511   4.678   1.949 -1.5479  0.0122  0.1558
12089TIP3   OH257681   2.624   4.263   3.183 -0.3645 -0.2602 -0.0134
12089TIP3    H157682   2.678   4.204   3.236  1.5052  0.1474 -1.3545
12089TIP3    H257683   2.611   4.216   3.100 -1.7143 -0.1493  0.1096
12090TIP3   OH257684   0.436   5.105  13.356 -0.2505 -0.0618  0.1300
12090TIP3    H157685   0.357   5.107  13.302  0.6258 -0.5316 -1.2279
12090TIP3    H257686   0.454   5.197  13.377 -0.4898  0.1498 -0.5759
12091TIP3   OH257687   0.620   0.339  12.418  0.4916  0.1050 -0.4805
12091TIP3    H157688   0.692   0.384  12.375 -0.1460  0.8630 -0.7767
12091TIP3    H257689   0.661   0.265  12.462  1.1992 -0.5989 -2.2198
12092TIP3   OH257690   5.534   6.205   1.100 -0.4284  0.1153 -0.0342
12092TIP3    H157691   5.480   6.132   1.068  0.8760 -0.8584 -0.0697
12092TIP3    H257692   5.487   6.283   1.070 -0.1673 -0.7135 -2.9451
12093TIP3   OH257693   4.060   5.062  15.906 -0.2950 -0.1824 -0.4022
12093TIP3    H157694   4.080   5.057  15.999  0.1241 -1.2030 -0.5430
12093TIP3    H257695   3.964   5.052  15.902 -0.0966 -2.9523 -0.2375
12094TIP3   OH257696   2.339   4.720   2.118  0.3211  0.7676 -0.4521
12094TIP3    H157697   2.312   4.629   2.121  0.3256  0.7109 -1.5856
12094TIP3    H257698   2.291   4.757   2.044  0.8331  1.5107 -0.4253
12095TIP3   OH257699   6.754   5.582   0.067 -0.2354 -1.0279 -0.0222
12095TIP3    H157700   6.763   5.676   0.051 -0.1592 -0.5603  2.3994
12095TIP3    H257701   6.843   5.548   0.055  0.1538 -0.4247  1.0301
12096TIP3   OH257702   0.704   1.392  14.525 -0.5118  0.2322  0.3622
12096TIP3    H157703   0.687   1.297  14.521 -2.8450  0.5705  0.8610
12096TIP3    H257704   0.652   1.428  14.454 -0.0941  1.1848  0.5377
12097TIP3   OH257705   6.013   6.134   3.590 -0.0384 -0.7903 -0.1941
12097TIP3    H157706   5.924   6.124   3.623  0.0517  1.3542  0.8084
12097TIP3    H257707   6.018   6.071   3.518 -2.0908 -1.5152  0.2161
12098TIP3   OH257708   1.030   0.192  17.109  0.5887  0.2770  0.6312
12098TIP3    H157709   1.082   0.117  17.138 -0.2180 -0.3383  0.5205
12098TIP3    H257710   1.046   0.259  17.176 -0.8703 -0.9499  2.2930
12099TIP3   OH257711   2.305   3.935  14.613  0.3806 -0.0242  0.5893
12099TIP3    H157712   2.283   3.847  14.584  1.8236 -1.0298  2.3675
12099TIP3    H257713   2.349   3.923  14.697  1.4173  2.3333  0.4683
12100TIP3   OH257714   6.592   3.590  15.223  0.6130 -0.2772  0.1733
12100TIP3    H157715   6.664   3.631  15.175 -0.1594  0.4425 -0.3989
12100TIP3    H257716   6.590   3.635  15.308 -0.3175  1.0108 -0.5015
12101TIP3   OH257717   5.012   6.497  17.139  0.6204 -0.0693  0.6149
12101TIP3    H157718   4.918   6.503  17.124  0.1286 -0.4752  3.1313
12101TIP3    H257719   5.033   6.405  17.124  0.4286 -0.1728  0.9775
12102TIP3   OH257720   5.945   4.144   3.573 -0.3239  0.1977 -0.5037
12102TIP3    H157721   5.892   4.141   3.652 -0.3239 -1.2180 -0.5242
12102TIP3    H257722   6.033   4.116   3.602 -0.1567  0.3337 -0.8682
12103TIP3   OH257723   1.265   0.115   3.361 -0.3687  0.4730  0.2910
12103TIP3    H157724   1.225   0.194   3.397  1.3375  1.1803  0.7839
12103TIP3    H257725   1.309   0.075   3.436 -2.8517 -2.1047  0.4983
12104TIP3   OH257726   3.480   6.587   0.675  0.3273 -0.3175  0.0936
12104TIP3    H157727   3.511   6.597   0.584 -1.6148 -2.1942 -0.8640
12104TIP3    H257728   3.548   6.534   0.717  0.2669 -1.2707 -0.9293
12105TIP3   OH257729   0.431   2.381   5.677  0.6550 -0.1581 -0.0114
12105TIP3    H157730   0.456   2.302   5.724 -0.6171 -1.0300 -0.7578
12105TIP3    H257731   0.337   2.391   5.695  0.1378 -0.4936 -2.2678
12106TIP3   OH257732   3.271   5.885   5.710  0.4640 -0.6141 -0.1275
12106TIP3    H157733   3.176   5.891   5.700  0.5105 -0.5020 -0.5064
12106TIP3    H257734   3.305   5.961   5.663  0.8512 -1.7719 -1.8055
12107TIP3   OH257735   1.502   2.590  13.795  0.0262 -0.0648 -0.3914
12107TIP3    H157736   1.411   2.568  13.774 -0.0492  0.1064 -0.2504
12107TIP3    H257737   1.547   2.505  13.796 -0.1592 -0.1648 -0.3332
12108TIP3   OH257738   4.627   3.619   2.929  0.3154 -0.3351 -0.0783
12108TIP3    H157739   4.608   3.605   3.022  0.2665  1.4061  0.2110
12108TIP3    H257740   4.704   3.564   2.912 -0.5402 -1.8053  0.5942
12109TIP3   OH257741   4.159   6.498   5.738 -0.2648 -0.2590  0.1766
12109TIP3    H157742   4.242   6.545   5.735 -1.0848  1.2369 -2.8783
12109TIP3    H257743   4.175   6.418   5.687 -0.9445  0.6524 -1.5550
12110TIP3   OH257744   3.601   3.195  17.380 -0.4069 -0.2618 -0.1535
12110TIP3    H157745   3.565   3.106  17.375 -0.0025 -0.4647  0.3732
12110TIP3    H257746   3.630   3.204  17.471  0.3819  0.0827 -0.4222
12111TIP3   OH257747   3.536   0.025   4.771  0.5711 -0.2016  0.2479
12111TIP3    H157748   3.526  -0.050   4.829 -0.4386 -1.1753 -1.1019
12111TIP3    H257749   3.459   0.080   4.789 -0.1636 -0.8909 -0.6483
12112TIP3   OH257750   6.343   2.237  16.649  0.0232  0.1433  0.3087
12112TIP3    H157751   6.284   2.162  16.645 -0.5707  0.5967  0.4256
12112TIP3    H257752   6.393   2.232  16.567 -1.1474  0.5290 -0.4495
12113TIP3   OH257753   2.915   3.258  15.398 -0.1983  0.0397  0.2087
12113TIP3    H157754   2.882   3.303  15.320 -0.5495  0.1284  0.4042
12113TIP3    H257755   2.969   3.187  15.364  0.8204  0.9328 -0.1014
12114TIP3   OH257756   5.208   4.050   0.140 -0.6919 -0.3029  0.3885
12114TIP3    H157757   5.205   3.987   0.212 -1.1625 -0.3588  0.3258
12114TIP3    H257758   5.167   4.004   0.067 -0.5272 -0.1225  0.1824
12115TIP3   OH257759   1.224   1.319  12.734 -0.3711 -0.2685 -0.4662
12115TIP3    H157760   1.161   1.322  12.663 -2.3118 -0.6771  1.1450
12115TIP3    H257761   1.171   1.312  12.813  1.6712  0.5568  1.0764
12116TIP3   OH257762   1.120   2.005  16.429  0.8656 -0.5072 -0.2831
12116TIP3    H157763   1.046   2.013  16.368 -0.5873  1.2957  1.5991
12116TIP3    H257764   1.187   2.063  16.393  0.2273  0.1435 -0.4377
12117TIP3   OH257765   5.974   1.763   5.169 -0.2458 -0.5518  0.2256
12117TIP3    H157766   5.887   1.724   5.163 -0.7665  0.5874  0.0913
12117TIP3    H257767   5.981   1.816   5.090 -0.1934  0.8578  1.1530
12118TIP3   OH257768   3.400   1.906   0.270 -0.2697  0.2508  0.3386
12118TIP3    H157769   3.344   1.968   0.317  0.7807  1.8318 -0.3965
12118TIP3    H257770   3.386   1.927   0.177  0.8650  0.0766  0.1123
12119TIP3   OH257771   6.322   6.041  11.276  0.5997  0.6823 -0.1787
12119TIP3    H157772   6.338   5.947  11.287  1.5957  0.8984  0.3031
12119TIP3    H257773   6.313   6.052  11.182  2.0290  0.3258 -0.3800
12120TIP3   OH257774   0.239   2.201  11.729  0.3747  0.7353  0.3007
12120TIP3    H157775   0.307   2.137  11.745 -0.1216 -0.1863 -1.0874
12120TIP3    H257776   0.277   2.285  11.756  1.6572  0.0997  0.5056
12121TIP3   OH257777   4.893   5.783   4.639 -0.1314 -0.6766  0.1353
12121TIP3    H157778   4.984   5.753   4.634  0.3194  0.7566 -1.1531
12121TIP3    H257779   4.886   5.825   4.724  1.2135  1.4837 -0.7514
12122TIP3   OH257780   6.033   0.861  13.877  0.4957 -0.6320 -0.0635
12122TIP3    H157781   6.108   0.905  13.838  0.1208  1.8931  1.7748
12122TIP3    H257782   5.961   0.924  13.870 -1.3904 -2.7867 -1.3479
12123TIP3   OH257783   5.750   5.156   3.092  0.0599  0.6730  0.1761
12123TIP3    H157784   5.685   5.130   3.027  1.0997 -3.6080  0.5080
12123TIP3    H257785   5.811   5.212   3.045  0.0994 -1.2745 -2.3050
12124TIP3   OH257786   2.349   5.023   0.096  0.1784 -0.1957  0.1975
12124TIP3    H157787   2.356   4.944   0.042  1.2981 -0.1681  0.2862
12124TIP3    H257788   2.289   4.998   0.167  0.9318 -1.1477  0.5244
12125TIP3   OH257789   0.645   6.572   4.822  0.3732 -0.4205  0.1030
12125TIP3    H157790   0.655   6.577   4.727  1.1746  0.4480  0.2209
12125TIP3    H257791   0.560   6.530   4.835 -0.4258  0.7714 -1.0047
12126TIP3   OH257792   0.290   1.095  16.869 -0.2162 -0.7876 -0.1046
12126TIP3    H157793   0.298   1.143  16.787 -0.3348  0.3778  0.5300
12126TIP3    H257794   0.196   1.086  16.883 -0.4070  2.1954  1.5763
12127TIP3   OH257795   0.310   2.306   4.303  0.5679 -0.4718  0.0840
12127TIP3    H157796   0.228   2.310   4.353  0.1988  1.1949 -0.5954
12127TIP3    H257797   0.284   2.274   4.217  0.8700 -1.3146  0.3021
12128TIP3   OH257798   4.648   6.075   1.984  0.8801  0.3576  0.2039
12128TIP3    H157799   4.561   6.060   2.020 -0.2388 -1.6277 -2.8928
12128TIP3    H257800   4.653   6.170   1.971 -0.3307  0.6173  1.4518
12129TIP3   OH257801   4.844   4.391  16.224  0.2529 -0.2995 -0.0347
12129TIP3    H157802   4.771   4.406  16.164 -0.6082  1.0427  1.2871
12129TIP3    H257803   4.845   4.297  16.238 -2.5017 -0.2156  1.3888
12130TIP3   OH257804   1.207   3.405  15.228  0.4645  0.1257  0.3487
12130TIP3    H157805   1.231   3.325  15.273 -0.2632 -1.1597 -1.4378
12130TIP3    H257806   1.114   3.417  15.249  0.0420 -0.6447 -0.9662
12131TIP3   OH257807   6.535   3.544  12.377  0.6406  0.7466 -0.4682
12131TIP3    H157808   6.474   3.523  12.307 -0.6832  0.7266  0.6474
12131TIP3    H257809   6.564   3.459  12.410  0.2454  0.7377 -0.1395
12132TIP3   OH257810   0.129   6.155   2.091  0.3467  0.0575 -0.5650
12132TIP3    H157811   0.145   6.177   2.183 -0.9814  0.8718 -0.5001
12132TIP3    H257812   0.146   6.061   2.086 -1.9860 -0.5584  1.1358
12133TIP3   OH257813   4.100   6.567   6.713 -0.0947 -0.1069  0.0963
12133TIP3    H157814   4.095   6.649   6.664 -1.4526  0.1399  0.6100
12133TIP3    H257815   4.039   6.508   6.668 -0.1842 -0.3755  0.5601
12134TIP3   OH257816   5.587   1.572   5.477  0.0593  0.8248  0.0178
12134TIP3    H157817   5.515   1.571   5.541 -1.3626  2.0271 -1.4466
12134TIP3    H257818   5.581   1.487   5.433  1.7301 -0.4539  2.1080
12135TIP3   OH257819   6.571   3.936  15.493 -0.1905  0.2250  0.3111
12135TIP3    H157820   6.616   3.968  15.572 -0.7247  0.1300  0.6632
12135TIP3    H257821   6.575   3.841  15.500  0.9667  0.2039 -0.4872
12136TIP3   OH257822   0.339   6.413   2.725 -0.2076  0.1075 -0.4062
12136TIP3    H157823   0.258   6.374   2.757 -0.9681  1.5379 -0.5296
12136TIP3    H257824   0.347   6.495   2.773  1.5482 -0.3289  0.1092
12137TIP3   OH257825   5.819   1.126  12.716  0.0831 -0.0073 -0.0533
12137TIP3    H157826   5.906   1.150  12.684 -0.6772  2.2036 -0.6842
12137TIP3    H257827   5.834   1.050  12.772  2.3819  0.1488 -0.3522
12138TIP3   OH257828   6.421   2.111   2.916 -0.5456  0.1279  0.1186
12138TIP3    H157829   6.429   2.025   2.876  2.2200  0.3450  0.0214
12138TIP3    H257830   6.483   2.110   2.989 -1.6649  1.5107  1.1600
12139TIP3   OH257831   0.090   3.618   1.556  0.2152 -0.1824  0.0065
12139TIP3    H157832   0.022   3.591   1.617  0.3732  0.9346  0.7117
12139TIP3    H257833   0.172   3.598   1.602  0.3695 -1.0943 -0.6445
12140TIP3   OH257834   5.077   6.284  13.396  0.2029 -0.3193 -0.8775
12140TIP3    H157835   5.169   6.279  13.424  0.6006  2.2092 -1.4664
12140TIP3    H257836   5.041   6.358  13.445 -2.0650 -2.2470  0.5551
12141TIP3   OH257837   3.895   1.398   3.831 -0.3752  0.1631 -0.0248
12141TIP3    H157838   3.905   1.425   3.739 -0.2758 -0.9880 -0.3571
12141TIP3    H257839   3.945   1.317   3.838 -0.3617  0.2539  1.0661
12142TIP3   OH257840   3.234   3.654  14.213  0.0164 -0.5592 -0.5440
12142TIP3    H157841   3.183   3.730  14.184 -1.2616 -1.4896 -0.8314
12142TIP3    H257842   3.229   3.656  14.308  1.8433  0.9149 -0.4206
12143TIP3   OH257843   1.992   3.595  14.523  0.7144 -0.6127 -0.2831
12143TIP3    H157844   2.010   3.687  14.544 -0.1901 -0.3778 -0.5013
12143TIP3    H257845   1.925   3.599  14.455 -1.2314 -1.4451  1.4788
12144TIP3   OH257846   1.628   4.574   1.547  0.0740  0.1127 -0.8482
12144TIP3    H157847   1.713   4.573   1.503  1.3559 -0.3658  1.4857
12144TIP3    H257848   1.576   4.637   1.497 -0.1838 -3.3915 -5.7026
12145TIP3   OH257849   1.464   3.867   4.552 -0.0928 -0.8530  0.4293
12145TIP3    H157850   1.514   3.933   4.601  0.1510  1.2863 -2.4400
12145TIP3    H257851   1.374   3.901   4.552 -0.1061 -0.8724 -0.4866
12146TIP3   OH257852   3.827   6.538   1.543  0.1828 -0.0315 -0.2498
12146TIP3    H157853   3.828   6.503   1.632 -0.8168  0.6728  0.0630
12146TIP3    H257854   3.917   6.527   1.511  0.5859 -0.1665  0.8918
12147TIP3   OH257855   1.900   6.480   6.354 -0.2584 -0.1487 -0.1597
12147TIP3    H157856   1.827   6.472   6.416  0.5232  1.6822  1.0432
12147TIP3    H257857   1.958   6.545   6.392  1.4547 -0.7062 -1.6785
12148TIP3   OH257858   6.257   4.455   2.521 -0.0101 -0.0777  0.4358
12148TIP3    H157859   6.245   4.418   2.609 -0.8967 -1.3767 -0.1885
12148TIP3    H257860   6.189   4.521   2.513  1.3782  1.5465  1.4467
12149TIP3   OH257861   2.064   3.209  16.529 -0.4245 -0.7630  0.3646
12149TIP3    H157862   2.127   3.137  16.522 -0.5158 -0.8183  0.1066
12149TIP3    H257863   1.980   3.170  16.504 -0.6544 -0.8111  1.1607
12150TIP3   OH257864   4.875   6.444   4.072  0.2680  0.2522 -0.3243
12150TIP3    H157865   4.953   6.405   4.111  0.0278  0.1199  0.0282
12150TIP3    H257866   4.840   6.502   4.140  0.9527  1.5530 -1.0522
12151TIP3   OH257867   6.405   4.705  14.936 -0.1711  0.2803  0.0779
12151TIP3    H157868   6.320   4.734  14.971 -0.8988  1.8455 -2.7007
12151TIP3    H257869   6.385   4.625  14.888 -0.3619  1.2661 -1.5446
12152TIP3   OH257870   0.715   3.510   2.709 -0.0737 -0.0292 -0.3538
12152TIP3    H157871   0.748   3.595   2.737  2.1584 -0.8594 -0.2303
12152TIP3    H257872   0.701   3.519   2.615 -1.4660  0.9303 -0.0753
12153TIP3   OH257873   1.369   5.183  13.686  0.2125  0.2132  0.4565
12153TIP3    H157874   1.321   5.264  13.699  1.1076  0.7784  0.2845
12153TIP3    H257875   1.428   5.177  13.761  0.1394 -0.2930  0.4805
12154TIP3   OH257876   1.340   1.056  11.271 -0.3816  0.2420 -0.0999
12154TIP3    H157877   1.422   1.068  11.319 -0.3759  0.5149 -0.1774
12154TIP3    H257878   1.274   1.048  11.339 -0.4779  1.3649 -0.0441
12155TIP3   OH257879   1.394   4.223  10.712  0.5473 -0.0908 -0.4478
12155TIP3    H157880   1.386   4.301  10.658 -1.0753 -0.0779 -0.2387
12155TIP3    H257881   1.488   4.201  10.710  1.0011  1.7420 -0.6415
12156TIP3   OH257882   6.625   4.226  17.275  0.3068  0.0040  0.7367
12156TIP3    H157883   6.605   4.315  17.306  0.1539  0.6661 -1.1163
12156TIP3    H257884   6.674   4.240  17.194 -1.3037 -1.5681 -0.5804
12157TIP3   OH257885   5.476   2.734   6.354  0.8062 -0.1464 -0.3361
12157TIP3    H157886   5.405   2.704   6.410  0.6960 -1.7610 -1.3084
12157TIP3    H257887   5.532   2.786   6.412 -1.7914  2.3350  0.1854
12158TIP3   OH257888   4.536   1.657   4.913 -0.2360 -0.2025 -0.1497
12158TIP3    H157889   4.466   1.600   4.944 -0.7372 -0.2424 -1.2942
12158TIP3    H257890   4.493   1.742   4.897  0.1603  0.0290 -0.0018
12159TIP3   OH257891   6.097   0.760   2.347 -0.1301  0.4467 -0.0661
12159TIP3    H157892   6.108   0.848   2.311  0.3641  0.5295  0.2698
12159TIP3    H257893   6.019   0.726   2.304 -0.2999  1.0316 -0.2361
12160TIP3   OH257894   1.936   3.871   3.332 -0.3948  0.1143 -0.7574
12160TIP3    H157895   1.942   3.817   3.411 -1.5105 -2.2017 -2.1620
12160TIP3    H257896   1.842   3.881   3.317 -0.2377  2.6718 -0.4727
12161TIP3   OH257897   4.189   2.747   4.971 -0.6636  0.0277 -0.6493
12161TIP3    H157898   4.189   2.677   4.906  1.2923 -0.6775  0.0531
12161TIP3    H257899   4.096   2.768   4.984 -1.1990 -1.3181 -2.0229
12162TIP3   OH257900   5.511   4.483  17.107  0.3866  0.3983  0.1697
12162TIP3    H157901   5.425   4.525  17.098  0.1519  0.0325  0.6708
12162TIP3    H257902   5.566   4.549  17.150  1.0811  1.5811 -2.3637
12163TIP3   OH257903   3.382   1.322   1.252 -0.2081  0.2204  0.0699
12163TIP3    H157904   3.376   1.226   1.255  0.1582  0.1143 -1.6119
12163TIP3    H257905   3.475   1.340   1.236  0.0155  0.9471  1.9331
12164TIP3   OH257906   3.220   3.825   3.062  0.0825 -0.4261 -0.2337
12164TIP3    H157907   3.301   3.842   3.109 -0.4411 -2.6757  1.7011
12164TIP3    H257908   3.241   3.751   3.005 -0.7617 -1.6293  0.9522
12165TIP3   OH257909   3.751   1.680   5.536 -0.5839 -0.0639  0.4583
12165TIP3    H157910   3.812   1.657   5.607 -0.9019  0.8110  1.0385
12165TIP3    H257911   3.674   1.713   5.582 -1.0654 -0.1375 -0.2977
12166TIP3   OH257912   3.833   3.855  16.275  0.0455 -0.3108  0.0252
12166TIP3    H157913   3.881   3.935  16.294  1.7850 -1.1640 -0.5519
12166TIP3    H257914   3.759   3.856  16.336  1.5682  0.3893  1.9456
12167TIP3   OH257915   5.278   3.403   5.232  0.3131  0.0248  0.6727
12167TIP3    H157916   5.318   3.353   5.303 -0.5252 -1.0061  0.4420
12167TIP3    H257917   5.187   3.414   5.259 -0.5160 -1.9814 -1.0239
12168TIP3   OH257918   0.434   0.244  12.189  0.1826 -0.2277  0.0605
12168TIP3    H157919   0.485   0.294  12.253  0.5158  0.3036 -0.6010
12168TIP3    H257920   0.377   0.309  12.148 -1.9427 -1.0242  1.6282
12169TIP3   OH257921   3.688   0.776  13.843  0.2225 -0.5159  0.9637
12169TIP3    H157922   3.707   0.795  13.751  1.5372  0.3768  1.3750
12169TIP3    H257923   3.602   0.815  13.858 -0.2217 -1.0979 -0.0013
12170TIP3   OH257924   4.575   0.882  17.367 -0.1236  0.0941  0.1276
12170TIP3    H157925   4.621   0.949  17.417  0.4452 -0.1513 -0.0592
12170TIP3    H257926   4.517   0.932  17.309  2.4330  0.6105 -2.1662
12171TIP3   OH257927   2.162   3.210   1.927  0.7203  0.2028  0.1556
12171TIP3    H157928   2.150   3.169   1.841  0.1359 -0.1521  0.3991
12171TIP3    H257929   2.073   3.218   1.962  0.9969 -0.1668  0.9618
12172TIP3   OH257930   2.295   3.250  14.086  0.4879 -0.2404  0.4256
12172TIP3    H157931   2.354   3.283  14.019 -1.1127  1.5515 -0.1823
12172TIP3    H257932   2.265   3.328  14.133 -0.4077 -1.2134  1.5649
12173TIP3   OH257933   6.398   4.487  11.528 -0.3979  0.1200 -0.0989
12173TIP3    H157934   6.416   4.578  11.552 -2.3216  0.2314  1.1153
12173TIP3    H257935   6.392   4.441  11.611 -3.2717 -0.2924 -0.4208
12174TIP3   OH257936   5.414   4.023   3.064 -0.3242  0.0611 -0.3169
12174TIP3    H157937   5.477   3.983   3.123 -0.6695  0.3491  0.2457
12174TIP3    H257938   5.454   4.012   2.977  0.5626  0.3651  0.0398
12175TIP3   OH257939   1.703   5.871  16.926 -0.3339  0.0228  0.0171
12175TIP3    H157940   1.769   5.805  16.905 -1.2602 -1.5720  1.8182
12175TIP3    H257941   1.691   5.865  17.021 -0.9664  2.3307  0.1569
12176TIP3   OH257942   2.720   3.353   5.253  0.1597  0.2648 -0.2198
12176TIP3    H157943   2.798   3.400   5.226 -0.0033  0.1984 -0.8269
12176TIP3    H257944   2.695   3.302   5.176  0.7080 -1.3351  0.6184
12177TIP3   OH257945   2.887   0.672   0.608  0.2274 -0.4978  0.3195
12177TIP3    H157946   2.913   0.597   0.660  1.2079 -1.0849 -0.9433
12177TIP3    H257947   2.939   0.745   0.642  1.5275 -1.0705 -0.3748
12178TIP3   OH257948   5.156   2.385  13.207  0.2442  0.1262  0.8702
12178TIP3    H157949   5.180   2.339  13.288  1.0041  0.6377  0.9501
12178TIP3    H257950   5.158   2.317  13.140  0.0209 -0.2212  1.2094
12179TIP3   OH257951   5.206   0.173  13.121  0.0820  0.1952 -0.9529
12179TIP3    H157952   5.213   0.206  13.031 -1.7877  1.1113 -0.8178
12179TIP3    H257953   5.190   0.251  13.174  0.3365 -0.4243  0.0686
12180TIP3   OH257954   3.652   2.891   2.233  0.1794  0.7726 -0.2040
12180TIP3    H157955   3.575   2.899   2.177 -0.1214 -0.2220  0.0561
12180TIP3    H257956   3.639   2.957   2.301 -0.0418  1.1600 -0.6185
12181TIP3   OH257957   5.958   2.441   3.936 -0.2554  0.7934  1.0779
12181TIP3    H157958   5.880   2.486   3.968  0.3559  0.8389  2.5933
12181TIP3    H257959   5.965   2.467   3.844 -2.4190  0.1955  0.6742
12182TIP3   OH257960   4.101   4.042  17.008 -0.2573  0.0684 -0.0067
12182TIP3    H157961   4.106   3.991  17.089  0.7443 -0.4819 -0.3999
12182TIP3    H257962   4.192   4.049  16.978 -0.7287 -1.0103 -1.8497
12183TIP3   OH257963   3.275   0.983  14.915 -0.5525 -0.3223  0.0006
12183TIP3    H157964   3.202   0.957  14.972  0.4507  1.0264  2.0219
12183TIP3    H257965   3.340   0.914  14.928  0.0177  0.4172  1.2220
12184TIP3   OH257966   3.849   3.972  15.818 -0.2399 -0.0783 -0.4282
12184TIP3    H157967   3.800   3.906  15.769  0.2352 -0.0467 -0.9498
12184TIP3    H257968   3.925   3.925  15.852 -0.9329 -0.2828  0.9184
12185TIP3   OH257969   0.643   4.225   2.026  0.6358 -0.7054  0.4096
12185TIP3    H157970   0.571   4.281   2.053  2.2272  1.9960 -0.6011
12185TIP3    H257971   0.612   4.183   1.946 -0.5152 -1.2030  1.0833
12186TIP3   OH257972   5.331   5.566   4.839  0.0345 -0.0782 -0.3001
12186TIP3    H157973   5.239   5.592   4.832  0.5997  1.5996 -2.9002
12186TIP3    H257974   5.329   5.471   4.846 -1.9180  0.0357  2.2355
12187TIP3   OH257975   2.829   5.409   5.820  0.2153  0.5835  0.4610
12187TIP3    H157976   2.747   5.451   5.844  0.2463  0.6614  0.4317
12187TIP3    H257977   2.807   5.317   5.812 -0.6044  0.9298 -2.6401
12188TIP3   OH257978   2.032   4.187   6.672  0.6221  0.4875 -0.6513
12188TIP3    H157979   2.017   4.097   6.643  0.5303 -0.2676  1.5320
12188TIP3    H257980   2.116   4.184   6.718  1.7731  2.0675 -2.5300
12189TIP3   OH257981   1.171   2.979  11.746 -0.4230 -0.0119  0.0171
12189TIP3    H157982   1.256   2.983  11.702 -0.4820  1.5499  0.0031
12189TIP3    H257983   1.175   3.046  11.814 -1.0830 -1.0088  1.0713
12190TIP3   OH257984   2.727   4.983   5.086 -0.4491 -0.1312  0.4640
12190TIP3    H157985   2.762   5.072   5.087  1.9258 -0.9870  1.6721
12190TIP3    H257986   2.633   4.994   5.069 -0.2434  2.5840  0.6623
12191TIP3   OH257987   1.669   4.358  13.263  0.0195 -0.3641 -0.2996
12191TIP3    H157988   1.764   4.370  13.253 -0.1566  0.5484 -1.0841
12191TIP3    H257989   1.647   4.405  13.343 -0.0957  1.5415 -1.3769
12192TIP3   OH257990   0.097   4.131  11.824 -0.0021 -0.4933 -0.6309
12192TIP3    H157991   0.189   4.135  11.795 -0.1134  0.5071 -0.8926
12192TIP3    H257992   0.102   4.133  11.920  0.2733 -1.0752 -0.6338
12193TIP3   OH257993   0.125   0.786   3.494  0.1192  0.3964 -0.4297
12193TIP3    H157994   0.188   0.726   3.533  0.5564  0.9829 -0.2207
12193TIP3    H257995   0.178   0.856   3.456 -0.4150  1.7543  1.1618
12194TIP3   OH257996   1.744   0.750  15.722  0.0614  0.1332  0.1500
12194TIP3    H157997   1.711   0.661  15.731  1.1008 -0.2442  0.4787
12194TIP3    H257998   1.781   0.771  15.808 -0.4625  1.0131  0.1795
12195TIP3   OH257999   4.241   0.448   0.598 -0.2517  0.6815  0.1825
12195TIP3    H158000   4.211   0.421   0.511 -2.7605  0.0480  1.1596
12195TIP3    H258001   4.262   0.366   0.643  0.8890  0.9968  0.2711
12196TIP3   OH258002   5.051   2.042   0.809  0.1397 -0.2845  0.3174
12196TIP3    H158003   5.028   2.015   0.720 -0.2370  1.7420 -0.2590
12196TIP3    H258004   5.086   2.131   0.798 -0.3232  0.1738  2.2379
12197TIP3   OH258005   0.812   4.788   1.119  0.0032 -0.0309  0.4361
12197TIP3    H158006   0.864   4.779   1.199  1.7779 -0.3886 -0.6903
12197TIP3    H258007   0.836   4.874   1.084  0.1926 -0.3822 -0.3199
12198TIP3   OH258008   2.388   6.268   1.444 -0.4934 -0.5802 -0.4647
12198TIP3    H158009   2.362   6.179   1.466 -0.5217 -0.7610 -1.2175
12198TIP3    H258010   2.483   6.269   1.457 -0.3915 -0.9278 -1.1276
12199TIP3   OH258011   0.950   3.352   2.376  0.2290  0.3853  0.1177
12199TIP3    H158012   0.995   3.315   2.300 -0.4267  1.5532 -0.8629
12199TIP3    H258013   0.901   3.278   2.412 -0.3991  0.0649 -1.3097
12200TIP3   OH258014   3.771   4.596   1.363  0.7265 -0.1043  0.2544
12200TIP3    H158015   3.807   4.650   1.293  0.4413  0.4320  0.5131
12200TIP3    H258016   3.845   4.580   1.421  0.8031  0.0496  0.2003
12201TIP3   OH258017   5.064   5.696   3.012 -0.1417 -0.2114 -0.5970
12201TIP3    H158018   5.009   5.753   2.958 -1.6156 -2.5105 -1.6696
12201TIP3    H258019   5.002   5.641   3.060  1.2013 -1.0326  0.2774
12202TIP3   OH258020   3.560   2.124  15.472 -0.6468 -0.1841  0.3291
12202TIP3    H158021   3.485   2.169  15.511  0.0823  0.9617  0.4428
12202TIP3    H258022   3.522   2.071  15.402 -1.3416  2.2694 -1.2673
12203TIP3   OH258023   4.706   4.765  14.283  0.0254  0.3620  0.6902
12203TIP3    H158024   4.775   4.831  14.290  0.8895 -0.5193  0.6029
12203TIP3    H258025   4.716   4.729  14.195 -0.0433 -0.3208  0.9568
12204TIP3   OH258026   1.313   5.534  17.048 -0.0977 -0.1564 -0.2022
12204TIP3    H158027   1.336   5.529  16.955 -0.9403 -1.1386 -0.3726
12204TIP3    H258028   1.325   5.626  17.070 -0.0323  0.1240 -1.3226
12205TIP3   OH258029   3.436   6.173   6.422  0.2986 -0.3830 -0.0408
12205TIP3    H158030   3.350   6.165   6.380  0.6716 -2.1576 -0.5453
12205TIP3    H258031   3.469   6.083   6.426  1.3294  0.0385  1.8774
12206TIP3   OH258032   4.010   0.301  15.924 -0.0389  0.3933  0.1554
12206TIP3    H158033   3.968   0.270  16.005 -0.9993  0.0040 -0.4713
12206TIP3    H258034   4.086   0.244  15.913 -1.0932 -0.9801 -0.3250
12207TIP3   OH258035   5.761   2.505  12.909  0.3283 -1.0615 -0.4490
12207TIP3    H158036   5.766   2.561  12.986 -2.3835 -2.9986  1.3108
12207TIP3    H258037   5.817   2.548  12.844  1.2716  1.6301  1.9505
12208TIP3   OH258038   0.846   1.835   2.327  0.0194  0.0583  0.1061
12208TIP3    H158039   0.862   1.923   2.361  1.0857  0.1371 -0.5383
12208TIP3    H258040   0.794   1.850   2.248  0.2124  0.1163 -0.0113
12209TIP3   OH258041   3.275   5.817   0.141 -0.3813 -0.4746  0.0390
12209TIP3    H158042   3.184   5.830   0.116 -0.5203 -0.3703  0.5926
12209TIP3    H258043   3.313   5.906   0.143 -0.1805 -0.5449 -0.5108
12210TIP3   OH258044   2.379   5.354   4.006  0.0719 -0.2141  0.0189
12210TIP3    H158045   2.321   5.279   4.015 -0.0490 -0.3688 -1.7766
12210TIP3    H258046   2.420   5.363   4.093 -0.7473 -1.6346  0.5851
12211TIP3   OH258047   3.473   0.688  14.340  0.3638  0.0480 -0.5402
12211TIP3    H158048   3.432   0.774  14.329  1.7311  1.0163  1.3379
12211TIP3    H258049   3.421   0.630  14.284 -1.9675  1.6473 -0.2077
12212TIP3   OH258050   3.996   2.228   2.414  0.2193  0.0095  0.1723
12212TIP3    H158051   4.050   2.306   2.401 -0.4433  0.5692  0.7043
12212TIP3    H258052   4.056   2.163   2.449  0.5012  0.7105  1.0254
12213TIP3   OH258053   3.834   6.339  13.585  0.6806 -0.3316  0.3200
12213TIP3    H158054   3.894   6.406  13.553  0.6988 -0.6878 -0.4102
12213TIP3    H258055   3.793   6.303  13.507  0.2021 -0.7400  0.7457
12214TIP3   OH258056   3.635   2.252   2.645  0.0372  0.4024 -0.1384
12214TIP3    H158057   3.683   2.171   2.634 -2.0623 -1.0073  0.4914
12214TIP3    H258058   3.687   2.318   2.599  2.9415 -0.8075  1.1798
12215TIP3   OH258059   3.321   5.362  11.207 -0.3918 -0.5547  0.3463
12215TIP3    H158060   3.238   5.356  11.160  0.2493 -1.1268 -0.7643
12215TIP3    H258061   3.355   5.449  11.185 -0.2853 -0.6659  0.0570
12216TIP3   OH258062   1.733   3.343  15.646  0.9270  0.0081 -0.1045
12216TIP3    H158063   1.641   3.353  15.672  1.0474 -0.3511  0.4932
12216TIP3    H258064   1.770   3.284  15.712  1.0446 -1.6315 -1.5642
12217TIP3   OH258065   3.201   1.722   3.675 -0.3411  0.2214 -0.4417
12217TIP3    H158066   3.269   1.769   3.626 -0.4202  0.8232  0.0048
12217TIP3    H258067   3.155   1.791   3.723  0.4006 -0.4338  1.2841
12218TIP3   OH258068   1.142   4.199   2.222  0.5681 -0.1714 -0.2634
12218TIP3    H158069   1.166   4.199   2.130 -1.1053  0.5525 -0.7504
12218TIP3    H258070   1.149   4.108   2.250  4.2157  0.0198 -0.1565
12219TIP3   OH258071   3.247   2.255   4.451  0.2064  0.2989 -0.4749
12219TIP3    H158072   3.212   2.207   4.527 -0.5585  1.1318 -0.2830
12219TIP3    H258073   3.300   2.190   4.405 -0.4287 -0.6100  0.0239
12220TIP3   OH258074   2.714   0.903   3.767 -0.5279 -0.4802  0.0345
12220TIP3    H158075   2.781   0.856   3.816  2.0390  0.7890 -1.9884
12220TIP3    H258076   2.646   0.922   3.831  1.7775 -0.4351  2.6610
12221TIP3   OH258077   1.676   5.296   4.214 -0.0315  0.1632 -0.1107
12221TIP3    H158078   1.606   5.258   4.161 -0.5014  0.8086  0.0287
12221TIP3    H258079   1.653   5.389   4.219  1.2832  0.5381 -0.7503
12222TIP3   OH258080   5.771   1.713   4.400 -0.0240  0.2833 -0.4916
12222TIP3    H158081   5.760   1.702   4.495  1.9707 -0.4679 -0.2976
12222TIP3    H258082   5.835   1.784   4.392  0.9674 -0.6572 -1.1906
12223TIP3   OH258083   3.652   5.332   2.884 -0.2711 -0.3272 -0.1035
12223TIP3    H158084   3.606   5.302   2.962  0.3606  1.1277  0.8744
12223TIP3    H258085   3.712   5.400   2.916 -1.5575  1.9435 -2.1286
12224TIP3   OH258086   0.087   6.491   1.265 -0.1315  0.2744 -0.4410
12224TIP3    H158087   0.141   6.468   1.189 -1.5624  0.7743 -1.6811
12224TIP3    H258088   0.085   6.587   1.264 -0.9561  0.2645 -0.3773
12225TIP3   OH258089   1.736   0.350  14.554 -0.2066  0.4908  0.7156
12225TIP3    H158090   1.784   0.365  14.635  0.5003  0.5153  0.3000
12225TIP3    H258091   1.682   0.273  14.572  0.9642 -0.3424  0.7798
12226TIP3   OH258092   0.412   6.188   2.987 -0.2227  0.2172  0.3926
12226TIP3    H158093   0.338   6.193   2.927 -0.6627 -0.0491  0.9046
12226TIP3    H258094   0.384   6.238   3.063  0.3658  0.6274  0.3438
12227TIP3   OH258095   0.014   3.409  16.630 -0.4363 -0.1950  0.0220
12227TIP3    H158096   0.089   3.394  16.689  0.2267  0.6683 -0.5824
12227TIP3    H258097  -0.008   3.501  16.642  0.5290  0.3440 -1.9829
12228TIP3   OH258098   1.549   6.188  12.442  0.0404  0.3904  0.1562
12228TIP3    H158099   1.479   6.160  12.383 -0.2958  1.9500 -0.2293
12228TIP3    H258100   1.521   6.157  12.529  0.0993 -1.1375 -0.3404
12229TIP3   OH258101   5.724   1.177  12.995 -0.2492 -0.0194  0.1706
12229TIP3    H158102   5.766   1.158  12.911 -0.4772  0.6011 -0.0913
12229TIP3    H258103   5.650   1.234  12.972  1.2990  2.4955  1.0368
12230TIP3   OH258104   3.352   3.359   3.093 -0.8317  0.0319  0.2127
12230TIP3    H158105   3.366   3.404   3.176 -0.3716  1.0141 -0.3752
12230TIP3    H258106   3.438   3.361   3.050 -1.4689  1.2284 -1.0877
12231TIP3   OH258107   6.526   1.102   0.709  0.5438 -0.6210 -0.0031
12231TIP3    H158108   6.613   1.063   0.721  0.2395 -1.1822  0.4650
12231TIP3    H258109   6.466   1.039   0.750  0.1227  0.8319  1.7643
12232TIP3   OH258110   0.844   1.828  10.587  0.2241  0.2598 -0.3577
12232TIP3    H158111   0.914   1.766  10.610 -1.4293 -1.7327 -0.4372
12232TIP3    H258112   0.764   1.787  10.619 -1.3370  0.8293 -3.1919
12233TIP3   OH258113   6.434   6.146   1.486 -0.6584  0.2657  0.7747
12233TIP3    H158114   6.377   6.080   1.448 -1.2252  0.9555  0.4078
12233TIP3    H258115   6.381   6.186   1.556  0.6596 -1.6034  2.9897
12234TIP3   OH258116   5.802   6.516   1.694 -0.6048 -0.0556  0.0116
12234TIP3    H158117   5.823   6.550   1.607 -0.8679  0.1836  0.0377
12234TIP3    H258118   5.778   6.593   1.745 -0.2624 -0.1741  0.3527
12235TIP3   OH258119   2.387   1.417  17.074 -0.2956  0.4438  0.0282
12235TIP3    H158120   2.330   1.356  17.120 -2.1450  0.2253 -2.3346
12235TIP3    H258121   2.464   1.365  17.050 -0.2291  0.0386  1.1052
12236TIP3   OH258122   0.923   0.919   4.311 -0.8148  0.3641  0.2400
12236TIP3    H158123   0.933   0.918   4.406 -1.5967 -0.6142  0.3229
12236TIP3    H258124   0.844   0.868   4.294 -2.1611  2.6162 -0.7668
12237TIP3   OH258125   4.706   3.618   1.059 -0.0409  0.0870  0.4114
12237TIP3    H158126   4.792   3.650   1.085  0.4404  0.2010 -1.1934
12237TIP3    H258127   4.725   3.540   1.007 -0.7195  1.3812 -1.9109
12238TIP3   OH258128   0.978   0.932  15.504 -0.2109  0.3819  0.6901
12238TIP3    H158129   0.882   0.937  15.509 -0.4149 -2.0345  0.6152
12238TIP3    H258130   1.006   1.021  15.484 -2.4355  1.1788  0.8526
12239TIP3   OH258131   0.003   1.686  11.941  0.2598 -0.6802  0.1961
12239TIP3    H158132   0.069   1.628  11.903  0.0169 -1.5977  1.1074
12239TIP3    H258133  -0.075   1.632  11.949  0.2903 -0.5317  1.9106
12240TIP3   OH258134   0.487   6.280  11.545  0.0613  0.3568 -0.1720
12240TIP3    H158135   0.405   6.311  11.583 -0.6385  0.1294 -1.4512
12240TIP3    H258136   0.474   6.185  11.536  1.7642 -0.2570  2.7137
12241TIP3   OH258137   3.234   2.293  15.855 -0.1355 -0.3870 -0.3510
12241TIP3    H158138   3.193   2.236  15.920 -0.7176  0.7828  0.3635
12241TIP3    H258139   3.168   2.305  15.787  0.0606 -0.7121 -0.6027
12242TIP3   OH258140   6.658   0.818  13.247  0.3649  0.0554 -0.4383
12242TIP3    H158141   6.649   0.908  13.215 -1.2064 -0.1555 -0.6462
12242TIP3    H258142   6.657   0.826  13.342  1.1345  0.3262 -0.4430
12243TIP3   OH258143   5.921   3.941  10.767 -0.0331  0.6320  0.0181
12243TIP3    H158144   5.969   4.016  10.732 -0.3090  0.9922  0.3973
12243TIP3    H258145   5.872   3.906  10.692  1.2557 -0.1017 -0.5154
12244TIP3   OH258146   4.313   4.957  11.058 -0.0565  0.2197 -0.3629
12244TIP3    H158147   4.340   4.866  11.044  0.0175  0.2227 -0.2454
12244TIP3    H258148   4.328   4.971  11.152 -2.5780 -0.4836  0.2101
12245TIP3   OH258149   4.883   5.676   2.690  0.5082 -0.1387  0.0557
12245TIP3    H158150   4.842   5.718   2.614 -1.9587 -1.1182  0.7506
12245TIP3    H258151   4.933   5.603   2.653 -1.8240 -1.4958 -0.6492
12246TIP3   OH258152   3.557   0.135   5.195  0.1029  0.2216 -0.3838
12246TIP3    H158153   3.608   0.126   5.276  2.3253  0.2691 -1.6989
12246TIP3    H258154   3.545   0.230   5.185  1.1072  0.3139 -0.8288
12247TIP3   OH258155   1.759   6.147  11.210  0.3151 -0.0065  0.1195
12247TIP3    H158156   1.701   6.071  11.202 -0.1313  0.3045  0.3465
12247TIP3    H258157   1.700   6.221  11.223  0.7996  0.0899  2.0500
12248TIP3   OH258158   4.447   2.859   4.960  0.5088 -0.0125  0.2014
12248TIP3    H158159   4.504   2.823   4.892  2.6577 -0.4195  2.1057
12248TIP3    H258160   4.379   2.793   4.972  0.5589 -0.2935 -0.9588
12249TIP3   OH258161   3.330   0.484   0.777 -0.3023 -0.1753 -0.5897
12249TIP3    H158162   3.375   0.400   0.776 -1.5115 -0.8543 -1.2851
12249TIP3    H258163   3.282   0.487   0.694 -2.3399  0.0253  0.5129
12250TIP3   OH258164   1.915   6.220   1.980 -0.1842 -0.3731  0.8692
12250TIP3    H158165   1.937   6.189   1.892  1.6862 -1.8907  1.7884
12250TIP3    H258166   1.883   6.309   1.967  1.6111  0.0529 -1.2003
12251TIP3   OH258167   4.007   3.233  16.312  0.5789 -0.0573  0.6623
12251TIP3    H158168   4.050   3.178  16.377 -0.1685 -1.3270  0.1208
12251TIP3    H258169   3.982   3.172  16.242 -0.6665  0.9073  0.2393
12252TIP3   OH258170   2.337   4.341  11.487 -0.5498  0.4589  0.3808
12252TIP3    H158171   2.412   4.282  11.486  2.0056  3.0751 -4.6040
12252TIP3    H258172   2.265   4.290  11.449  0.2326 -0.6589  0.3519
12253TIP3   OH258173   5.689   4.066  15.165 -0.0726 -0.2956  0.3345
12253TIP3    H158174   5.783   4.049  15.171  0.6611  3.1138  0.0839
12253TIP3    H258175   5.662   4.081  15.256  0.0089  0.4340  0.2415
12254TIP3   OH258176   3.064   6.558   4.360 -0.5163 -0.3514  0.2589
12254TIP3    H158177   3.013   6.514   4.292  1.5917 -0.2225 -1.5236
12254TIP3    H258178   3.125   6.491   4.391  0.0089  0.2104  0.4456
12255TIP3   OH258179   6.391   0.010  14.608 -0.1785 -0.3623  0.1536
12255TIP3    H158180   6.348   0.066  14.673  0.9795  1.4417 -0.5414
12255TIP3    H258181   6.482   0.041  14.606  0.5314 -2.3327 -0.2473
12256TIP3   OH258182   6.328   5.527   2.551 -0.6325  0.4811 -0.1606
12256TIP3    H158183   6.317   5.615   2.514 -1.3593  0.1608 -0.7277
12256TIP3    H258184   6.382   5.480   2.487  0.3553  0.7089  0.4782
12257TIP3   OH258185   1.375   0.451  15.839 -0.7165  0.4710 -0.0100
12257TIP3    H158186   1.469   0.465  15.846 -0.5128 -0.5713 -0.4629
12257TIP3    H258187   1.346   0.438  15.929 -0.4784  1.0571  0.1570
12258TIP3   OH258188   1.015   5.336   3.434  0.6731 -0.5666 -0.3368
12258TIP3    H158189   0.935   5.364   3.389 -0.9870  0.8261  3.1691
12258TIP3    H258190   1.012   5.241   3.431 -2.1284 -0.6041  1.2036
12259TIP3   OH258191   0.240   5.182  13.554  0.0876 -0.4077  0.0067
12259TIP3    H158192   0.216   5.261  13.507  0.6452  0.6955  1.5056
12259TIP3    H258193   0.249   5.115  13.486  1.7649  1.3022 -1.5709
12260TIP3   OH258194   2.506   6.514   2.081  0.0532  0.1231 -0.6774
12260TIP3    H158195   2.429   6.476   2.124  0.0131  0.5734 -0.3362
12260TIP3    H258196   2.506   6.475   1.994 -1.0860  0.7667 -0.9955
12261TIP3   OH258197   4.168   5.467   3.829  0.1025 -0.2848 -0.3633
12261TIP3    H158198   4.216   5.447   3.749  2.4253  1.5798  0.4284
12261TIP3    H258199   4.141   5.559   3.818 -0.7627 -0.4272  0.4501
12262TIP3   OH258200   5.281   5.350   4.309 -0.0547  0.3577  0.1292
12262TIP3    H158201   5.237   5.423   4.266  0.2946  0.1759 -0.5516
12262TIP3    H258202   5.306   5.384   4.395 -2.6582  0.0651  1.0825
12263TIP3   OH258203   5.806   5.193  17.314 -0.3288 -0.0738  0.0155
12263TIP3    H158204   5.793   5.277  17.358 -1.9303  0.0273 -0.5921
12263TIP3    H258205   5.740   5.135  17.352 -1.3184 -0.1597 -1.7536
12264TIP3   OH258206   5.629   1.538   3.765  0.3286  0.8348 -1.0053
12264TIP3    H158207   5.558   1.475   3.778 -1.0944  2.1491 -1.9557
12264TIP3    H258208   5.670   1.511   3.683  0.2800  0.6550 -0.9710
12265TIP3   OH258209   0.735   1.553   1.282  0.5645  0.3992  0.3412
12265TIP3    H158210   0.708   1.612   1.353 -0.4814  1.6794 -1.0378
12265TIP3    H258211   0.653   1.517   1.249  0.9957  0.1469 -0.4713
12266TIP3   OH258212   4.337   0.240  13.617  0.7660 -0.0987 -0.5357
12266TIP3    H158213   4.301   0.245  13.529  1.2836  1.4609 -0.6894
12266TIP3    H258214   4.428   0.211  13.604  1.5926  2.3835 -0.7840
12267TIP3   OH258215   1.726   2.413  15.167 -0.9112 -0.0857 -0.3838
12267TIP3    H158216   1.804   2.366  15.198 -1.1802  0.7454  1.7490
12267TIP3    H258217   1.677   2.348  15.117  0.6010 -0.9363 -0.8441
12268TIP3   OH258218   4.545   5.411  10.852  0.6514 -0.7236 -0.1781
12268TIP3    H158219   4.534   5.480  10.787 -0.5060  0.9036  1.6420
12268TIP3    H258220   4.589   5.453  10.925 -0.9506 -1.6175  1.3875
12269TIP3   OH258221   2.607   0.128   0.861  0.8344 -0.5191 -0.3020
12269TIP3    H158222   2.651   0.176   0.791 -0.7347  0.5638 -0.5994
12269TIP3    H258223   2.636   0.037   0.849  0.9766 -0.2822 -2.0853
12270TIP3   OH258224   6.428   1.815  15.912 -0.5177 -0.0956 -0.5313
12270TIP3    H158225   6.500   1.824  15.850 -0.6135  0.1286 -0.6103
12270TIP3    H258226   6.446   1.732  15.957 -0.5913 -0.3962 -1.0407
12271TIP3   OH258227   2.707   6.473  16.031  0.0203 -0.1855  1.2651
12271TIP3    H158228   2.772   6.534  16.066 -0.0981  1.5949 -1.3390
12271TIP3    H258229   2.751   6.388  16.032  1.7142  0.6371  1.2995
12272TIP3   OH258230   6.023   4.940  16.065 -0.5342  0.7605 -0.3585
12272TIP3    H158231   5.927   4.934  16.064 -0.4477 -2.7942 -1.0449
12272TIP3    H258232   6.046   4.965  15.975 -0.7826  1.8939 -0.1220
12273TIP3   OH258233   0.188   2.761  14.116  0.1633 -0.0331 -0.3723
12273TIP3    H158234   0.152   2.822  14.052  1.2902  2.4103  1.1496
12273TIP3    H258235   0.280   2.752  14.091  0.4308  0.3509  0.4211
12274TIP3   OH258236   0.188   6.392  14.640 -0.0923 -0.5307  0.2071
12274TIP3    H158237   0.137   6.351  14.709  1.9587 -0.8534  1.6320
12274TIP3    H258238   0.277   6.396  14.675  0.4845  1.9284 -1.2786
12275TIP3   OH258239   3.874   1.201   5.521 -0.1740  0.2080  0.0612
12275TIP3    H158240   3.855   1.219   5.613 -0.7963  0.3915 -0.0979
12275TIP3    H258241   3.874   1.287   5.479  0.6081  0.1737 -0.0245
12276TIP3   OH258242   0.160   5.443   0.548 -0.4368 -0.2480  0.3870
12276TIP3    H158243   0.105   5.463   0.472  0.0799 -0.5905 -0.0852
12276TIP3    H258244   0.212   5.368   0.520  1.8376  1.3698  0.0294
12277TIP3   OH258245   1.766   2.391  15.607 -0.5773 -0.1342 -0.0709
12277TIP3    H158246   1.683   2.432  15.583 -0.6278  0.3484  0.8685
12277TIP3    H258247   1.812   2.458  15.658  0.1366 -0.6028 -0.0786
12278TIP3   OH258248   0.875   2.296  16.414 -0.6446 -0.1298  0.0572
12278TIP3    H158249   0.881   2.207  16.381 -0.4489  0.8252 -2.6963
12278TIP3    H258250   0.839   2.286  16.503 -2.1289 -2.8135 -0.7315
12279TIP3   OH258251   3.796   4.005  12.949  0.0604 -0.5813 -0.0380
12279TIP3    H158252   3.802   4.089  12.994 -2.2846 -0.8022  0.8060
12279TIP3    H258253   3.873   4.004  12.891  1.7879  0.8340  2.0407
12280TIP3   OH258254   2.516   3.591   4.854 -0.6996  0.2074 -1.1749
12280TIP3    H158255   2.608   3.615   4.848 -0.7506  1.2532  1.2781
12280TIP3    H258256   2.517   3.501   4.886 -0.4980  0.8049  0.5609
12281TIP3   OH258257   6.539   1.859  11.934  0.1084  0.6159  0.6952
12281TIP3    H158258   6.629   1.836  11.954 -0.3993 -0.9058  1.4403
12281TIP3    H258259   6.525   1.828  11.845  0.0902  0.0755  0.8825
12282TIP3   OH258260   3.059   0.267  11.341  0.1433  0.3535 -0.1978
12282TIP3    H158261   3.095   0.188  11.382  1.0851  0.7674 -0.2021
12282TIP3    H258262   3.076   0.255  11.248  1.9089  1.3334 -0.0437
12283TIP3   OH258263   0.198   4.983   3.517 -0.2062 -0.0360  0.6093
12283TIP3    H158264   0.289   4.956   3.522 -0.0303  0.7310  1.7741
12283TIP3    H258265   0.194   5.065   3.566 -1.0537  1.2253 -1.4251
12284TIP3   OH258266   4.899   4.034   3.329 -0.8177  0.3103  0.1490
12284TIP3    H158267   4.829   4.058   3.269 -0.8290 -0.0475  0.0217
12284TIP3    H258268   4.980   4.044   3.278 -0.7608  0.8616  0.3374
12285TIP3   OH258269   4.028   0.917  16.149  0.0152 -0.3729  0.0179
12285TIP3    H158270   4.015   0.997  16.099  1.4951  0.3637  0.7429
12285TIP3    H258271   3.982   0.932  16.231  0.7439 -0.0149  0.3731
12286TIP3   OH258272   0.323   0.606   1.312  0.5880 -0.3086  0.2072
12286TIP3    H158273   0.289   0.558   1.387 -1.7023  2.1351  0.8822
12286TIP3    H258274   0.353   0.538   1.252 -0.1559 -2.4433  2.1168
12287TIP3   OH258275   3.362   4.225  11.324  0.1403 -0.3749  0.1050
12287TIP3    H158276   3.297   4.282  11.283  0.1685 -1.1128 -1.0173
12287TIP3    H258277   3.415   4.283  11.377 -0.5677  0.4543 -0.0730
12288TIP3   OH258278   4.742   3.996   0.091 -0.4521  0.1236  0.8386
12288TIP3    H158279   4.833   3.999   0.062 -0.9345  3.0834 -0.7541
12288TIP3    H258280   4.696   4.058   0.033 -3.1136  0.1124  2.7536
12289TIP3   OH258281   1.870   2.907  11.799  0.0728  0.1826  0.0942
12289TIP3    H158282   1.942   2.906  11.736 -0.4874  1.9907 -0.6264
12289TIP3    H258283   1.883   2.987  11.849 -1.5033  0.6306 -0.1539
12290TIP3   OH258284   1.802   2.753  13.721 -0.0513 -0.2630 -0.1146
12290TIP3    H158285   1.730   2.710  13.675 -1.4383  0.7385  1.0609
12290TIP3    H258286   1.763   2.790  13.799  1.4457  1.5932 -0.1727
12291TIP3   OH258287   6.626   6.622  12.132 -0.3253 -0.9216  0.4434
12291TIP3    H158288   6.675   6.633  12.213 -0.5450 -1.7914  0.6991
12291TIP3    H258289   6.627   6.528  12.115  2.2698 -0.5852 -2.1452
12292TIP3   OH258290   4.540   1.891   5.728  0.2584  0.5253  0.0046
12292TIP3    H158291   4.479   1.818   5.721  2.1500 -1.0797 -0.5723
12292TIP3    H258292   4.506   1.957   5.668 -1.4326  0.1119  0.4669
12293TIP3   OH258293   3.082   0.148  12.362 -0.2539 -0.6843 -0.0271
12293TIP3    H158294   3.028   0.194  12.298 -0.0465 -0.0072  0.2881
12293TIP3    H258295   3.171   0.180  12.346 -0.2328 -0.3460  0.7494
12294TIP3   OH258296   3.012   0.617   1.982 -0.2548  0.1073 -0.0353
12294TIP3    H158297   2.987   0.602   1.891 -0.2668  1.0339 -0.1928
12294TIP3    H258298   3.100   0.656   1.977 -0.1632 -0.0452  0.3577
12295TIP3   OH258299   2.932   4.178  16.549 -0.0585  0.6348 -0.1189
12295TIP3    H158300   2.927   4.171  16.454 -0.0455  1.1483 -0.1611
12295TIP3    H258301   2.900   4.094  16.581 -0.3320  0.5629 -0.5688
12296TIP3   OH258302   4.460   6.444   3.285  0.5297  0.0314  0.2668
12296TIP3    H158303   4.407   6.369   3.312 -0.5903  1.4627  2.2546
12296TIP3    H258304   4.545   6.429   3.327  0.8086 -0.8032 -0.5420
12297TIP3   OH258305   4.400   2.502   0.291 -0.3892 -0.1472 -0.0010
12297TIP3    H158306   4.406   2.462   0.378  0.6981 -0.6875 -0.3071
12297TIP3    H258307   4.466   2.572   0.292 -1.9815  1.4035  0.3839
12298TIP3   OH258308   0.754   4.461  14.879  0.2158  0.6776 -0.7066
12298TIP3    H158309   0.762   4.502  14.792 -0.0481  0.9012 -0.6268
12298TIP3    H258310   0.833   4.407  14.887  1.5398  2.5740 -0.0739
12299TIP3   OH258311   1.544   0.426  16.727  0.2132  0.2059 -0.2959
12299TIP3    H158312   1.487   0.476  16.785 -1.9937 -1.2060 -1.1617
12299TIP3    H258313   1.596   0.372  16.787  0.0742  0.8948  0.4743
12300TIP3   OH258314   0.717   1.348   0.526  0.5291  0.0358  1.2028
12300TIP3    H158315   0.755   1.371   0.611 -0.3670 -0.6251  1.8040
12300TIP3    H258316   0.724   1.427   0.474 -0.8510  1.1343  2.6101
12301TIP3   OH258317   1.968   2.034  11.072  0.0954 -0.4694 -0.3214
12301TIP3    H158318   1.882   2.060  11.039 -0.0769 -1.5033 -0.7150
12301TIP3    H258319   1.972   1.940  11.058  1.7370 -0.2781 -1.3238
12302TIP3   OH258320   3.092   2.734   2.576  0.3109  0.5023  0.0188
12302TIP3    H158321   3.178   2.763   2.606 -0.6548  0.6276  3.1040
12302TIP3    H258322   3.074   2.657   2.630 -1.6270  0.6801 -0.3201
12303TIP3   OH258323   1.509   4.481  13.509 -0.4219  0.3874  0.8354
12303TIP3    H158324   1.537   4.414  13.571 -0.3102 -1.1337 -0.7858
12303TIP3    H258325   1.422   4.452  13.480  0.4646 -0.2026 -1.3885
12304TIP3   OH258326   6.227   4.677  11.178  0.4268  0.2164  0.4710
12304TIP3    H158327   6.177   4.619  11.235  1.0719 -0.4793  0.3467
12304TIP3    H258328   6.314   4.638  11.175  0.1188 -0.4612 -1.9412
12305TIP3   OH258329   4.850   0.607  12.036  0.0871  0.0079 -0.2836
12305TIP3    H158330   4.787   0.561  12.091  0.6506 -0.5174 -0.0662
12305TIP3    H258331   4.797   0.642  11.964 -0.6493  0.6675  0.5534
12306TIP3   OH258332   1.072   4.252   5.258 -0.5238  0.4797  0.0528
12306TIP3    H158333   1.022   4.326   5.225 -2.3279 -0.9500 -0.5667
12306TIP3    H258334   1.080   4.268   5.352  0.0295  1.9436 -0.2165
12307TIP3   OH258335   0.224   2.987  14.836  0.2924  0.0981  0.0923
12307TIP3    H158336   0.255   2.923  14.772 -0.2187  1.8839 -2.0685
12307TIP3    H258337   0.134   2.960  14.856  0.5923 -0.6998  0.3912
12308TIP3   OH258338   1.987   5.555  13.578  0.1854  0.9307 -0.3094
12308TIP3    H158339   2.028   5.552  13.492  1.4988 -0.5766  0.3111
12308TIP3    H258340   2.008   5.641  13.613  0.9276  1.0029 -0.9177
12309TIP3   OH258341   5.360   2.247   0.629 -0.5549 -0.0394  0.1045
12309TIP3    H158342   5.339   2.154   0.622  1.3064 -0.4188 -1.1062
12309TIP3    H258343   5.330   2.285   0.546  0.2997  0.0592 -0.1748
12310TIP3   OH258344   6.747   0.087  12.763  0.2570  0.0890 -0.3807
12310TIP3    H158345   6.774   0.175  12.789  0.8486 -0.0201 -0.6043
12310TIP3    H258346   6.753   0.035  12.844 -1.4094  0.5344  0.0713
12311TIP3   OH258347   1.544   1.034   3.929  0.2736 -0.8450  0.0648
12311TIP3    H158348   1.493   1.014   4.007 -2.1097  3.1310 -0.1748
12311TIP3    H258349   1.625   1.074   3.962  0.6515 -1.9022  0.4448
12312TIP3   OH258350   0.922   6.713   2.345  0.1125  0.9265  0.7030
12312TIP3    H158351   0.848   6.653   2.341 -0.4122  1.6024 -0.1747
12312TIP3    H258352   0.929   6.749   2.256 -0.0169  2.6475  1.3510
12313TIP3   OH258353   1.903   1.467  11.533 -0.0662 -0.7017  0.2140
12313TIP3    H158354   1.875   1.515  11.454  1.6997  0.9467  0.5315
12313TIP3    H258355   1.974   1.519  11.569 -0.3863 -1.7803  2.5680
12314TIP3   OH258356   4.048   1.123  11.416  0.7387 -0.6940  0.4197
12314TIP3    H158357   4.101   1.050  11.384  0.5180 -0.1434 -1.2595
12314TIP3    H258358   4.025   1.173  11.338  1.3267  1.5142  1.5926
12315TIP3   OH258359   6.235   2.422  13.282  0.6140 -0.1018 -0.7018
12315TIP3    H158360   6.162   2.472  13.319  1.1735  0.4435 -0.3097
12315TIP3    H258361   6.312   2.457  13.326  1.1203 -0.6223 -1.1655
12316TIP3   OH258362   3.365   4.324   0.099 -0.2157  0.2407  0.1317
12316TIP3    H158363   3.310   4.267   0.153 -0.7266 -0.0945 -0.7167
12316TIP3    H258364   3.327   4.319   0.012  0.5331  0.8470 -0.2503
12317TIP3   OH258365   6.624   4.689  12.469  0.1789 -0.4244  0.0660
12317TIP3    H158366   6.656   4.743  12.541 -2.0072  1.2707 -0.1342
12317TIP3    H258367   6.663   4.728  12.390 -0.1323 -0.1411  0.0527
12318TIP3   OH258368   6.504   2.574   6.267 -0.1712 -0.0564  0.1228
12318TIP3    H158369   6.568   2.549   6.333 -0.1481 -1.0029 -0.2426
12318TIP3    H258370   6.555   2.580   6.186 -0.3295  0.3628  0.0557
12319TIP3   OH258371   4.677   2.109   0.926 -0.1558  0.4125 -0.0893
12319TIP3    H158372   4.623   2.117   1.005 -0.0860 -0.2362  0.0324
12319TIP3    H258373   4.735   2.185   0.929 -0.3957  0.5858  0.2960
12320TIP3   OH258374   4.231   3.242   6.096 -0.5059 -0.3414  0.4574
12320TIP3    H158375   4.259   3.156   6.065 -2.0177  0.2302 -2.8927
12320TIP3    H258376   4.222   3.231   6.191 -1.1478 -4.0275  0.1269
12321TIP3   OH258377   4.326   2.689   0.560  0.3529 -0.3735 -0.4131
12321TIP3    H158378   4.416   2.719   0.551  1.5156 -2.2547  2.9825
12321TIP3    H258379   4.273   2.768   0.556  2.2217  0.8971 -1.4875
12322TIP3   OH258380   4.989   2.139   6.549  0.1313  0.5448  0.5276
12322TIP3    H158381   5.060   2.198   6.574 -0.3397  2.2698 -1.9370
12322TIP3    H258382   4.916   2.196   6.528 -2.3914 -1.1889  3.6486
12323TIP3   OH258383   0.428   2.462   0.933 -0.0818 -0.5896 -0.0678
12323TIP3    H158384   0.358   2.413   0.977  1.7867 -2.5227  0.9181
12323TIP3    H258385   0.391   2.484   0.847 -2.0663 -1.0851  0.6146
12324TIP3   OH258386   2.247   6.736   0.219  0.3707 -0.2470 -0.4351
12324TIP3    H158387   2.161   6.701   0.195  1.0411 -1.5913 -1.0029
12324TIP3    H258388   2.286   6.668   0.275  0.0947  1.4545  1.9663
12325TIP3   OH258389   6.213   4.320   2.764  0.3901  0.2598  0.4144
12325TIP3    H158390   6.288   4.271   2.800  1.1744  1.9807  1.2353
12325TIP3    H258391   6.159   4.339   2.841 -0.4867 -0.2462 -0.0641
12326TIP3   OH258392   0.839   2.003  11.945 -0.0901  0.5528 -0.1809
12326TIP3    H158393   0.900   1.971  12.012  1.0014  0.7553 -1.0406
12326TIP3    H258394   0.878   2.086  11.916 -0.5848  0.5007 -1.0085
12327TIP3   OH258395   1.481   3.375  15.751  0.2875 -0.1031 -0.1755
12327TIP3    H158396   1.461   3.467  15.732 -0.0808  0.3930  2.2062
12327TIP3    H258397   1.421   3.326  15.695 -0.0104  1.1234 -0.9858
12328TIP3   OH258398   3.830   5.488  15.557 -0.4248 -0.4953 -0.3991
12328TIP3    H158399   3.826   5.452  15.646  0.2468  0.6010  0.0975
12328TIP3    H258400   3.747   5.464  15.517 -0.8232 -0.8224  0.6077
12329TIP3   OH258401   1.117   3.644  11.425  0.6825  0.2046  0.8093
12329TIP3    H158402   1.047   3.579  11.436 -0.0799  0.9110  0.2205
12329TIP3    H258403   1.089   3.719  11.477  0.9956  0.4934  0.5696
12330TIP3   OH258404   2.359   2.133   4.810 -0.4491  0.7914  0.1059
12330TIP3    H158405   2.344   2.058   4.868 -1.0522  0.8032 -0.0344
12330TIP3    H258406   2.273   2.172   4.798  0.0828  2.6553  1.6930
12331TIP3   OH258407   3.671   4.121   0.629  0.0530  0.6456 -0.2543
12331TIP3    H158408   3.765   4.132   0.615  0.2465  0.6842  0.9896
12331TIP3    H258409   3.634   4.121   0.540  1.0680  1.9287 -0.7134
12332TIP3   OH258410   3.921   6.119   4.112  0.2048 -0.1369  0.1693
12332TIP3    H158411   3.924   6.027   4.139  1.2980 -0.7295 -1.7729
12332TIP3    H258412   3.917   6.168   4.195  2.0149 -1.8430  1.3629
12333TIP3   OH258413   2.229   4.201   5.311  0.0020  0.4294 -0.6740
12333TIP3    H158414   2.175   4.125   5.289 -1.0803  1.0134 -0.1284
12333TIP3    H258415   2.177   4.276   5.282  1.9627  0.9574 -3.1828
12334TIP3   OH258416   3.066   5.203   0.516 -0.1405  0.4748  0.0870
12334TIP3    H158417   3.085   5.201   0.610  0.5754 -0.4451 -0.0571
12334TIP3    H258418   3.001   5.134   0.504  1.5404 -1.0975 -0.4192
12335TIP3   OH258419   5.592   6.604   3.393  0.3695  0.0595 -0.7351
12335TIP3    H158420   5.652   6.589   3.319  1.0359  0.0212 -0.1989
12335TIP3    H258421   5.650   6.630   3.465 -0.3740  1.0998 -0.5047
12336TIP3   OH258422   1.907   0.769   1.663  0.0335  0.2121 -0.1868
12336TIP3    H158423   1.961   0.713   1.719 -0.4543 -0.1010 -0.0138
12336TIP3    H258424   1.819   0.731   1.670  0.2044 -0.7294 -2.3146
12337TIP3   OH258425   0.958   1.029   5.433 -1.4245  1.0834  0.0864
12337TIP3    H158426   0.963   1.094   5.362 -1.1666 -0.5256 -1.4196
12337TIP3    H258427   0.951   1.082   5.512  3.3878  3.1401 -0.5332
12338TIP3   OH258428   5.457   4.407   1.730 -0.2425 -0.0738  0.5626
12338TIP3    H158429   5.465   4.469   1.802 -0.3655 -1.3291  1.7141
12338TIP3    H258430   5.530   4.346   1.743 -0.2498 -0.3071 -0.4029
12339TIP3   OH258431   0.343   5.778   3.686  0.1043  0.2634  0.1071
12339TIP3    H158432   0.355   5.688   3.657  0.8598 -0.1092  1.4742
12339TIP3    H258433   0.249   5.793   3.679 -0.1538 -0.9388  0.6867
12340TIP3   OH258434   6.706   2.084   6.510  0.6276  0.0101 -0.1132
12340TIP3    H158435   6.636   2.081   6.575  2.4117 -1.4858  1.8902
12340TIP3    H258436   6.726   2.177   6.501 -0.9134  0.3848  0.0100
12341TIP3   OH258437   3.498   5.902  10.860 -0.3279 -0.2159  0.4974
12341TIP3    H158438   3.436   5.842  10.900 -1.2450  1.1422  1.1945
12341TIP3    H258439   3.579   5.891  10.910 -1.0646  0.5034  1.9115
12342TIP3   OH258440   6.710   3.675  16.634 -0.9897 -0.1577  0.1384
12342TIP3    H158441   6.769   3.701  16.563 -1.7708  0.7550 -0.1857
12342TIP3    H258442   6.632   3.728  16.622 -0.8917  0.5026  2.0803
12343TIP3   OH258443   5.856   2.659  11.959 -0.0878 -0.3782 -0.1071
12343TIP3    H158444   5.783   2.655  11.897  2.2262 -3.0046 -2.9714
12343TIP3    H258445   5.931   2.686  11.906  1.7567 -1.2863  1.8868
12344TIP3   OH258446   2.299   6.435   2.229 -0.0030 -0.3001  0.0721
12344TIP3    H158447   2.220   6.464   2.184 -0.3146 -2.9362 -1.3455
12344TIP3    H258448   2.282   6.450   2.322 -1.9670 -0.3337 -0.2454
12345TIP3   OH258449   6.541   5.154  14.159 -0.7086 -0.0556  0.0751
12345TIP3    H158450   6.624   5.121  14.193 -1.0014 -0.1163  0.7591
12345TIP3    H258451   6.487   5.167  14.238 -0.7969  1.5210 -0.2143
12346TIP3   OH258452   2.251   2.364  15.329  0.2079 -0.2622 -0.0878
12346TIP3    H158453   2.207   2.365  15.244 -0.1186  0.4848  0.0893
12346TIP3    H258454   2.191   2.409  15.388  1.2306  0.8626  0.1353
12347TIP3   OH258455   0.433   6.013  11.615  0.2108 -0.0075  0.1951
12347TIP3    H158456   0.350   5.998  11.570  0.7200  0.0202 -0.7871
12347TIP3    H258457   0.449   5.931  11.662 -1.1053  0.5289  1.6638
12348TIP3   OH258458   2.909   3.982   2.411 -0.6802  0.0195  0.1196
12348TIP3    H158459   2.988   3.950   2.370 -0.2968 -0.4643  1.1949
12348TIP3    H258460   2.842   3.976   2.343  0.3753  1.3178 -1.0976
12349TIP3   OH258461   3.002   5.850   0.098 -0.4114  0.4918  0.4804
12349TIP3    H158462   2.959   5.840   0.183 -1.3414  0.7053  0.0529
12349TIP3    H258463   2.944   5.908   0.049  0.5816  1.0980  0.0087
12350TIP3   OH258464   2.704   1.491  17.040  0.0659  0.3024 -0.7042
12350TIP3    H158465   2.780   1.469  17.094 -0.7707 -0.4356  0.2140
12350TIP3    H258466   2.714   1.437  16.962  1.1828  1.2288 -1.2283
12351TIP3   OH258467   3.794   1.960  15.402  0.2679 -0.1566 -0.3348
12351TIP3    H158468   3.751   2.041  15.379  0.5720 -0.1615 -0.9316
12351TIP3    H258469   3.775   1.948  15.495 -0.8534 -0.0692 -0.5390
12352TIP3   OH258470   5.827   3.462  15.534 -0.1282 -0.1053 -0.3962
12352TIP3    H158471   5.823   3.391  15.471  0.3135  0.9938 -1.7090
12352TIP3    H258472   5.757   3.521  15.509  0.8095  0.9416 -0.6372
12353TIP3   OH258473   4.674   6.368   4.408  0.3216  0.7661  0.2202
12353TIP3    H158474   4.644   6.382   4.498  0.5537 -1.5743  0.7237
12353TIP3    H258475   4.769   6.372   4.413  0.5971 -2.8563  0.9116
12354TIP3   OH258476   2.377   5.345   4.311  0.4179 -0.2063  0.0170
12354TIP3    H158477   2.335   5.331   4.395 -0.1508 -0.6379 -0.3310
12354TIP3    H258478   2.324   5.295   4.249  0.3240  0.7980 -0.7348
12355TIP3   OH258479   4.615   0.330   0.206  0.3281  0.1498 -0.0448
12355TIP3    H158480   4.621   0.256   0.266  1.4946  0.0650 -0.2488
12355TIP3    H258481   4.660   0.401   0.251 -1.3857  0.9641  0.4510
12356TIP3   OH258482   2.629   6.332  16.329  0.1971 -0.7965  0.4186
12356TIP3    H158483   2.646   6.426  16.333  0.2971 -0.8548  1.7596
12356TIP3    H258484   2.701   6.293  16.379  0.3012 -1.6091 -0.3581
12357TIP3   OH258485   2.175   5.979   5.976 -0.3747  0.0295 -0.0226
12357TIP3    H158486   2.114   6.010   5.909  0.9773  0.8800 -0.9134
12357TIP3    H258487   2.214   6.059   6.013  1.7391 -0.4716 -0.9862
12358TIP3   OH258488   4.926   4.848   5.010  0.0805  0.4029 -0.0820
12358TIP3    H158489   4.983   4.887   4.944 -0.1537 -1.3244 -1.3843
12358TIP3    H258490   4.959   4.758   5.019 -0.1684  0.4584  1.8679
12359TIP3   OH258491   0.407   2.185  12.472  0.0751  0.1894 -0.6832
12359TIP3    H158492   0.424   2.105  12.523  0.2485 -0.3012 -1.4888
12359TIP3    H258493   0.378   2.249  12.537  3.6879  0.7216  0.6847
12360TIP3   OH258494   6.178   1.980   0.907  0.4897 -0.1837  0.1037
12360TIP3    H158495   6.223   1.966   0.823  0.9063  1.0941  0.0942
12360TIP3    H258496   6.245   2.018   0.964  0.1992 -1.0138  1.0193
12361TIP3   OH258497   2.957   0.083  13.921 -0.1477 -0.0390  0.4466
12361TIP3    H158498   3.038   0.044  13.956  0.6391 -0.1627 -1.3999
12361TIP3    H258499   2.968   0.177  13.935  0.3967 -0.0426  0.1074
12362TIP3   OH258500   0.049   4.832  13.518  0.3272 -0.0379  0.3720
12362TIP3    H158501   0.120   4.772  13.542 -0.0959 -1.6068 -1.9489
12362TIP3    H258502   0.083   4.879  13.441 -0.6143  0.2167  0.1021
12363TIP3   OH258503   0.461   0.988  17.353 -0.4474 -0.3746 -0.3896
12363TIP3    H158504   0.539   0.943  17.320  0.4922  1.0907 -0.2638
12363TIP3    H258505   0.463   1.074  17.310 -1.9233 -0.2613 -0.2688
12364TIP3   OH258506   1.867   4.771   0.277  0.1253  0.6529  0.3956
12364TIP3    H158507   1.913   4.719   0.212 -1.2108 -0.5085  0.3173
12364TIP3    H258508   1.890   4.861   0.257  1.9627  0.1531  0.1066
12365TIP3   OH258509   2.719   0.096  10.894  0.5274  0.4687  0.0323
12365TIP3    H158510   2.753   0.036  10.960 -0.3850  0.9337  0.9435
12365TIP3    H258511   2.793   0.153  10.874  0.4519  1.1610  1.6319
12366TIP3   OH258512   5.867   0.141   3.107 -0.3292 -0.0119  0.2893
12366TIP3    H158513   5.824   0.186   3.180 -0.3278 -0.6779  0.7085
12366TIP3    H258514   5.914   0.069   3.148 -0.7469 -0.7050 -0.4321
12367TIP3   OH258515   5.274   0.279   6.439 -0.3380 -0.1469 -0.0320
12367TIP3    H158516   5.318   0.316   6.516 -1.0070  3.1954 -1.1096
12367TIP3    H258517   5.211   0.218   6.476  0.5696  0.0138  1.9578
12368TIP3   OH258518   1.896   4.345   2.478  0.0818 -0.3110 -0.0996
12368TIP3    H158519   1.987   4.334   2.504 -0.2852 -0.8637  0.9915
12368TIP3    H258520   1.848   4.352   2.560 -0.9780 -0.9716 -0.6482
12369TIP3   OH258521   5.688   0.091   0.948  0.3606  0.6811 -0.4749
12369TIP3    H158522   5.764   0.040   0.922 -0.3954 -0.7669  0.0168
12369TIP3    H258523   5.615   0.052   0.899 -0.7104 -0.5863  1.9279
12370TIP3   OH258524   4.462   1.756   3.638  0.2715 -0.6266  0.0411
12370TIP3    H158525   4.503   1.722   3.717 -1.1517 -2.0136  0.2155
12370TIP3    H258526   4.534   1.761   3.574  1.6936  1.6187  1.6697
12371TIP3   OH258527   5.980   2.741  14.594 -0.2689 -0.3898  0.3163
12371TIP3    H158528   5.897   2.700  14.616 -0.1730 -0.1422  1.1834
12371TIP3    H258529   6.044   2.670  14.595 -0.1520 -0.2963  1.5313
12372TIP3   OH258530   4.438   2.550  12.771 -0.1469  0.2507 -0.1243
12372TIP3    H158531   4.481   2.476  12.726 -2.1253  0.1959 -2.1119
12372TIP3    H258532   4.347   2.522  12.782 -1.4827  2.9475 -2.6534
12373TIP3   OH258533   2.346   6.119  10.867 -0.3028  0.1420  0.4949
12373TIP3    H158534   2.289   6.047  10.841  1.8116 -1.7094  0.7008
12373TIP3    H258535   2.432   6.096  10.832  0.4431  2.6514  0.4651
12374TIP3   OH258536   0.376   6.035  16.343 -0.3267 -0.1590  0.5184
12374TIP3    H158537   0.295   6.057  16.296  0.5608  1.3352 -0.3982
12374TIP3    H258538   0.382   5.940  16.338 -0.5867 -0.1075 -1.9245
12375TIP3   OH258539   6.067   0.023  13.140  0.0890  0.1975  0.2464
12375TIP3    H158540   6.125  -0.047  13.112  0.4451 -0.0469  1.5359
12375TIP3    H258541   6.072   0.088  13.070  1.6623  0.0355  0.1716
12376TIP3   OH258542   0.249   0.510   6.240 -0.6842 -0.2866 -0.1245
12376TIP3    H158543   0.318   0.512   6.174 -1.6989  0.6237 -1.1886
12376TIP3    H258544   0.257   0.423   6.281  2.4760  0.5354  1.3329
12377TIP3   OH258545   6.306   5.917   1.369 -0.1781 -0.6422 -0.4459
12377TIP3    H158546   6.389   5.889   1.409 -0.1518  1.5558  1.2691
12377TIP3    H258547   6.238   5.885   1.428 -0.4169 -0.7055 -0.7517
12378TIP3   OH258548   0.104   5.751  13.388  0.2725  0.1080  0.0854
12378TIP3    H158549   0.095   5.826  13.328  2.5437 -1.9919 -3.2266
12378TIP3    H258550   0.181   5.772  13.440  0.1815  0.5747  0.0428
12379TIP3   OH258551   1.755   2.801   2.807  0.7657 -0.3272  0.3097
12379TIP3    H158552   1.838   2.848   2.807  0.0914  0.8866  0.5589
12379TIP3    H258553   1.780   2.709   2.822  2.0685 -0.0246  0.1333
12380TIP3   OH258554   6.340   5.271  13.272  0.7315  0.1190  0.3471
12380TIP3    H158555   6.332   5.341  13.207 -0.3506  0.4714  0.8304
12380TIP3    H258556   6.357   5.316  13.354 -0.6023 -0.1176  0.7746
12381TIP3   OH258557   2.022   1.760  14.004 -0.0406 -0.3249  0.2284
12381TIP3    H158558   1.975   1.831  13.960  0.4926  0.6914  1.2458
12381TIP3    H258559   2.060   1.709  13.932 -1.0493 -0.0302 -0.5430
12382TIP3   OH258560   5.961   2.708  14.953  0.2006 -0.1472  0.2345
12382TIP3    H158561   5.961   2.789  14.902  0.8429 -0.5781 -0.4806
12382TIP3    H258562   5.962   2.736  15.044  0.8023  0.6571 -0.0136
12383TIP3   OH258563   6.527   2.281   4.520 -0.1078 -0.2030  0.3502
12383TIP3    H158564   6.564   2.367   4.541  1.3324 -0.8694  0.6379
12383TIP3    H258565   6.460   2.300   4.455  0.5234  1.0929  0.0365
12384TIP3   OH258566   6.400   0.674   5.019 -0.1013 -0.5187  0.0970
12384TIP3    H158567   6.320   0.628   4.991 -0.2620  0.1523 -0.5682
12384TIP3    H258568   6.388   0.688   5.113 -1.0249  0.0735 -0.0969
12385TIP3   OH258569   2.748   1.022   5.435 -0.1562 -0.6270 -0.6047
12385TIP3    H158570   2.780   1.062   5.516 -0.3287 -0.2286 -0.7290
12385TIP3    H258571   2.684   1.085   5.401 -0.5120 -1.0628 -0.7490
12386TIP3   OH258572   0.908   0.649   3.454  0.1564 -0.4215 -0.0417
12386TIP3    H158573   1.003   0.640   3.443  0.0500 -0.1059 -1.4699
12386TIP3    H258574   0.876   0.670   3.366 -1.5250 -2.6960 -0.0537
12387TIP3   OH258575   3.037   5.662   3.524 -1.0801 -0.0442  0.2203
12387TIP3    H158576   3.121   5.691   3.489  0.5179 -1.7612  2.3185
12387TIP3    H258577   3.033   5.569   3.503 -2.2158 -0.1056  0.6256
12388TIP3   OH258578   3.020   2.521   5.133 -0.0306  0.6537  0.9281
12388TIP3    H158579   2.959   2.575   5.085 -1.2401 -0.1724  1.4917
12388TIP3    H258580   3.090   2.501   5.070 -0.5135  1.2984  0.1733
12389TIP3   OH258581   0.141   3.054   0.918 -0.7464 -0.1259  0.3846
12389TIP3    H158582   0.205   2.999   0.873 -0.0204  1.4857 -0.6631
12389TIP3    H258583   0.080   3.082   0.849  0.7265  2.8668  0.1143
12390TIP3   OH258584   2.516   3.200   1.230 -0.3659 -0.1828 -0.0409
12390TIP3    H158585   2.487   3.257   1.302  1.4043  1.1308 -0.2971
12390TIP3    H258586   2.494   3.111   1.259 -1.3125  0.4595  1.3057
12391TIP3   OH258587   3.520   3.601   5.191 -0.1682  0.1154 -0.2956
12391TIP3    H158588   3.495   3.525   5.140 -0.3732  0.1502 -0.2474
12391TIP3    H258589   3.527   3.672   5.127 -0.6701  0.2156 -0.2424
12392TIP3   OH258590   4.585   4.175  10.985 -0.7784  0.0353  0.0006
12392TIP3    H158591   4.513   4.224  10.946 -0.4312  0.8277  0.3346
12392TIP3    H258592   4.630   4.136  10.910 -1.4134 -0.2857 -0.2248
12393TIP3   OH258593   5.308   0.246   1.197 -0.0514  0.0253 -0.1278
12393TIP3    H158594   5.244   0.216   1.262 -1.7802  0.9820 -1.2873
12393TIP3    H258595   5.255   0.292   1.131  1.7707  0.2107 -1.5460
12394TIP3   OH258596   2.337   0.269   0.798 -0.1189 -0.4615 -0.1107
12394TIP3    H158597   2.334   0.319   0.880 -0.8250 -0.1800 -0.2946
12394TIP3    H258598   2.400   0.200   0.814  0.1508 -0.0844  0.4890
12395TIP3   OH258599   2.227   3.986  10.721 -0.4385  0.7842  0.2225
12395TIP3    H158600   2.322   3.977  10.715 -0.2934  2.4245 -0.3746
12395TIP3    H258601   2.208   4.070  10.679 -2.2089  0.2515 -0.1129
12396TIP3   OH258602   4.184   0.001  13.710 -0.2771 -0.8542 -0.1437
12396TIP3    H158603   4.223  -0.022  13.625 -0.4782  0.6068 -0.6560
12396TIP3    H258604   4.096   0.031  13.688  0.3631  1.5367  0.3034
12397TIP3   OH258605   0.206   3.836  14.032 -0.0519  0.2215 -0.4564
12397TIP3    H158606   0.160   3.757  14.005  2.3024 -1.2006 -0.5322
12397TIP3    H258607   0.137   3.903  14.038 -2.3289 -2.0711  0.8055
12398TIP3   OH258608   4.783   6.395  12.600 -0.2639 -0.2812  0.2934
12398TIP3    H158609   4.701   6.392  12.551 -0.4060  2.3320  0.2086
12398TIP3    H258610   4.761   6.445  12.679  1.3949  1.2454 -0.1418
12399TIP3   OH258611   4.708   4.360  10.737 -0.2156 -0.0436  0.2840
12399TIP3    H158612   4.786   4.318  10.773 -0.1590  0.6434  1.0020
12399TIP3    H258613   4.689   4.432  10.798 -0.6840  0.5729 -0.5600
12400TIP3   OH258614   1.213   3.025   2.409  0.3809 -0.2148  0.2764
12400TIP3    H158615   1.233   2.982   2.493 -2.6057  1.1180  1.8175
12400TIP3    H258616   1.228   3.118   2.426  0.1086  0.0335 -0.8140
12401TIP3   OH258617   4.982   5.607   1.719  0.7313 -0.8394  0.1857
12401TIP3    H158618   5.054   5.545   1.734  0.1009 -1.8712 -0.8363
12401TIP3    H258619   4.996   5.676   1.784  1.1730 -2.3007  1.7269
12402TIP3   OH258620   1.844   2.434  11.909  0.2371 -0.0070 -0.1324
12402TIP3    H158621   1.761   2.386  11.909  0.7396 -0.8951 -0.3422
12402TIP3    H258622   1.909   2.369  11.935  0.9425  0.5519 -0.4652
12403TIP3   OH258623   0.154   5.437  12.229  0.2334  0.0012  0.4236
12403TIP3    H158624   0.098   5.479  12.164  0.2711  1.6595  1.4046
12403TIP3    H258625   0.174   5.506  12.292  0.6672 -1.3900  1.8943
12404TIP3   OH258626   2.180   1.867   0.615 -0.6976  0.2222 -0.3410
12404TIP3    H158627   2.150   1.870   0.524 -1.0375 -0.2580 -0.2471
12404TIP3    H258628   2.249   1.800   0.615 -0.7397  0.1795 -0.2345
12405TIP3   OH258629   0.920   5.844   1.042  0.1077  0.3463  0.2265
12405TIP3    H158630   0.837   5.812   1.006  0.0723 -0.2674  0.8263
12405TIP3    H258631   0.969   5.764   1.063  0.6326  0.6998  0.3773
12406TIP3   OH258632   3.986   4.850  10.988 -0.5012 -0.4733  0.0070
12406TIP3    H158633   4.006   4.768  11.032  1.6473 -0.3672 -0.6167
12406TIP3    H258634   3.918   4.828  10.925 -0.6049 -1.5692  0.4797
12407TIP3   OH258635   5.432   6.527   1.900  0.0697 -0.3396 -0.6155
12407TIP3    H158636   5.409   6.583   1.974  0.4268 -1.6169  0.5045
12407TIP3    H258637   5.518   6.492   1.923  0.0242 -1.0326 -1.4749
12408TIP3   OH258638   5.732   0.689  11.619 -0.3106  0.0593  0.4933
12408TIP3    H158639   5.668   0.619  11.625  0.0792 -0.4765 -1.1390
12408TIP3    H258640   5.788   0.676  11.696 -1.5679 -0.0293  1.4218
12409TIP3   OH258641   6.139   6.143   5.165 -0.4262  0.3360  0.1276
12409TIP3    H158642   6.108   6.062   5.124  1.7705 -0.0202 -0.9652
12409TIP3    H258643   6.119   6.211   5.101 -0.2413  0.3079  0.0382
12410TIP3   OH258644   0.011   3.230   6.614  0.2622 -0.5403 -0.1095
12410TIP3    H158645  -0.023   3.298   6.673  0.5593 -1.8584  1.6797
12410TIP3    H258646   0.089   3.198   6.658  1.0232 -0.9671 -1.7149
12411TIP3   OH258647   3.592   1.875   2.293  0.3907  0.1157 -0.1233
12411TIP3    H158648   3.512   1.927   2.292  0.2012 -0.1742 -0.7073
12411TIP3    H258649   3.663   1.940   2.293  0.1587  0.3922 -1.3015
12412TIP3   OH258650   5.084   4.148  16.764  0.0696 -0.0917 -0.1710
12412TIP3    H158651   5.088   4.236  16.728 -1.6242  0.5149  1.0006
12412TIP3    H258652   5.068   4.091  16.689  1.6262  0.4992 -1.0037
12413TIP3   OH258653   5.121   4.019  13.531  0.2259  0.2759 -0.0299
12413TIP3    H158654   5.044   4.015  13.587 -0.4355 -1.4235 -0.9960
12413TIP3    H258655   5.176   3.946  13.559  0.4503  0.1475 -0.7726
12414TIP3   OH258656   2.821   4.453   6.123  0.0007  0.5544  0.2135
12414TIP3    H158657   2.788   4.487   6.206 -0.3220  0.1604  0.2503
12414TIP3    H258658   2.819   4.358   6.133 -1.3923  0.4574 -0.7504
12415TIP3   OH258659   0.264   4.595   0.876  0.6452  0.2925  0.3562
12415TIP3    H158660   0.307   4.545   0.946  1.2922  0.2063 -0.0925
12415TIP3    H258661   0.319   4.579   0.799  0.5845  1.3094  0.1000
12416TIP3   OH258662   4.777   1.199  13.694 -0.5969  0.0386 -0.4621
12416TIP3    H158663   4.703   1.194  13.755  1.1528 -2.2217  1.6938
12416TIP3    H258664   4.836   1.262  13.735  0.2165 -0.8460 -0.2600
12417TIP3   OH258665   3.438   6.711  17.206 -0.2619  0.3870  0.0877
12417TIP3    H158666   3.470   6.622  17.197 -2.0300 -0.2574 -0.1826
12417TIP3    H258667   3.381   6.725  17.130 -1.7491  0.9427  1.2377
12418TIP3   OH258668   2.442   5.337   3.064  0.1423 -0.3675  0.0602
12418TIP3    H158669   2.477   5.357   2.977  0.2690 -1.7493 -0.2385
12418TIP3    H258670   2.399   5.252   3.054  1.3212 -1.2080  1.6446
12419TIP3   OH258671   5.420   4.957   0.559  0.4341  0.9531  0.0294
12419TIP3    H158672   5.389   4.867   0.564  2.5466 -0.1123 -3.0762
12419TIP3    H258673   5.497   4.958   0.616  0.3557  0.8145  0.1390
12420TIP3   OH258674   0.909   1.493  10.575 -0.4367  0.1397  0.0724
12420TIP3    H158675   0.862   1.503  10.492  2.0803  0.4250 -1.4245
12420TIP3    H258676   0.909   1.399  10.592 -0.9668  0.0790 -0.2617
12421TIP3   OH258677   5.644   5.709   1.828  0.3774  0.4157 -0.0171
12421TIP3    H158678   5.632   5.765   1.904  2.0103  0.6956  0.0725
12421TIP3    H258679   5.733   5.728   1.798  0.0756 -0.3152 -1.4826
12422TIP3   OH258680   0.785   2.622   6.470  0.6392 -0.4538  0.5924
12422TIP3    H158681   0.865   2.594   6.427  2.2614 -0.5123  3.3794
12422TIP3    H258682   0.804   2.709   6.504 -1.4751  0.6982 -0.9125
12423TIP3   OH258683   3.476   2.670   1.485  0.5249 -0.2731  0.3604
12423TIP3    H158684   3.550   2.726   1.461  0.1052  0.5807  0.9827
12423TIP3    H258685   3.464   2.686   1.579 -0.8110  0.0605  0.1610
12424TIP3   OH258686   5.941   0.400   0.814  0.6080  0.2134 -0.0722
12424TIP3    H158687   5.879   0.335   0.781  0.0785 -0.7646  2.6030
12424TIP3    H258688   5.886   0.475   0.840  0.7973  0.2710  0.1678
12425TIP3   OH258689   4.993   2.690   5.567 -0.2752  0.0173  0.0425
12425TIP3    H158690   5.034   2.705   5.482 -0.1507 -3.1826 -0.5865
12425TIP3    H258691   4.899   2.697   5.549 -0.2258  0.6083 -0.0291
12426TIP3   OH258692   5.254   2.585  12.001  0.2674 -0.1602 -0.1102
12426TIP3    H158693   5.208   2.661  11.965  1.3110  0.2336 -0.6406
12426TIP3    H258694   5.212   2.571  12.086  0.3690  1.3127  0.2204
12427TIP3   OH258695   5.996   3.181  13.660  0.3620 -1.3481 -1.1922
12427TIP3    H158696   6.009   3.209  13.569 -2.0448  0.3149 -1.1238
12427TIP3    H258697   5.938   3.105  13.653 -0.4128 -0.7826 -1.0573
12428TIP3   OH258698   0.490   1.977   0.173  0.1127  0.0247  0.0684
12428TIP3    H158699   0.433   1.988   0.098 -1.5683 -0.3836  1.2234
12428TIP3    H258700   0.554   1.911   0.146 -0.8075 -0.5336 -0.8026
12429TIP3   OH258701   2.455   5.204   1.780 -0.2241  0.4533 -0.6681
12429TIP3    H158702   2.381   5.255   1.813  1.1408  1.6969  0.6077
12429TIP3    H258703   2.529   5.231   1.834  0.9179 -1.6933 -1.0461
12430TIP3   OH258704   2.022   2.438  12.221  0.1310  0.4322 -0.0432
12430TIP3    H158705   2.112   2.440  12.187  0.0690  0.7096 -0.1924
12430TIP3    H258706   1.969   2.411  12.146  0.0639  0.4686 -0.0082
12431TIP3   OH258707   6.740   1.581   5.534 -0.0231  0.0227  0.0222
12431TIP3    H158708   6.659   1.588   5.583  0.6149  0.1288  1.0952
12431TIP3    H258709   6.771   1.671   5.526  0.6916 -0.1282  0.8739
12432TIP3   OH258710   0.010   4.066   4.730  0.7380  0.3424  0.0279
12432TIP3    H158711  -0.035   3.988   4.697  1.4065  0.1502 -0.4418
12432TIP3    H258712  -0.054   4.107   4.788 -0.2426  0.3435 -1.0175
12433TIP3   OH258713   5.661   5.991   2.565 -0.2812  0.2067  0.0659
12433TIP3    H158714   5.575   5.973   2.527  0.4957  0.5875 -2.0121
12433TIP3    H258715   5.657   6.083   2.592 -0.9375 -0.1494  1.2239
12434TIP3   OH258716   4.873   4.945  14.866  0.4481 -0.0111  0.4361
12434TIP3    H158717   4.797   4.923  14.813 -0.6888  1.3179  1.4581
12434TIP3    H258718   4.939   4.974  14.804 -0.7116  1.1245 -0.2946
12435TIP3   OH258719   5.938   5.529   4.281 -0.1417  0.4523  0.0610
12435TIP3    H158720   5.901   5.475   4.210 -1.5481  2.7928 -1.0964
12435TIP3    H258721   5.882   5.511   4.356 -0.0288 -0.3774 -0.0435
12436TIP3   OH258722   3.801   1.318  14.695  0.2841 -0.4173 -0.2104
12436TIP3    H158723   3.729   1.381  14.697 -0.0457 -0.6463 -2.1422
12436TIP3    H258724   3.782   1.258  14.767 -0.8890  0.1334 -0.0313
12437TIP3   OH258725   4.277   5.293   4.303 -0.0870 -0.4327 -0.6352
12437TIP3    H158726   4.214   5.263   4.369 -0.0111 -0.0475 -0.3847
12437TIP3    H258727   4.326   5.362   4.347  1.5017 -1.6985 -0.3007
12438TIP3   OH258728   6.050   0.936   0.459 -0.1512 -0.2187 -0.5461
12438TIP3    H158729   6.000   0.985   0.524  1.1225  0.7854 -0.2834
12438TIP3    H258730   6.118   0.892   0.510 -1.5338 -2.7285 -0.7031
12439TIP3   OH258731   1.456   5.672  15.677 -0.0858  0.5782  0.9295
12439TIP3    H158732   1.513   5.600  15.702 -0.9389  0.1871  1.8304
12439TIP3    H258733   1.500   5.750  15.709  1.0300  0.5220 -0.3868
12440TIP3   OH258734   1.237   4.374  11.412 -0.2852  0.4895  0.3745
12440TIP3    H158735   1.266   4.454  11.456 -2.5973  2.5727 -1.6220
12440TIP3    H258736   1.146   4.364  11.438 -0.0763 -1.5040  0.4805
12441TIP3   OH258737   5.273   2.811  12.999 -0.2634 -0.2515 -0.4034
12441TIP3    H158738   5.267   2.863  12.919  1.5375  0.4522 -0.1339
12441TIP3    H258739   5.325   2.734  12.974  0.1785 -0.1036  0.0324
12442TIP3   OH258740   6.157   5.417  10.710 -0.4638  0.0618  0.0508
12442TIP3    H158741   6.219   5.487  10.733  0.4149  0.1997 -2.3915
12442TIP3    H258742   6.078   5.438  10.759 -0.4831  3.2329 -1.1129
12443TIP3   OH258743   6.707   2.600   0.485  0.0805  0.1713  0.1619
12443TIP3    H158744   6.688   2.652   0.563 -0.7697 -0.3671  0.3312
12443TIP3    H258745   6.650   2.523   0.493 -0.3464  0.3185 -1.2081
12444TIP3   OH258746   4.696   3.869  14.616 -0.0160  0.0971  0.1717
12444TIP3    H158747   4.760   3.939  14.621  0.8529 -0.7475  1.7212
12444TIP3    H258748   4.612   3.912  14.630  0.4381  0.9158  0.4416
12445TIP3   OH258749   4.383   2.208   5.825 -0.4256  0.0853 -0.3808
12445TIP3    H158750   4.438   2.210   5.904 -1.5431 -0.9079  0.4615
12445TIP3    H258751   4.439   2.169   5.758 -0.6297 -2.8423  0.9787
12446TIP3   OH258752   1.783   0.306   3.367 -0.8147  0.6572  0.3164
12446TIP3    H158753   1.797   0.244   3.439 -0.4619  0.0304 -0.2678
12446TIP3    H258754   1.717   0.367   3.399  0.9349  1.7794  2.0182
12447TIP3   OH258755   2.231   2.874  14.396 -0.0387 -0.3335 -0.2606
12447TIP3    H158756   2.311   2.839  14.436 -0.8447 -2.4357 -0.3294
12447TIP3    H258757   2.205   2.946  14.453  0.8467 -0.8696  0.8688
12448TIP3   OH258758   5.429   4.935   6.245 -0.2330  0.0628  0.1153
12448TIP3    H158759   5.501   4.873   6.255 -0.0877  0.2919  0.4829
12448TIP3    H258760   5.459   4.998   6.180 -0.2967 -0.1290 -0.0988
12449TIP3   OH258761   0.947   0.701  12.487 -0.3182  0.0821  0.0483
12449TIP3    H158762   0.917   0.777  12.537 -2.0380  0.2726 -1.1821
12449TIP3    H258763   1.038   0.690  12.514 -0.4801  1.6029  1.4339
12450TIP3   OH258764   2.357   0.301  11.519  0.1660 -0.3497 -0.6279
12450TIP3    H158765   2.375   0.364  11.589 -0.7936 -0.0773 -0.6153
12450TIP3    H258766   2.279   0.335  11.476  0.3196 -0.9119 -1.3729
12451TIP3   OH258767   6.728   1.679   6.518 -0.4628 -0.1176 -0.4123
12451TIP3    H158768   6.789   1.730   6.465 -0.7297  1.2190  0.5321
12451TIP3    H258769   6.641   1.710   6.491 -0.6064  0.3950  0.6006
12452TIP3   OH258770   5.164   6.724   1.139  0.1703  0.2247 -0.7743
12452TIP3    H158771   5.132   6.674   1.063  2.3508 -0.7496 -1.1248
12452TIP3    H258772   5.209   6.799   1.101  0.1868  0.4156 -0.3828
12453TIP3   OH258773   5.263   6.633  12.774  0.4596  0.1875 -0.5513
12453TIP3    H158774   5.197   6.567  12.797  0.4063  0.4807  0.1517
12453TIP3    H258775   5.292   6.607  12.687 -0.3395 -0.1411 -0.7337
12454TIP3   OH258776   1.057   4.010   4.839  0.0075 -0.0429 -0.9590
12454TIP3    H158777   1.001   4.045   4.771  0.6275 -0.1062 -1.5152
12454TIP3    H258778   1.144   4.006   4.799  0.8447  1.9034  0.4975
12455TIP3   OH258779   3.120   6.568  14.763  0.0342 -0.5075 -0.1638
12455TIP3    H158780   3.026   6.551  14.767 -0.0552 -0.2913 -1.0650
12455TIP3    H258781   3.160   6.492  14.806 -0.5438 -0.6227  0.1796
12456TIP3   OH258782   0.181   4.882   0.759 -0.1548  0.0568 -0.4783
12456TIP3    H158783   0.112   4.854   0.699 -3.4670  1.1615  2.5090
12456TIP3    H258784   0.219   4.800   0.791 -0.6501 -0.6122 -1.5463
12457TIP3   OH258785   3.532   6.100  11.597  0.0671  0.3892  0.2414
12457TIP3    H158786   3.626   6.113  11.610  0.1865 -0.5391  0.3641
12457TIP3    H258787   3.502   6.182  11.557  1.2370  0.1071 -1.3371
12458TIP3   OH258788   2.509   4.966  13.831 -0.4237  0.2990  0.0233
12458TIP3    H158789   2.578   4.934  13.890 -1.4335 -0.3536  0.8904
12458TIP3    H258790   2.553   5.031  13.776  1.5346 -1.9024 -1.2287
12459TIP3   OH258791   1.123   2.765  16.961  0.0016 -0.3595  0.9637
12459TIP3    H158792   1.176   2.764  17.040  2.2715  0.8711 -0.4134
12459TIP3    H258793   1.182   2.798  16.893 -1.8418 -1.2834 -1.2491
12460TIP3   OH258794   1.685   5.926  13.443 -0.4061  0.1566 -0.0107
12460TIP3    H158795   1.737   5.903  13.367  0.3708 -0.5593  0.7173
12460TIP3    H258796   1.601   5.955  13.407 -0.0914 -0.2823 -1.1268
12461TIP3   OH258797   1.344   4.076  12.084 -0.0541  0.0066  0.5014
12461TIP3    H158798   1.291   4.137  12.033 -0.5286 -1.2271 -0.5333
12461TIP3    H258799   1.420   4.128  12.111  0.4201  0.6454 -1.8119
12462TIP3   OH258800   5.181   1.942   0.029  0.4260 -0.0175  0.1186
12462TIP3    H158801   5.165   2.017  -0.030  1.6615 -0.1839 -0.4661
12462TIP3    H258802   5.096   1.898   0.036 -0.4299  1.6406  0.7848
12463TIP3   OH258803   0.160   5.726  16.476  0.8042  0.3630  0.1943
12463TIP3    H158804   0.153   5.637  16.509 -0.8873 -0.0382 -1.0986
12463TIP3    H258805   0.133   5.781  16.549 -0.6398 -0.3644  0.2357
12464TIP3   OH258806   2.257   5.699  15.842  0.4066 -0.0388 -0.1747
12464TIP3    H158807   2.303   5.680  15.924  0.2402  2.1308  0.5013
12464TIP3    H258808   2.168   5.722  15.870  0.8149  2.4519 -0.7217
12465TIP3   OH258809   4.616   3.110  15.344 -0.3449 -0.9393 -0.0185
12465TIP3    H158810   4.537   3.113  15.397  0.5320 -0.0513  1.2990
12465TIP3    H258811   4.674   3.050  15.391  0.8446  0.6792  0.6658
12466TIP3   OH258812   5.107   6.041  15.232  0.4452  0.1248 -0.1929
12466TIP3    H158813   5.059   5.979  15.287  0.8294 -0.5400 -0.5978
12466TIP3    H258814   5.139   6.108  15.292  0.7188 -0.5044  0.3671
12467TIP3   OH258815   1.838   6.110   5.511  0.1891  0.6068 -0.0023
12467TIP3    H158816   1.921   6.107   5.463  0.2219  0.2604  0.0675
12467TIP3    H258817   1.808   6.019   5.511 -0.7493  0.8991 -1.0012
12468TIP3   OH258818   2.584   6.735  12.890  0.2208  0.5811  0.3370
12468TIP3    H158819   2.644   6.809  12.899  0.3125  0.3152  2.3096
12468TIP3    H258820   2.567   6.706  12.980 -1.3215 -0.5971 -0.2776
12469TIP3   OH258821   0.242   2.357  14.350 -0.2283  0.1172  0.1360
12469TIP3    H158822   0.322   2.357  14.297  0.5010  0.1235  1.2050
12469TIP3    H258823   0.204   2.444  14.336  2.5440  2.0849  3.3113
12470TIP3   OH258824   3.565   1.068   3.254 -0.0590 -0.2989  0.6520
12470TIP3    H158825   3.556   1.161   3.274 -1.2056 -0.1756 -0.3237
12470TIP3    H258826   3.508   1.054   3.178  1.4942 -1.4263 -0.3678
12471TIP3   OH258827   4.111   2.335   1.807  0.7452  0.6492  0.3187
12471TIP3    H158828   4.035   2.381   1.844  1.4595  1.7538  0.4345
12471TIP3    H258829   4.072   2.262   1.758 -0.3436  0.6100  1.1971
12472TIP3   OH258830   0.377   6.735  17.104  0.3424  0.1983 -0.7221
12472TIP3    H158831   0.351   6.699  17.189  0.5049  0.8854 -0.3703
12472TIP3    H258832   0.321   6.812  17.092 -0.4564 -0.5224 -1.7654
12473TIP3   OH258833   3.301   0.696   2.027  0.0548  0.2915 -0.1089
12473TIP3    H158834   3.388   0.734   2.034  0.3288 -0.4774  1.0431
12473TIP3    H258835   3.290   0.647   2.109 -2.1480  1.7707  0.5740
12474TIP3   OH258836   6.688   1.701  15.525  0.3367 -0.0238 -0.4098
12474TIP3    H158837   6.611   1.735  15.572  0.0915  1.2906 -1.6935
12474TIP3    H258838   6.657   1.622  15.481  0.0838 -0.2316  0.1309
12475TIP3   OH258839   3.324   5.961   5.091 -0.2187  0.7145  0.7561
12475TIP3    H158840   3.264   5.936   5.160  0.6219 -2.2060  0.5834
12475TIP3    H258841   3.404   5.987   5.136  0.8080 -2.5009  1.0359
12476TIP3   OH258842   0.278   2.215   1.557 -0.5360 -0.2256  0.2943
12476TIP3    H158843   0.312   2.175   1.637 -1.3186  1.8789  1.7675
12476TIP3    H258844   0.187   2.186   1.552 -0.0616 -1.6583 -0.7879
12477TIP3   OH258845   6.475   2.726  11.495 -0.5141  0.1131 -0.0504
12477TIP3    H158846   6.390   2.744  11.454  0.2091  2.6554 -0.6437
12477TIP3    H258847   6.514   2.813  11.506  1.7786 -0.9535  0.7336
12478TIP3   OH258848   0.435   2.109  16.037 -0.4031 -0.0749  0.0290
12478TIP3    H158849   0.357   2.077  15.990  0.6714 -1.2794 -1.0183
12478TIP3    H258850   0.457   2.191  15.995 -2.7933  1.9148  2.2955
12479TIP3   OH258851   5.934   3.493   2.401  0.3698 -0.2130  0.1130
12479TIP3    H158852   5.972   3.406   2.391  3.3231  1.0293 -0.3905
12479TIP3    H258853   5.966   3.524   2.486 -0.5441  0.4612  0.2322
12480TIP3   OH258854   1.654   1.150   3.533 -0.0250  0.1590 -0.1733
12480TIP3    H158855   1.684   1.132   3.622 -0.0925 -1.1909 -0.4010
12480TIP3    H258856   1.577   1.206   3.545  0.5455  0.8063  0.5620
12481TIP3   OH258857   0.909   6.105  14.144  0.2673  0.0684  0.4536
12481TIP3    H158858   0.993   6.142  14.116  0.1307  0.4191  0.4948
12481TIP3    H258859   0.932   6.020  14.181  0.8640  0.8807  2.0993
12482TIP3   OH258860   6.136   6.699   0.410 -0.7223 -0.8278 -0.2115
12482TIP3    H158861   6.177   6.765   0.355  0.6623 -0.5437  1.0784
12482TIP3    H258862   6.124   6.623   0.353 -1.1549  0.0964 -1.3776
12483TIP3   OH258863   3.800   0.873  11.058 -0.4581  0.3168  0.2225
12483TIP3    H158864   3.878   0.916  11.022 -1.7326  1.6864 -1.0232
12483TIP3    H258865   3.794   0.906  11.147 -0.3661  1.2825 -0.1146
12484TIP3   OH258866   3.062   3.641   4.379  0.2255 -0.0173 -0.6252
12484TIP3    H158867   3.021   3.554   4.384 -0.0451  0.0590 -1.3477
12484TIP3    H258868   3.038   3.673   4.292  0.9266  0.4840 -0.6391
12485TIP3   OH258869   1.388   6.127  15.367  0.3905 -1.0922  0.1430
12485TIP3    H158870   1.460   6.189  15.358  0.4336 -1.3810 -2.4981
12485TIP3    H258871   1.412   6.070  15.440  2.2731 -0.4762  0.0400
12486TIP3   OH258872   0.669   0.203   0.506 -0.0130 -0.1131 -0.3551
12486TIP3    H158873   0.718   0.277   0.542  0.4444  0.7546 -2.6135
12486TIP3    H258874   0.737   0.147   0.467 -0.5691 -0.4484 -0.8500
12487TIP3   OH258875   5.344   0.767   2.682  0.4212  0.1435  0.5002
12487TIP3    H158876   5.296   0.806   2.756  0.9185  4.1814 -1.0312
12487TIP3    H258877   5.431   0.808   2.687  1.2640 -1.3790 -0.9704
12488TIP3   OH258878   0.064   5.977  15.331 -0.7063 -0.1898  0.0968
12488TIP3    H158879   0.013   5.943  15.405 -0.6599  0.8875  0.6402
12488TIP3    H258880  -0.002   6.011  15.270 -0.7281 -0.8193 -0.2499
12489TIP3   OH258881   4.231   2.081   6.201 -0.5668 -0.6564  0.6772
12489TIP3    H158882   4.234   2.107   6.293  1.2133  2.4690 -0.1193
12489TIP3    H258883   4.321   2.058   6.179 -0.6870 -0.0534 -0.5749
12490TIP3   OH258884   5.669   1.819  12.080 -0.3988  0.2905  0.3013
12490TIP3    H158885   5.576   1.831  12.060  0.0841  0.5731 -2.1864
12490TIP3    H258886   5.675   1.728  12.110 -1.5673  0.5149  1.2960
12491TIP3   OH258887   4.981   1.042   3.817  0.1251  0.1501  0.2588
12491TIP3    H158888   4.940   1.064   3.734  1.7002  1.2959 -0.2802
12491TIP3    H258889   5.075   1.049   3.800  0.4914  0.7650  2.2101
12492TIP3   OH258890   6.445   5.843   4.004 -0.3404  0.0465 -0.9865
12492TIP3    H158891   6.433   5.884   4.089 -1.1070 -2.0123 -0.0437
12492TIP3    H258892   6.540   5.848   3.988 -0.2112  0.5735 -0.0895
12493TIP3   OH258893   2.920   0.295  15.116  0.1568  0.0295 -0.4518
12493TIP3    H158894   2.827   0.293  15.138 -0.0759 -0.5817 -1.4226
12493TIP3    H258895   2.938   0.387  15.097 -0.1063  0.2416  0.2874
12494TIP3   OH258896   3.798   4.722  14.585  0.5938 -0.0502 -0.3868
12494TIP3    H158897   3.767   4.790  14.526 -0.9120  0.3656  0.8173
12494TIP3    H258898   3.822   4.649  14.528 -2.4546 -0.3276 -1.4598
12495TIP3   OH258899   1.080   2.179   0.527  0.0654 -0.1330  0.2673
12495TIP3    H158900   1.049   2.266   0.552 -1.7162 -0.7699  0.4293
12495TIP3    H258901   1.041   2.163   0.441  0.0855 -0.9049  0.3918
12496TIP3   OH258902   2.267   6.484   5.365  0.7771  0.3485 -0.3860
12496TIP3    H158903   2.278   6.451   5.454  1.0273  0.4115 -0.3897
12496TIP3    H258904   2.210   6.420   5.322  1.9482 -0.5582 -0.6488
12497TIP3   OH258905   5.758   3.899  14.271  0.6547 -0.2986  0.0279
12497TIP3    H158906   5.815   3.936  14.204  0.4002 -0.0070 -0.0296
12497TIP3    H258907   5.800   3.817  14.295  0.0470 -1.0552 -1.4242
12498TIP3   OH258908   3.330   0.377  11.409  0.1915 -0.2380  0.3990
12498TIP3    H158909   3.248   0.344  11.372  0.7834 -0.5140 -0.7084
12498TIP3    H258910   3.326   0.352  11.502 -1.0219 -0.1268  0.3972
12499TIP3   OH258911   4.910   0.710  12.656  0.0510  0.0188 -0.3033
12499TIP3    H158912   4.906   0.615  12.673  3.4994 -0.0709  0.7038
12499TIP3    H258913   4.980   0.720  12.592  0.5350  1.9482  0.4578
12500TIP3   OH258914   2.702   1.674  13.508  0.3897 -0.3072  0.2346
12500TIP3    H158915   2.754   1.744  13.548  1.2998 -0.3088 -0.8877
12500TIP3    H258916   2.765   1.606  13.486 -0.2994 -0.9319  0.1327
12501TIP3   OH258917   4.677   4.179  15.938 -0.3582 -0.0273 -0.3043
12501TIP3    H158918   4.772   4.187  15.951  0.2214 -0.8541 -3.2113
12501TIP3    H258919   4.649   4.268  15.916 -0.0989  0.0936 -0.1534
12502TIP3   OH258920   1.233   2.762  11.006 -0.0882 -0.0289  0.0263
12502TIP3    H158921   1.195   2.675  11.019 -0.8851  0.5517  1.8107
12502TIP3    H258922   1.157   2.819  10.992  0.3766  0.5333 -0.2154
12503TIP3   OH258923   1.202   5.546   4.484 -0.2685  0.0385  0.1252
12503TIP3    H158924   1.145   5.608   4.529  0.3019 -1.1746  2.6733
12503TIP3    H258925   1.142   5.486   4.440 -0.8929  0.3956  0.4771
12504TIP3   OH258926   5.248   4.958   1.505  0.0916 -0.4256 -0.4286
12504TIP3    H158927   5.200   5.041   1.504 -1.1517 -1.1225 -1.2334
12504TIP3    H258928   5.273   4.947   1.597 -1.9497 -0.3734  0.1926
12505TIP3   OH258929   6.217   5.344  14.132  0.5200 -0.4295  0.2159
12505TIP3    H158930   6.276   5.419  14.144 -0.2115  0.1452  0.3263
12505TIP3    H258931   6.239   5.284  14.203  0.4365  0.1444  0.7396
12506TIP3   OH258932   2.266   4.437   5.100  0.0330 -0.0594 -0.3912
12506TIP3    H158933   2.216   4.424   5.181  1.2685  1.0158  0.5845
12506TIP3    H258934   2.315   4.518   5.115  0.8780 -0.2536 -1.9272
12507TIP3   OH258935   2.837   1.198  11.920 -0.2490 -0.3821 -0.0609
12507TIP3    H158936   2.848   1.127  11.857  0.0308  0.1994 -0.6803
12507TIP3    H258937   2.835   1.154  12.005 -0.3367 -1.1515 -0.4498
12508TIP3   OH258938   5.853   6.575  15.592  0.3992 -0.7175  0.7384
12508TIP3    H158939   5.936   6.601  15.551  1.3601 -1.3418  2.1837
12508TIP3    H258940   5.842   6.637  15.665 -1.1416  0.2239 -0.2408
12509TIP3   OH258941   6.349   6.377  13.307  0.0018  0.2824  0.3462
12509TIP3    H158942   6.410   6.438  13.349 -0.1376  1.0302 -0.4978
12509TIP3    H258943   6.326   6.419  13.225 -0.4084 -0.7426 -0.0857
12510TIP3   OH258944   2.798   3.914  16.682 -0.2727 -0.2217 -0.0596
12510TIP3    H158945   2.776   3.911  16.775 -0.0214 -1.6840 -0.0371
12510TIP3    H258946   2.713   3.903  16.637 -0.3077 -0.1837 -0.0017
12511TIP3   OH258947   0.779   4.328  17.082 -0.2720  0.0690 -0.2393
12511TIP3    H158948   0.851   4.328  17.146 -0.5273 -1.1723  0.0911
12511TIP3    H258949   0.700   4.319  17.135 -0.5515 -0.0821 -0.6730
12512TIP3   OH258950   1.063   2.437   0.684 -0.4098 -0.1159 -0.3558
12512TIP3    H158951   1.091   2.520   0.722  1.1537 -1.0324  0.6148
12512TIP3    H258952   1.072   2.374   0.756  0.6281 -1.5435 -1.6843
12513TIP3   OH258953   4.504   4.611   2.380  0.0947  0.0138  0.2697
12513TIP3    H158954   4.575   4.616   2.316 -0.0907  0.1164  0.0697
12513TIP3    H258955   4.536   4.551   2.447  1.0909  1.3602  1.0698
12514TIP3   OH258956   1.352   1.245  13.612  0.2452 -0.2427  0.3925
12514TIP3    H158957   1.409   1.172  13.636  1.1510  0.4204  0.3015
12514TIP3    H258958   1.412   1.314  13.584 -0.6755 -0.1459 -1.4715
12515TIP3   OH258959   4.729   2.619  12.912 -0.1678  0.1012 -0.1450
12515TIP3    H158960   4.640   2.645  12.936 -0.3841 -0.1474 -0.6751
12515TIP3    H258961   4.748   2.543  12.967  0.1036  0.7619  0.7038
12516TIP3   OH258962   6.751   6.457  14.440  0.3456  0.3118  0.4897
12516TIP3    H158963   6.822   6.428  14.497  0.2136 -0.7320  0.1377
12516TIP3    H258964   6.672   6.443  14.492  0.2809  0.0349  0.3182
12517TIP3   OH258965   6.213   4.060   2.861 -0.0536  0.0611  0.4729
12517TIP3    H158966   6.225   4.090   2.771 -0.7790 -0.2532  0.2673
12517TIP3    H258967   6.126   4.020   2.862  0.1441 -0.3637  1.1981
12518TIP3   OH258968   2.785   1.361  11.495  0.5460  1.1280  0.1853
12518TIP3    H158969   2.732   1.283  11.504  0.2126  1.3729  0.3502
12518TIP3    H258970   2.875   1.330  11.501  0.4371  0.6555 -0.5022
12519TIP3   OH258971   6.705   6.468  12.631  0.1946  0.0030 -0.2351
12519TIP3    H158972   6.694   6.382  12.671 -2.3985  0.3347 -0.0978
12519TIP3    H258973   6.738   6.523  12.703 -1.4474 -0.1147  0.6540
12520TIP3   OH258974   4.235   5.674  14.833 -0.2150 -0.4878 -0.1174
12520TIP3    H158975   4.260   5.619  14.759 -0.7029  0.6611 -1.1761
12520TIP3    H258976   4.271   5.629  14.910 -0.2545 -2.0464 -0.9714
12521TIP3   OH258977   5.267   2.028  16.861  0.3622  0.1414  0.0278
12521TIP3    H158978   5.302   2.117  16.871 -1.7475  0.8827  1.7123
12521TIP3    H258979   5.174   2.037  16.879  0.1109 -2.4594  0.4429
12522TIP3   OH258980   4.605   2.510  15.444  0.0523 -0.1352 -0.0748
12522TIP3    H158981   4.669   2.581  15.452 -0.8962  0.6397  0.8014
12522TIP3    H258982   4.607   2.487  15.351  0.5015  0.9088 -0.3383
12523TIP3   OH258983   1.997   3.496  12.578 -0.1246 -0.2507  0.8910
12523TIP3    H158984   2.031   3.451  12.655  1.3352 -0.3255  0.2414
12523TIP3    H258985   2.003   3.431  12.508 -1.7139 -0.2842  0.7607
12524TIP3   OH258986   5.396   0.569   3.796  0.2100 -0.0791 -0.4724
12524TIP3    H158987   5.351   0.553   3.713  0.4979 -1.9699 -0.2847
12524TIP3    H258988   5.489   0.567   3.774  0.3989 -3.0702  0.2238
12525TIP3   OH258989   4.739   0.005  12.173  0.5229  0.3298  0.4652
12525TIP3    H158990   4.784  -0.041  12.243 -0.6710  1.2133  1.8708
12525TIP3    H258991   4.690   0.075  12.217  0.6774  1.6846 -1.3692
12526TIP3   OH258992   1.280   3.925   4.098 -0.4060  0.8438 -1.0147
12526TIP3    H158993   1.321   3.860   4.155 -0.9224  2.2061  1.0231
12526TIP3    H258994   1.303   4.009   4.137 -2.2765  1.7654 -1.7817
12527TIP3   OH258995   6.326   0.963   0.911 -0.4474  0.1166  0.5999
12527TIP3    H158996   6.311   0.908   0.987  1.0935 -0.4033  0.5600
12527TIP3    H258997   6.368   1.042   0.945  1.0433 -0.4890  0.2170
12528TIP3   OH258998   3.426   6.412   1.842  0.3408  0.0398 -0.2503
12528TIP3    H158999   3.366   6.424   1.916  0.4036 -1.1627  0.0123
12528TIP3    H259000   3.488   6.485   1.849 -1.0314  1.2957 -0.5007
12529TIP3   OH259001   5.276   1.501   2.113 -0.3102  0.4464 -0.3183
12529TIP3    H159002   5.267   1.592   2.086  0.9771  0.5465 -0.4686
12529TIP3    H259003   5.220   1.493   2.190  0.6685  1.7693  0.5713
12530TIP3   OH259004   6.421   1.689   4.532  0.1620 -0.7817  0.0523
12530TIP3    H159005   6.360   1.665   4.462 -1.2315  1.6029  0.3106
12530TIP3    H259006   6.464   1.768   4.499  1.6784 -1.2896  0.7190
12531TIP3   OH259007   2.034   0.344  11.698  0.0336 -1.1710 -0.4426
12531TIP3    H159008   2.020   0.307  11.611 -1.7976  2.1966 -1.8055
12531TIP3    H259009   1.952   0.328  11.745  0.0886 -0.9071 -0.2488
12532TIP3   OH259010   1.410   2.888  14.771 -0.7595  0.1075  0.5631
12532TIP3    H159011   1.382   2.946  14.700  0.2397  0.9251  0.7964
12532TIP3    H259012   1.361   2.919  14.847 -0.9100  0.0446  0.4920
12533TIP3   OH259013   2.838   1.906   0.664  0.2389  0.7306 -0.0692
12533TIP3    H159014   2.874   1.986   0.700 -0.1788  0.3709  1.1936
12533TIP3    H259015   2.827   1.924   0.570  5.2524  0.3061 -1.0102
12534TIP3   OH259016   0.075   2.982  14.370 -0.0706  0.4186  0.6509
12534TIP3    H159017   0.040   3.006  14.284  2.2360 -2.0942 -1.1522
12534TIP3    H259018   0.108   3.064  14.407 -0.0456  1.3833 -1.3912
12535TIP3   OH259019   1.882   4.625   5.312 -0.2730 -0.6526  0.5362
12535TIP3    H159020   1.882   4.715   5.278  1.2159 -1.1017 -0.7442
12535TIP3    H259021   1.799   4.617   5.359 -1.2079  0.8442 -0.7794
12536TIP3   OH259022   0.347   5.546  15.905 -0.2666 -0.9880 -0.3320
12536TIP3    H159023   0.400   5.586  15.836  0.2938  0.2995  0.7957
12536TIP3    H259024   0.409   5.529  15.976 -1.3180  0.5809  1.0406
12537TIP3   OH259025   2.247   4.001  16.557  0.0648  0.1140  0.3032
12537TIP3    H159026   2.203   4.085  16.547 -0.9814 -0.6702 -3.5002
12537TIP3    H259027   2.176   3.940  16.578  0.3222 -0.2315  0.1706
12538TIP3   OH259028   3.343   4.638  14.411 -0.2934  0.3239 -0.6544
12538TIP3    H159029   3.325   4.661  14.502 -0.9768 -1.5537 -0.2721
12538TIP3    H259030   3.438   4.644  14.403 -0.2945  1.2591 -0.0391
12539TIP3   OH259031   6.346   5.766  11.294 -0.0034  0.3703 -0.4044
12539TIP3    H159032   6.369   5.729  11.379 -1.2432  0.5716  0.0371
12539TIP3    H259033   6.419   5.741  11.237  0.2420 -0.8502  0.3987
12540TIP3   OH259034   0.473   0.584  11.769  0.0003  0.2656  0.2076
12540TIP3    H159035   0.548   0.549  11.817 -1.1931 -2.0299  0.5583
12540TIP3    H259036   0.475   0.537  11.685  0.4992  2.2409 -0.9541
12541TIP3   OH259037   4.968   2.042   1.078 -0.6144  0.3311  0.2760
12541TIP3    H159038   4.965   2.132   1.110 -2.4419  0.8214 -1.0816
12541TIP3    H259039   4.999   2.049   0.988  0.2570 -0.5311  0.4890
12542TIP3   OH259040   1.993   5.047  14.330  0.5859 -0.5777  0.2252
12542TIP3    H159041   1.903   5.035  14.360  1.1751 -1.3331  1.8455
12542TIP3    H259042   1.985   5.080  14.241 -1.3401  1.8478  1.1548
12543TIP3   OH259043   0.624   4.084  16.683  0.2197 -0.3218 -0.5936
12543TIP3    H159044   0.535   4.086  16.719  0.3311 -0.9504 -0.2733
12543TIP3    H259045   0.652   3.993  16.693  1.5431  0.2097  0.9399
12544TIP3   OH259046   2.829   6.617   5.627 -0.1770 -0.3677  0.1056
12544TIP3    H159047   2.772   6.571   5.565  0.3881 -0.7947 -0.1020
12544TIP3    H259048   2.858   6.549   5.688  0.8687 -0.3525 -0.3533
12545TIP3   OH259049   1.004   2.709   5.807 -0.0463 -0.5913 -0.7860
12545TIP3    H159050   0.985   2.803   5.806  3.2824  0.3399  2.2611
12545TIP3    H259051   0.948   2.674   5.876  0.1571 -0.3896 -0.5125
12546TIP3   OH259052   1.679   2.357   5.184 -0.3785  0.0015 -0.4191
12546TIP3    H159053   1.650   2.383   5.096 -0.2385  2.7867  0.2734
12546TIP3    H259054   1.602   2.368   5.239  0.3373  1.5417  0.3403
12547TIP3   OH259055   2.231   3.315   2.551  0.5204 -0.0072 -0.4109
12547TIP3    H159056   2.202   3.303   2.642  1.8168  0.3437  0.0677
12547TIP3    H259057   2.155   3.353   2.507  0.0134  0.2567  0.6449
12548TIP3   OH259058   5.713   0.998   0.991  0.9640  0.5618  0.2425
12548TIP3    H159059   5.667   1.045   0.921  1.2659  2.0493  1.0020
12548TIP3    H259060   5.671   1.028   1.072  2.2215  0.7656  0.8467
12549TIP3   OH259061   4.335   0.961  11.951  0.6521  0.1891  0.2547
12549TIP3    H159062   4.373   0.889  12.002 -0.5011  0.3131  1.3488
12549TIP3    H259063   4.266   0.997  12.008  0.6204  1.5979 -0.6281
12550TIP3   OH259064   0.503   4.511  16.646  0.5085 -0.5592  0.3366
12550TIP3    H159065   0.573   4.537  16.706  1.0206  0.3913 -0.6455
12550TIP3    H259066   0.549   4.465  16.575  0.1178 -0.1777 -0.1713
12551TIP3   OH259067   5.634   3.273   0.927  0.2036  0.1150  0.0730
12551TIP3    H159068   5.643   3.360   0.887  1.5807  0.6936  1.5230
12551TIP3    H259069   5.724   3.243   0.937 -0.2632 -2.4175 -2.2328
12552TIP3   OH259070   0.816   4.211  12.336 -0.1992  0.0888  0.2799
12552TIP3    H159071   0.753   4.206  12.407 -0.6633 -1.7310 -0.2116
12552TIP3    H259072   0.850   4.122  12.327  1.0442  0.6233 -0.7262
12553TIP3   OH259073   4.315   4.184   5.847 -0.4057 -1.4212 -0.0458
12553TIP3    H159074   4.364   4.241   5.907  0.1425 -1.1604 -0.7340
12553TIP3    H259075   4.245   4.147   5.901 -1.3158  0.5786  0.2149
12554TIP3   OH259076   5.925   5.157  14.851  0.0910  0.6836 -0.0685
12554TIP3    H159077   6.014   5.158  14.887 -0.0035  0.9951  0.1651
12554TIP3    H259078   5.926   5.088  14.785  0.1310 -0.2285  0.8611
12555TIP3   OH259079   4.462   0.834  12.184  0.6246  0.3784  0.2314
12555TIP3    H159080   4.415   0.908  12.223 -0.0912  0.8403 -1.4287
12555TIP3    H259081   4.395   0.766  12.175  0.1643  1.0592 -2.1939
12556TIP3   OH259082   6.282   1.878  17.333 -0.0328 -0.2261 -0.3642
12556TIP3    H159083   6.212   1.923  17.380 -0.4659 -0.1071 -1.1062
12556TIP3    H259084   6.250   1.788  17.323  0.5613 -0.5528  0.5708
12557TIP3   OH259085   4.416   2.406  12.471  0.0464 -0.3089  0.0625
12557TIP3    H159086   4.504   2.370  12.463  0.1268  0.2401 -2.3647
12557TIP3    H259087   4.430   2.500  12.484 -0.1536 -0.1654 -0.7012
12558TIP3   OH259088   1.505   0.096  17.246  0.4946  0.3120 -0.4228
12558TIP3    H159089   1.497   0.014  17.295  1.6602  0.2827 -0.2540
12558TIP3    H259090   1.594   0.126  17.264  0.1866  1.4653 -0.7311
12559TIP3   OH259091   5.446   0.121  10.977  0.3892  0.5938  0.1505
12559TIP3    H159092   5.489   0.038  10.957 -0.0705  0.2175  0.7032
12559TIP3    H259093   5.365   0.096  11.022  0.7118  1.3513  1.1965
12560TIP3   OH259094   5.138   1.379  17.239  0.1815 -0.4233 -0.0256
12560TIP3    H159095   5.227   1.374  17.274  0.4594  1.0770 -0.4442
12560TIP3    H259096   5.141   1.451  17.176 -1.3737 -0.2183  0.0924
12561TIP3   OH259097   4.087   4.903  13.601  0.0896  0.4779 -0.3188
12561TIP3    H159098   4.117   4.833  13.659  3.4627  1.8835 -0.1223
12561TIP3    H259099   4.027   4.955  13.655  0.0268 -0.4889  0.5737
12562TIP3   OH259100   1.773   1.740   3.021 -0.4171 -0.4730  0.1431
12562TIP3    H159101   1.811   1.686   3.091 -2.3181  0.3621  1.9483
12562TIP3    H259102   1.784   1.830   3.052 -1.9547 -0.1193 -0.2425
12563TIP3   OH259103   5.582   2.502   3.112 -0.8697 -0.8934 -0.3080
12563TIP3    H159104   5.609   2.415   3.083  1.5302  0.2470 -1.8542
12563TIP3    H259105   5.623   2.513   3.198  3.5522  0.4838 -2.2551
12564TIP3   OH259106   3.447   2.429  15.983  0.0325 -0.5435 -0.4103
12564TIP3    H159107   3.539   2.446  15.961  0.0457 -0.6910 -0.4723
12564TIP3    H259108   3.418   2.368  15.915  0.5428 -2.3144  0.8820
12565TIP3   OH259109   3.236   0.598   2.279  0.3037 -0.5007  0.3721
12565TIP3    H159110   3.304   0.563   2.337  0.3011 -0.7987  0.1993
12565TIP3    H259111   3.216   0.684   2.315  0.7558 -0.4198  0.4416
12566TIP3   OH259112   2.374   0.277  12.037 -0.0150 -0.1897 -0.5355
12566TIP3    H159113   2.353   0.366  12.066 -2.3320 -0.9134  0.2124
12566TIP3    H259114   2.289   0.238  12.016  0.5012 -3.3108  2.3781
12567TIP3   OH259115   1.652   3.425  16.344 -0.4743 -0.0705  0.5995
12567TIP3    H159116   1.735   3.448  16.302 -1.3088 -0.7642 -1.5773
12567TIP3    H259117   1.588   3.483  16.303 -1.3699 -0.9322  0.7452
12568TIP3   OH259118   0.907   3.090  12.769 -0.3468 -0.0272  1.1675
12568TIP3    H159119   0.961   3.030  12.821  0.4725  0.4248  0.8585
12568TIP3    H259120   0.842   3.124  12.831 -0.4807 -0.8191  1.4693
12569TIP3   OH259121   6.199   2.069   6.130 -0.9027 -0.9173 -0.5318
12569TIP3    H159122   6.154   2.098   6.209 -0.1668 -1.2235  0.0080
12569TIP3    H259123   6.155   2.116   6.059  0.7990  2.3590  0.3477
12570TIP3   OH259124   1.385   1.906   4.038  0.0068 -0.3167  0.5703
12570TIP3    H159125   1.307   1.873   3.993  0.6392 -1.6561  0.3981
12570TIP3    H259126   1.422   1.828   4.081 -0.4806  0.8351  3.3064
12571TIP3   OH259127   5.925   2.480   3.661 -0.0097  0.4309  0.3002
12571TIP3    H159128   5.835   2.447   3.670  0.4922 -0.8411  1.0184
12571TIP3    H259129   5.915   2.572   3.637 -1.4996  0.0782 -0.5548
12572TIP3   OH259130   6.136   0.261  12.104  0.0283 -0.1075  0.1979
12572TIP3    H159131   6.079   0.303  12.169  0.9081  2.2859 -0.4924
12572TIP3    H259132   6.222   0.258  12.146  0.4463  0.8058 -0.5733
12573TIP3   OH259133   0.055   0.718   6.239 -0.1357 -0.1377 -0.1756
12573TIP3    H159134   0.129   0.657   6.236 -0.7886 -0.9959  0.7764
12573TIP3    H259135   0.032   0.724   6.331 -2.4552 -1.3576 -0.6190
12574TIP3   OH259136   4.654   6.055   0.559  0.2751  0.1920  0.1667
12574TIP3    H159137   4.623   6.038   0.470 -1.1935  0.9437  0.4993
12574TIP3    H259138   4.738   6.008   0.565 -0.0923 -0.7114 -1.2664
12575TIP3   OH259139   0.827   1.186   4.709  1.1073 -0.2352 -0.0328
12575TIP3    H159140   0.732   1.187   4.695  1.2162  2.2681 -1.0365
12575TIP3    H259141   0.837   1.148   4.797 -0.9619  1.0588  0.8410
12576TIP3   OH259142   5.552   2.178   6.718  0.1212  0.6596 -0.1112
12576TIP3    H159143   5.573   2.089   6.690  0.0919 -0.4363  2.9264
12576TIP3    H259144   5.636   2.217   6.741  0.0662  1.2139 -0.8134
12577TIP3   OH259145   3.027   6.348   2.224 -0.5081 -0.4336 -0.3273
12577TIP3    H159146   3.017   6.310   2.311  0.2091  1.7966  0.7837
12577TIP3    H259147   3.120   6.370   2.218 -0.7159  0.2247 -1.3089
12578TIP3   OH259148   4.072   0.805  15.662 -0.0035  0.5062  0.4962
12578TIP3    H159149   3.995   0.755  15.689  0.2825 -0.0136  0.3715
12578TIP3    H259150   4.055   0.829  15.571  0.8259 -1.3349 -0.1999
12579TIP3   OH259151   1.453   1.827   3.758  0.0024 -0.2023  0.4731
12579TIP3    H159152   1.475   1.794   3.671 -0.5142  0.2833  0.1541
12579TIP3    H259153   1.496   1.766   3.818  3.2604  1.3018 -0.0924
12580TIP3   OH259154   1.092   0.675   5.940  0.8516 -0.3053  0.3790
12580TIP3    H159155   1.065   0.596   5.985 -1.7226  0.2176 -0.0761
12580TIP3    H259156   1.145   0.723   6.003  2.8735 -2.5481  0.4924
12581TIP3   OH259157   0.271   6.461  14.330 -0.5749  0.0739 -0.3627
12581TIP3    H159158   0.189   6.413  14.336 -0.0213 -0.7499  2.1985
12581TIP3    H259159   0.265   6.527  14.400  1.6237 -1.2759  1.2347
12582TIP3   OH259160   0.611   4.011  14.615  0.2325 -0.1437  0.1846
12582TIP3    H159161   0.611   3.966  14.699 -1.8100 -0.3817  0.1075
12582TIP3    H259162   0.582   3.944  14.552 -1.8393  0.9042 -0.0917
12583TIP3   OH259163   2.796   5.070  16.968 -0.2083 -0.2931 -0.0331
12583TIP3    H159164   2.838   4.985  16.982  1.9096  0.2789 -2.1723
12583TIP3    H259165   2.827   5.098  16.882 -1.0028  2.5515  0.5078
12584TIP3   OH259166   6.655   4.761  12.947  0.6255  0.0926  0.1168
12584TIP3    H159167   6.689   4.680  12.984 -0.9546  0.1586  1.8631
12584TIP3    H259168   6.574   4.736  12.904  0.3081  0.6899  0.3575
12585TIP3   OH259169   2.258   3.997   3.491  0.1804  0.0364 -0.3984
12585TIP3    H159170   2.250   3.961   3.402 -1.0412 -2.0824  0.5074
12585TIP3    H259171   2.349   3.982   3.515  0.0276 -1.2473 -0.5601
12586TIP3   OH259172   3.990   3.487   4.406 -0.3625 -0.1732 -0.3137
12586TIP3    H159173   4.003   3.523   4.318  0.5791  0.3923  0.0367
12586TIP3    H259174   4.064   3.427   4.419 -0.0786  0.3042  0.3578
12587TIP3   OH259175   0.071   5.900   1.906 -0.0240  0.0845  0.4362
12587TIP3    H159176   0.014   5.976   1.907 -0.5951 -0.2912 -1.0207
12587TIP3    H259177   0.103   5.893   1.996 -1.5784  0.8212  1.0879
12588TIP3   OH259178   4.675   4.350  10.435 -0.4481  0.7683 -0.3430
12588TIP3    H159179   4.698   4.317  10.522  1.5212 -1.8226 -1.7072
12588TIP3    H259180   4.581   4.365  10.439 -0.3192  1.3217  2.3913
12589TIP3   OH259181   2.973   4.459  17.401  0.3117 -0.4486 -0.1055
12589TIP3    H159182   2.891   4.470  17.451  1.2918  2.3275  1.0766
12589TIP3    H259183   3.029   4.531  17.431  2.6383 -1.3395 -2.0304
12590TIP3   OH259184   4.460   6.687  16.996  0.0918  0.2814 -0.4307
12590TIP3    H159185   4.472   6.771  17.039 -1.2456  0.7311 -0.8901
12590TIP3    H259186   4.369   6.664  17.013  0.2969 -0.8407 -0.7385
12591TIP3   OH259187   4.833   3.195  14.404  0.0173 -0.7905  0.5744
12591TIP3    H159188   4.738   3.192  14.419 -0.1229 -0.8681 -0.2713
12591TIP3    H259189   4.846   3.145  14.324  0.6584  0.0282  0.1533
12592TIP3   OH259190   1.839   3.862   1.284 -0.2840  0.3481 -0.0067
12592TIP3    H159191   1.776   3.847   1.354 -1.2292  0.3999 -0.8340
12592TIP3    H259192   1.786   3.888   1.208  0.8267  1.8023 -0.3274
12593TIP3   OH259193   3.280   3.997  12.920  0.4446  0.0912  0.2979
12593TIP3    H159194   3.315   4.005  13.008 -0.4203 -0.9400  0.7558
12593TIP3    H259195   3.348   3.952  12.870  0.7354  0.2381  0.5633
12594TIP3   OH259196   3.017   5.743  14.260 -0.3047  0.1722  0.3981
12594TIP3    H159197   2.932   5.788  14.261  0.1302  1.0269  0.2027
12594TIP3    H259198   3.058   5.768  14.343  0.8379  1.9594 -0.6389
12595TIP3   OH259199   1.342   2.391  11.775 -0.1072 -0.0357  0.0168
12595TIP3    H159200   1.251   2.421  11.766  0.7124  2.5230 -0.4733
12595TIP3    H259201   1.375   2.436  11.852  1.4341  1.0605 -1.2141
12596TIP3   OH259202   3.220   1.168   0.892 -0.0037 -0.3053 -0.1009
12596TIP3    H159203   3.169   1.127   0.962  1.1407 -1.4746  0.0757
12596TIP3    H259204   3.195   1.261   0.896 -1.3599 -0.6775  0.6058
12597TIP3   OH259205   1.508   3.556   4.549 -0.1930  0.4574  0.3901
12597TIP3    H159206   1.435   3.608   4.584 -0.0970  1.7185 -1.2097
12597TIP3    H259207   1.580   3.617   4.542  0.3674 -0.2566 -0.1566
12598TIP3   OH259208   3.348   4.343  12.203 -0.0872  0.2195 -0.0870
12598TIP3    H159209   3.422   4.350  12.263 -0.1279 -1.2058  0.1577
12598TIP3    H259210   3.271   4.350  12.259 -0.1299 -1.8127  0.1651
12599TIP3   OH259211   4.920   1.571   4.537  0.0215 -0.3405  0.1614
12599TIP3    H159212   5.005   1.615   4.541  0.0469 -0.2468 -0.9799
12599TIP3    H259213   4.862   1.635   4.496 -1.0050  0.1589  2.2262
12600TIP3   OH259214   3.250   2.895   5.506  0.0999 -0.5157  0.2901
12600TIP3    H159215   3.250   2.800   5.496  1.6325 -0.3451 -1.9742
12600TIP3    H259216   3.343   2.919   5.513 -0.2550  0.8248  0.9209
12601TIP3   OH259217   0.006   4.635  15.971 -0.3986  0.4807  0.1261
12601TIP3    H159218  -0.057   4.603  15.906  0.0227 -1.1188  0.4521
12601TIP3    H259219  -0.026   4.600  16.054 -0.6237  2.0381  0.7288
12602TIP3   OH259220   5.567   1.663  14.316 -0.0319 -0.6801 -0.0560
12602TIP3    H159221   5.522   1.661  14.401  1.8113  2.3557  1.1760
12602TIP3    H259222   5.625   1.587  14.318  0.7972 -0.0464  1.9452
12603TIP3   OH259223   2.872   4.446   4.415  0.2544 -0.5730 -0.6919
12603TIP3    H159224   2.801   4.381   4.417 -0.1027 -0.1715 -0.0843
12603TIP3    H259225   2.840   4.519   4.468  1.2217 -0.4941 -0.1877
12604TIP3   OH259226   4.294   2.646  14.021  0.1842  0.4109 -0.3895
12604TIP3    H159227   4.313   2.610  13.934 -1.6006 -1.8035  0.0648
12604TIP3    H259228   4.381   2.655  14.061  0.9431  0.0997 -1.8506
12605TIP3   OH259229   4.905   4.224  15.483 -0.0381 -0.2970  0.4066
12605TIP3    H159230   4.980   4.180  15.523  1.5817 -0.1654 -2.3016
12605TIP3    H259231   4.830   4.168  15.506  1.2005 -1.7133  1.2047
12606TIP3   OH259232   6.720   1.829  15.999 -0.1531  0.5327  0.5553
12606TIP3    H159233   6.719   1.751  15.943 -0.0360  1.3170 -0.5610
12606TIP3    H259234   6.694   1.901  15.941 -0.7156  1.2675  1.6758
12607TIP3   OH259235   3.521   5.227   1.334 -0.1546  0.0301 -0.0133
12607TIP3    H159236   3.492   5.142   1.301 -0.4113 -0.2644  0.9344
12607TIP3    H259237   3.473   5.238   1.416  2.3652 -0.4818  1.6280
12608TIP3   OH259238   0.602   6.615  11.867 -0.6330  0.1634 -0.0923
12608TIP3    H159239   0.552   6.551  11.918 -0.5782 -0.2442 -0.5500
12608TIP3    H259240   0.586   6.591  11.776 -0.4557  0.6864 -0.2616
12609TIP3   OH259241   3.684   1.525  12.700  0.0868  0.2013 -0.0753
12609TIP3    H159242   3.683   1.563  12.788  1.1212 -1.5684  0.7695
12609TIP3    H259243   3.662   1.433  12.714 -2.4129  0.4002 -2.0433
12610TIP3   OH259244   3.259   1.222   1.986 -0.7436  0.1690  0.2117
12610TIP3    H159245   3.326   1.206   2.052  0.6502  0.0318 -1.1719
12610TIP3    H259246   3.251   1.139   1.939 -0.7502  0.6266 -0.6138
12611TIP3   OH259247   0.625   0.609  13.265 -0.6562  0.3170  0.2892
12611TIP3    H159248   0.554   0.557  13.303  0.0601  1.2623  3.1542
12611TIP3    H259249   0.582   0.690  13.237 -0.9969  0.1556  0.3310
12612TIP3   OH259250   1.834   6.376  15.595  0.4157 -0.3072  0.4162
12612TIP3    H159251   1.780   6.398  15.671  0.8765  2.9230 -0.0646
12612TIP3    H259252   1.912   6.431  15.605  0.3220  0.5087 -2.5651
12613TIP3   OH259253   1.609   1.852   1.544  0.0015  0.3374 -0.7338
12613TIP3    H159254   1.588   1.905   1.466  0.5931  1.8102  0.0740
12613TIP3    H259255   1.572   1.902   1.617 -3.9663 -2.8385 -0.2512
12614TIP3   OH259256   3.934   5.780  13.681  0.1546  0.0233 -0.0240
12614TIP3    H159257   3.997   5.816  13.618 -0.5028  1.8616  0.3260
12614TIP3    H259258   3.850   5.819  13.657 -0.1780  0.4859  1.7469
12615TIP3   OH259259   5.433   4.315   3.064  0.3007  0.4512  0.1979
12615TIP3    H159260   5.445   4.220   3.058  0.6316  0.5284 -0.4556
12615TIP3    H259261   5.372   4.326   3.137  1.4405 -0.1576  1.2810
12616TIP3   OH259262   0.913   4.398  15.824 -0.2234  0.1871  0.4463
12616TIP3    H159263   0.931   4.444  15.742  0.4202  1.4127  1.2327
12616TIP3    H259264   0.823   4.366  15.814 -1.3515  3.0159  0.4230
12617TIP3   OH259265   4.089   6.057   2.111 -0.0326 -0.4226 -0.0574
12617TIP3    H159266   4.135   6.125   2.061 -0.0528 -0.2572  0.1459
12617TIP3    H259267   4.157   5.993   2.132 -0.0427 -0.5399 -0.3759
12618TIP3   OH259268   0.728   4.744  14.626  0.0506  0.3673  0.0733
12618TIP3    H159269   0.689   4.773  14.544 -0.3332  1.2190  0.5389
12618TIP3    H259270   0.721   4.820  14.684  0.5726 -0.1255  0.8034
12619TIP3   OH259271   5.590   1.405   7.022 -0.4717 -0.0329 -0.9429
12619TIP3    H159272   5.530   1.454   6.964  0.6524  0.3035 -1.8667
12619TIP3    H259273   5.672   1.401   6.973  0.2566 -0.5277  0.2766
12620TIP3   OH259274   4.775   0.240   3.558 -0.4826  0.6023  0.1271
12620TIP3    H159275   4.705   0.290   3.600 -1.1015  0.2617 -0.4697
12620TIP3    H259276   4.763   0.257   3.464  1.5741  2.2807  0.0978
12621TIP3   OH259277   1.293   2.828   3.421 -0.1286 -0.4143  0.5062
12621TIP3    H159278   1.200   2.825   3.395  0.2023 -2.6479 -0.6254
12621TIP3    H259279   1.328   2.743   3.394  2.0089 -0.0369  1.9136
12622TIP3   OH259280   6.624   2.790   4.460 -0.0217  0.0925  0.4969
12622TIP3    H159281   6.611   2.868   4.406  0.4998 -1.6247 -2.3469
12622TIP3    H259282   6.719   2.784   4.471  0.1439 -1.2970 -1.2965
12623TIP3   OH259283   1.627   1.353  12.753  0.3668  0.0862  0.1462
12623TIP3    H159284   1.637   1.275  12.808 -2.6217  0.3002  1.1367
12623TIP3    H259285   1.616   1.319  12.664 -1.8465 -0.7902  0.6869
12624TIP3   OH259286   2.573   2.958   2.735 -0.2537 -0.1173 -0.4895
12624TIP3    H159287   2.550   2.866   2.724  0.2926 -0.2455 -0.5632
12624TIP3    H259288   2.489   3.002   2.749 -0.3823 -0.8756  1.3278
12625TIP3   OH259289   6.182   4.185  16.119 -0.3948  0.3112  0.2524
12625TIP3    H159290   6.265   4.209  16.076 -1.6175 -0.8868 -3.1439
12625TIP3    H259291   6.147   4.267  16.152  1.3386  1.1090  0.2194
12626TIP3   OH259292   3.523   6.037   1.918 -0.1606  0.0229 -0.5863
12626TIP3    H159293   3.517   6.072   1.829  0.7013 -0.4524 -0.8463
12626TIP3    H259294   3.616   6.014   1.928 -0.6541 -2.2085 -0.4653
12627TIP3   OH259295   2.001   6.494  14.994 -0.3680 -0.1472  0.3561
12627TIP3    H159296   1.942   6.527  15.062  0.2637 -0.3888  1.0378
12627TIP3    H259297   2.047   6.421  15.036  0.9920  0.5335  0.1040
12628TIP3   OH259298   0.630   3.622   5.646 -0.6323  0.0233 -0.0480
12628TIP3    H159299   0.643   3.608   5.740  1.5458 -0.4111 -0.3556
12628TIP3    H259300   0.551   3.572   5.625 -0.9245 -0.2006  1.4696
12629TIP3   OH259301   2.333   0.080  14.838 -0.2616  0.2852  0.0247
12629TIP3    H159302   2.380   0.119  14.912 -0.2904  0.1109  0.1327
12629TIP3    H259303   2.257   0.037  14.877  0.9845 -1.8938  0.1714
12630TIP3   OH259304   4.193   4.519  11.692  0.1175 -0.1823  0.9055
12630TIP3    H159305   4.232   4.589  11.744  0.7960 -0.3715  0.6609
12630TIP3    H259306   4.250   4.444  11.707 -1.5746 -1.2158  2.5820
12631TIP3   OH259307   3.516   0.748  11.843 -0.5299 -0.0949  0.4999
12631TIP3    H159308   3.495   0.660  11.811  1.3022 -1.0501  1.7108
12631TIP3    H259309   3.560   0.732  11.927  2.2342  1.7981 -0.4681
12632TIP3   OH259310   4.637   1.591  14.130  0.1452  0.3927  0.0513
12632TIP3    H159311   4.660   1.506  14.169  1.6247  1.5095  1.7728
12632TIP3    H259312   4.707   1.607  14.067  0.6429  0.9499  0.7372
12633TIP3   OH259313   6.279   3.546  13.306 -0.2300  0.5155  0.1221
12633TIP3    H159314   6.271   3.592  13.390 -3.1634 -0.3617  0.4517
12633TIP3    H259315   6.279   3.616  13.240 -0.4553  1.1181  0.7486
12634TIP3   OH259316   3.187   5.616   1.168  0.5592 -0.0572  0.3102
12634TIP3    H159317   3.256   5.562   1.130  0.3655  0.5369 -0.9220
12634TIP3    H259318   3.234   5.684   1.217  0.8921  0.6383 -0.9239
12635TIP3   OH259319   0.609   1.502  12.453 -0.3507  0.6101 -0.7154
12635TIP3    H159320   0.645   1.425  12.408 -0.8535  1.3467 -2.4515
12635TIP3    H259321   0.591   1.564  12.383 -2.8044  1.1802  0.3405
12636TIP3   OH259322   0.648   2.049   3.730  0.3315 -0.0047  1.2518
12636TIP3    H159323   0.668   2.122   3.671  2.6706 -0.4084  1.4573
12636TIP3    H259324   0.626   2.092   3.813  3.4992  0.6044  1.9363
12637TIP3   OH259325   2.726   0.661   0.157  0.3274  0.2242  0.7224
12637TIP3    H159326   2.807   0.662   0.105  0.4922 -0.3757  0.9611
12637TIP3    H259327   2.711   0.753   0.180  1.1868  0.2875  1.0555
12638TIP3   OH259328   0.676   0.360   5.770 -0.5391  0.2358  0.3570
12638TIP3    H159329   0.587   0.330   5.787 -0.6964  0.2753 -0.3585
12638TIP3    H259330   0.665   0.449   5.736 -0.3462 -0.2754 -1.1150
12639TIP3   OH259331   2.668   6.220  14.780 -0.1995 -0.2073  0.1354
12639TIP3    H159332   2.626   6.239  14.864  2.4175  0.0780  1.4916
12639TIP3    H259333   2.650   6.128  14.764 -1.4320 -0.0596  0.5676
12640TIP3   OH259334   4.627   3.146   1.988  0.1061 -0.2146 -0.1673
12640TIP3    H159335   4.602   3.139   1.896 -0.3971 -1.9030  0.0529
12640TIP3    H259336   4.544   3.150   2.035  0.3670  1.3387  0.1896
12641TIP3   OH259337   4.093   5.695  16.107 -0.1226  0.3396  0.0588
12641TIP3    H159338   4.082   5.740  16.191 -0.7395 -0.6821  0.5419
12641TIP3    H259339   4.188   5.696  16.092 -0.1571  2.2931 -0.2399
12642TIP3   OH259340   6.616   0.489   1.587  0.4013  0.4169  0.2235
12642TIP3    H159341   6.672   0.529   1.653  2.5943 -0.6461 -0.8925
12642TIP3    H259342   6.638   0.534   1.505 -2.1091  1.5589  0.0957
12643TIP3   OH259343   4.221   5.728  16.657  0.5515 -0.1365 -0.7171
12643TIP3    H159344   4.182   5.680  16.584 -0.3567 -0.3365 -0.1194
12643TIP3    H259345   4.218   5.666  16.730 -0.7832  0.8560  0.1059
12644TIP3   OH259346   6.645   1.073  12.518 -0.3249  0.4114  0.3695
12644TIP3    H159347   6.712   1.011  12.489 -0.6616  0.0673  0.3076
12644TIP3    H259348   6.572   1.058  12.458 -0.2555  1.1724  0.0847
12645TIP3   OH259349   4.235   0.834  12.642 -0.3766 -0.4839  0.7207
12645TIP3    H159350   4.218   0.924  12.670  4.0884  0.5702  0.8212
12645TIP3    H259351   4.229   0.836  12.547  1.4822  0.4976  0.5840
12646TIP3   OH259352   0.845   1.388  11.202  0.7040 -0.0673 -0.3986
12646TIP3    H159353   0.936   1.415  11.200  0.5880  0.4480  0.8132
12646TIP3    H259354   0.848   1.293  11.185  1.4435 -0.0417 -0.4493
12647TIP3   OH259355   4.913   4.289  17.291 -0.0203 -0.0533  0.2074
12647TIP3    H159356   4.820   4.278  17.308 -0.5191  0.1935 -1.9978
12647TIP3    H259357   4.940   4.207  17.249  1.2056 -0.8183  2.3744
12648TIP3   OH259358   1.855   6.624   2.323  0.0102  0.3854  0.2451
12648TIP3    H159359   1.830   6.548   2.376  2.1630  0.1482  1.0209
12648TIP3    H259360   1.810   6.698   2.364 -1.8407 -0.3642 -0.3109
12649TIP3   OH259361   4.204   3.641  11.401 -0.0980 -0.0093 -0.5484
12649TIP3    H159362   4.209   3.670  11.492 -1.4358  1.4056 -0.8769
12649TIP3    H259363   4.118   3.672  11.371  0.4970 -0.0619 -2.4268
12650TIP3   OH259364   3.701   6.579  16.605  0.1346 -0.1531  0.1497
12650TIP3    H159365   3.673   6.662  16.642  2.1911  1.1649 -1.0473
12650TIP3    H259366   3.638   6.559  16.537 -1.3209 -0.4812  1.5419
12651TIP3   OH259367   6.548   1.778  16.986 -0.1469 -0.0178  0.5064
12651TIP3    H159368   6.641   1.771  16.967 -0.2152  0.1074  0.1242
12651TIP3    H259369   6.521   1.861  16.945 -0.1862  0.5151  1.5702
12652TIP3   OH259370   0.712   5.715   0.651 -0.4918  0.2394 -0.4023
12652TIP3    H159371   0.679   5.739   0.737  0.5956 -0.4480  0.2308
12652TIP3    H259372   0.634   5.698   0.599 -1.2381 -3.3741  1.6009
12653TIP3   OH259373   0.436   0.534  16.291 -0.1130  0.0102  0.1073
12653TIP3    H159374   0.507   0.579  16.245 -1.9373  1.1202 -1.7537
12653TIP3    H259375   0.410   0.595  16.360  0.8728 -0.5068  0.9555
12654TIP3   OH259376   2.620   2.743   5.614  0.2196  0.0697  0.2415
12654TIP3    H159377   2.686   2.805   5.645 -0.3928  0.8493 -0.0012
12654TIP3    H259378   2.648   2.659   5.651  3.2260 -0.3361 -2.4783
12655TIP3   OH259379   2.415   2.869   0.887 -0.5077  0.2908  0.0079
12655TIP3    H159380   2.355   2.942   0.873 -0.2443  0.3002 -1.2202
12655TIP3    H259381   2.366   2.807   0.940 -1.7907  0.1139 -1.3118
12656TIP3   OH259382   2.805   0.483   3.898  0.1270 -0.0145  0.1222
12656TIP3    H159383   2.826   0.569   3.935  0.4363  0.1008 -0.3121
12656TIP3    H259384   2.778   0.502   3.808 -2.4855 -0.0884  0.8156
12657TIP3   OH259385   5.546   6.181   2.040 -0.2117  0.1538 -0.6931
12657TIP3    H159386   5.582   6.268   2.024 -0.2271 -0.0106 -1.7040
12657TIP3    H259387   5.619   6.130   2.075 -0.1174  0.4839 -0.4103
12658TIP3   OH259388   6.132   1.985   2.412  0.3146 -0.1521 -0.0039
12658TIP3    H159389   6.052   1.944   2.379 -1.2155  0.3009  2.8632
12658TIP3    H259390   6.120   2.078   2.395  1.1885 -0.2494 -1.3250
12659TIP3   OH259391   0.139   1.181  12.972 -0.0106  0.2517  0.3506
12659TIP3    H159392   0.105   1.193  12.883 -0.4381  0.4890  0.5458
12659TIP3    H259393   0.171   1.268  12.997  1.4033 -0.1035 -0.0930
12660TIP3   OH259394   2.482   1.542   4.536  0.3853 -0.3375  0.3397
12660TIP3    H159395   2.458   1.477   4.603 -0.8759  0.6747  0.9140
12660TIP3    H259396   2.399   1.578   4.507  1.0492  0.8741 -0.1200
12661TIP3   OH259397   3.034   0.983  15.058 -0.7965 -0.3939  0.2469
12661TIP3    H159398   2.995   0.910  15.010  0.4276 -2.2341  1.9178
12661TIP3    H259399   2.968   1.007  15.123 -0.5690 -1.1408  0.7672
12662TIP3   OH259400   5.288   1.473   5.867 -0.8757  0.4045  0.9985
12662TIP3    H159401   5.238   1.527   5.928 -0.0029  0.6795  1.4854
12662TIP3    H259402   5.353   1.428   5.922 -2.3981 -2.1951  0.8361
12663TIP3   OH259403   0.187   2.400   5.339 -0.2361  0.8282  0.0217
12663TIP3    H159404   0.154   2.415   5.427 -2.1003 -0.2658 -0.4455
12663TIP3    H259405   0.109   2.396   5.284  0.8969  1.6128 -1.7175
12664TIP3   OH259406   5.529   5.367  10.903 -0.2958 -0.0406 -0.2973
12664TIP3    H159407   5.611   5.354  10.856  0.7249  0.3920  1.3298
12664TIP3    H259408   5.474   5.293  10.875  1.1878 -1.2043 -0.2217
12665TIP3   OH259409   2.059   6.647  12.056 -0.4086 -0.2369 -0.2505
12665TIP3    H159410   2.061   6.593  11.978 -2.2432 -1.2942  0.3641
12665TIP3    H259411   2.147   6.683  12.064  0.3155 -1.5898 -1.7550
12666TIP3   OH259412   6.562   2.159   4.771 -0.6373 -0.3830 -0.3952
12666TIP3    H159413   6.568   2.140   4.677  1.0941  2.3939 -0.9524
12666TIP3    H259414   6.631   2.106   4.810  1.5697  1.5958 -1.3803
12667TIP3   OH259415   5.271   2.700  16.979 -0.0659  0.0745  0.4662
12667TIP3    H159416   5.224   2.774  16.939 -0.4144 -0.2609  0.2480
12667TIP3    H259417   5.232   2.691  17.066  1.5039  1.5666  1.3851
12668TIP3   OH259418   5.582   6.333  17.039  0.2656  0.3917 -0.5179
12668TIP3    H159419   5.601   6.316  17.131  3.1521  0.6758 -0.9794
12668TIP3    H259420   5.644   6.401  17.013  1.6046 -1.6704 -3.3337
12669TIP3   OH259421   1.221   0.780  15.903 -0.2965 -0.0974  0.3718
12669TIP3    H159422   1.142   0.734  15.929 -1.7628  1.9476 -0.2270
12669TIP3    H259423   1.224   0.771  15.808 -1.2465  1.9090  0.1068
12670TIP3   OH259424   1.730   4.652  13.633 -0.3606 -0.4587 -0.1691
12670TIP3    H159425   1.795   4.702  13.583 -2.5891  0.6442 -2.2304
12670TIP3    H259426   1.743   4.561  13.606  0.5309 -0.2961 -0.3016
12671TIP3   OH259427   4.452   0.935  11.410 -0.1907 -0.0006 -0.5415
12671TIP3    H159428   4.545   0.942  11.390 -0.1088  0.1994 -0.1119
12671TIP3    H259429   4.439   0.994  11.484 -0.0644 -2.2197  1.3754
12672TIP3   OH259430   3.321   3.252  17.106  0.3056 -0.1993 -0.1787
12672TIP3    H159431   3.415   3.242  17.120  0.3556 -0.3672 -0.6137
12672TIP3    H259432   3.291   3.308  17.178  0.4736 -1.3868  0.8575
12673TIP3   OH259433   5.808   6.127   3.797 -0.6433  0.8515 -0.2842
12673TIP3    H159434   5.722   6.086   3.787 -1.5043  2.3181  0.7877
12673TIP3    H259435   5.790   6.221   3.799  0.7175  1.1391  1.9239
12674TIP3   OH259436   4.277   2.707  10.969  0.3471 -0.0179 -0.2498
12674TIP3    H159437   4.309   2.617  10.968  0.5651  0.0580 -0.1221
12674TIP3    H259438   4.204   2.706  11.030  0.7110  0.0149  0.1866
12675TIP3   OH259439   3.873   6.356   1.110 -0.3591  0.3819  0.4268
12675TIP3    H159440   3.965   6.381   1.113 -0.6877  1.7787 -0.3840
12675TIP3    H259441   3.869   6.274   1.159  2.2451 -2.8033 -3.9721
12676TIP3   OH259442   6.259   5.192   4.934 -0.2092  0.1362  0.0873
12676TIP3    H159443   6.298   5.122   4.881 -0.4976  0.2201 -0.2454
12676TIP3    H259444   6.333   5.245   4.963 -0.1230  0.9111 -1.4058
12677TIP3   OH259445   2.158   1.231  15.335  0.5879 -0.1448  0.2139
12677TIP3    H159446   2.110   1.183  15.267 -0.2001 -0.1390  0.7534
12677TIP3    H259447   2.096   1.239  15.407  1.3182  0.1026  0.8310
12678TIP3   OH259448   5.453   5.339  11.782  0.1657  0.1611 -0.2017
12678TIP3    H159449   5.494   5.404  11.724  2.3511 -0.7703  0.1894
12678TIP3    H259450   5.386   5.298  11.728  0.7134  0.7732 -1.3919
12679TIP3   OH259451   0.179   1.034   5.539  0.0392  0.5677  0.2150
12679TIP3    H159452   0.240   1.090   5.492 -0.6132  1.0492 -0.0783
12679TIP3    H259453   0.095   1.080   5.533 -0.5918 -0.6412 -0.3813
12680TIP3   OH259454   2.828   6.694  11.110 -0.3743  0.0042  0.3357
12680TIP3    H159455   2.799   6.603  11.101 -0.2226 -0.1829  1.6283
12680TIP3    H259456   2.923   6.688  11.116 -0.3941  0.2167  0.8411
12681TIP3   OH259457   1.726   1.394  15.735  0.0267 -0.3027 -0.6509
12681TIP3    H159458   1.773   1.458  15.789 -1.4148 -0.1422  0.4825
12681TIP3    H259459   1.768   1.310  15.753 -0.5919 -0.2962  0.9793
12682TIP3   OH259460   2.016   5.459  14.924  0.1242  0.9433  0.2461
12682TIP3    H159461   2.046   5.538  14.879 -0.3259  1.8006  1.4143
12682TIP3    H259462   1.921   5.469  14.929 -0.1524 -0.5346 -1.1499
12683TIP3   OH259463   1.037   2.027   5.303  0.1900  0.0352  0.2402
12683TIP3    H159464   1.061   1.979   5.224  0.4209 -0.6077  0.6968
12683TIP3    H259465   1.099   1.998   5.369 -0.1885  0.3428  0.7404
12684TIP3   OH259466   4.488   4.281   3.193 -0.8089 -0.0826  0.3897
12684TIP3    H159467   4.397   4.299   3.171 -0.5054  0.2157 -0.6501
12684TIP3    H259468   4.532   4.366   3.183 -0.3973 -0.2465  0.7938
12685TIP3   OH259469   0.681   5.731   1.770 -0.4090  0.3550  0.7685
12685TIP3    H159470   0.604   5.688   1.732  0.6699  0.5318 -1.8236
12685TIP3    H259471   0.645   5.800   1.826 -2.1389  0.2365 -0.1402
12686TIP3   OH259472   2.470   6.735   3.592  0.2622 -1.0665  0.5749
12686TIP3    H159473   2.386   6.709   3.555 -0.2365  0.4506  0.5695
12686TIP3    H259474   2.530   6.737   3.517 -0.8969  2.6822 -0.4938
12687TIP3   OH259475   0.151   2.231   1.241  0.3707  0.3864 -0.4877
12687TIP3    H159476   0.104   2.261   1.319  0.7069 -1.6324  0.5752
12687TIP3    H259477   0.242   2.221   1.270  0.7320  0.6695 -1.4767
12688TIP3   OH259478   3.902   3.654  16.098  0.2062  0.2857 -0.7585
12688TIP3    H159479   3.890   3.713  16.173 -1.2801 -0.3402 -0.4774
12688TIP3    H259480   3.964   3.701  16.041 -1.6586  2.6136 -1.0195
12689TIP3   OH259481   5.553   2.264  15.760  0.1331  0.0782 -0.4587
12689TIP3    H159482   5.501   2.197  15.805  1.0829 -1.0611 -0.9828
12689TIP3    H259483   5.629   2.277  15.817  0.4000  0.0235 -0.7995
12690TIP3   OH259484   5.842   1.457  14.076 -0.2443 -0.0802 -0.4944
12690TIP3    H159485   5.866   1.483  13.987  0.2444 -0.2236 -0.4075
12690TIP3    H259486   5.841   1.539  14.125  1.4380 -0.2109 -0.1867
12691TIP3   OH259487   6.157   1.527  14.032  0.7439  0.2565 -0.2081
12691TIP3    H159488   6.083   1.522  13.971  1.7743  0.5480 -1.5040
12691TIP3    H259489   6.130   1.592  14.097 -0.0149  0.5684 -0.8234
12692TIP3   OH259490   4.301   2.971   3.116 -0.7418 -0.3585  0.0775
12692TIP3    H159491   4.391   2.944   3.097 -0.4252  1.3182 -0.9905
12692TIP3    H259492   4.247   2.900   3.081  0.1209 -1.0028  0.0069
12693TIP3   OH259493   2.499   0.215  16.298 -0.0589  0.0047 -0.1391
12693TIP3    H159494   2.560   0.203  16.226 -1.6158 -1.2620 -1.3162
12693TIP3    H259495   2.476   0.307  16.295  0.9663  0.2720 -0.3260
12694TIP3   OH259496   1.072   2.499   5.094 -0.0341  0.5298 -0.3200
12694TIP3    H159497   1.072   2.420   5.040 -0.0853  0.7125 -0.5949
12694TIP3    H259498   1.129   2.560   5.047 -1.1775  1.1752 -0.9080
12695TIP3   OH259499   5.565   4.627   5.708  0.5569 -0.5263 -0.3031
12695TIP3    H159500   5.557   4.605   5.615  1.5660 -0.7536 -0.3499
12695TIP3    H259501   5.493   4.579   5.749 -1.2176  1.2410 -1.1971
12696TIP3   OH259502   5.786   4.444   2.246 -0.4087  0.3036 -0.5807
12696TIP3    H159503   5.795   4.411   2.336 -0.8208 -0.3271 -0.7630
12696TIP3    H259504   5.789   4.539   2.255 -1.3616  0.2813  0.2173
12697TIP3   OH259505   4.296   3.872   6.743 -0.2684 -0.2589 -0.0794
12697TIP3    H159506   4.362   3.821   6.789  1.4216 -0.3769 -2.4335
12697TIP3    H259507   4.309   3.962   6.773 -0.1912 -0.5314  0.7202
12698TIP3   OH259508   6.354   5.960   5.517 -0.0518  0.1736  0.3373
12698TIP3    H159509   6.388   6.049   5.503 -0.1302  0.0159 -0.9696
12698TIP3    H259510   6.297   5.944   5.442 -1.2112 -0.4471  1.3147
12699TIP3   OH259511   5.958   5.093  14.110  0.5269  0.0246  0.0431
12699TIP3    H159512   5.954   5.048  14.025 -0.7355  1.9120 -0.9881
12699TIP3    H259513   6.029   5.157  14.099  0.2326  0.4049  0.3250
12700TIP3   OH259514   4.099   6.482  15.721  0.3150  0.0818  0.3466
12700TIP3    H159515   4.095   6.531  15.804  0.2530 -0.0833  0.4421
12700TIP3    H259516   4.048   6.403  15.738  0.0699  0.1807  0.0600
12701TIP3   OH259517   0.805   4.966  16.144  0.5869 -0.2099  0.0669
12701TIP3    H159518   0.769   4.896  16.089  1.6291  0.1433 -1.1237
12701TIP3    H259519   0.892   4.934  16.169  0.7242  0.2857  0.2340
12702TIP3   OH259520   2.909   5.009   2.172  0.3326 -0.0300 -0.2616
12702TIP3    H159521   2.817   4.995   2.194  0.1108 -1.0721 -1.6891
12702TIP3    H259522   2.954   5.011   2.257 -1.0874  1.4403  0.5193
12703TIP3   OH259523   1.784   2.824   4.458 -0.0234  0.2660 -0.1552
12703TIP3    H159524   1.768   2.735   4.427 -0.5041 -0.0498  0.9452
12703TIP3    H259525   1.729   2.879   4.403 -2.7158 -0.5026  1.5608
12704TIP3   OH259526   3.738   0.055   3.387 -0.3173  0.0798 -0.7665
12704TIP3    H159527   3.810   0.094   3.337  0.3216  1.0669  0.8860
12704TIP3    H259528   3.672   0.124   3.392 -0.2940  0.0521 -0.0806
12705TIP3   OH259529   2.492   3.048   5.127 -0.0238 -0.0886 -0.1342
12705TIP3    H159530   2.505   2.954   5.120  0.1863 -0.1161  0.5919
12705TIP3    H259531   2.575   3.086   5.096  1.1702 -0.2237  2.6433
12706TIP3   OH259532   4.077   5.588  10.817  0.3359 -0.8432  0.0845
12706TIP3    H159533   4.012   5.643  10.774  2.3303  1.7709  0.1346
12706TIP3    H259534   4.143   5.572  10.749  0.6966 -1.5902  0.5983
12707TIP3   OH259535   5.069   2.758  13.178  0.1436 -0.2665 -0.7427
12707TIP3    H159536   5.153   2.747  13.133  0.5665  0.5113 -0.1606
12707TIP3    H259537   5.068   2.850  13.205 -0.5674 -0.4589 -0.0925
12708TIP3   OH259538   0.453   3.121   2.874 -0.2590 -0.4973 -0.0887
12708TIP3    H159539   0.450   3.155   2.785 -0.0771 -0.7426 -0.1905
12708TIP3    H259540   0.522   3.173   2.917  0.5752 -1.2660 -0.4728
12709TIP3   OH259541   5.853   5.836  13.915 -0.2265  0.3591 -0.2132
12709TIP3    H159542   5.806   5.919  13.908 -1.5818 -0.2535  1.0032
12709TIP3    H259543   5.908   5.833  13.837 -0.4965  2.1696 -0.5239
12710TIP3   OH259544   5.699   4.254   5.514  0.0699 -0.3590 -0.6742
12710TIP3    H159545   5.708   4.174   5.565 -0.0490 -0.5564 -0.9626
12710TIP3    H259546   5.692   4.225   5.423 -1.2344 -0.1154 -0.6794
12711TIP3   OH259547   5.386   4.466  16.063  0.1052  0.1865  0.3185
12711TIP3    H159548   5.417   4.555  16.048 -0.6330  0.1778 -1.4215
12711TIP3    H259549   5.432   4.413  15.998  0.0769 -0.6208  0.9380
12712TIP3   OH259550   6.509   5.637  11.009  0.4350  0.2106 -0.9130
12712TIP3    H159551   6.451   5.697  10.962 -0.7789 -1.4681 -1.6583
12712TIP3    H259552   6.561   5.694  11.066  0.0962  2.0502 -2.3438
12713TIP3   OH259553   6.155   4.139   3.941 -0.0070  0.0770 -0.4831
12713TIP3    H159554   6.122   4.049   3.948 -0.3847  0.1165 -1.6068
12713TIP3    H259555   6.246   4.129   3.912  0.1335  0.0468 -0.0395
12714TIP3   OH259556   2.482   0.805   5.725  0.0136 -0.3706 -0.5856
12714TIP3    H159557   2.465   0.899   5.715 -2.7877 -0.3027  2.7063
12714TIP3    H259558   2.427   0.764   5.658 -1.6244  0.3316  0.2677
12715TIP3   OH259559   1.288   0.387  12.519  0.3334  0.3523  0.4180
12715TIP3    H159560   1.239   0.404  12.439  0.7586 -0.3002  0.0117
12715TIP3    H259561   1.379   0.405  12.496  0.3409  1.2084  1.0669
12716TIP3   OH259562   4.258   0.654  16.834 -0.1292 -0.2686  0.9284
12716TIP3    H159563   4.225   0.569  16.803  0.8550 -0.1419 -0.5266
12716TIP3    H259564   4.335   0.632  16.887 -0.5036 -0.3439  1.4459
12717TIP3   OH259565   0.853   2.680  16.124 -0.2492 -0.1444  0.3866
12717TIP3    H159566   0.881   2.651  16.037 -1.5833  1.4831 -0.6526
12717TIP3    H259567   0.826   2.600  16.169 -1.4402 -0.8565 -1.4610
12718TIP3   OH259568   6.002   4.618  15.172  0.2712  0.3088  0.1839
12718TIP3    H159569   6.062   4.669  15.225  0.1505 -0.7795  1.4303
12718TIP3    H259570   6.027   4.527  15.189 -1.6446 -0.1757  0.6803
12719TIP3   OH259571   4.385   4.390   6.288  1.0148  0.3973 -0.2382
12719TIP3    H159572   4.378   4.368   6.195 -0.7427  0.0118 -0.0416
12719TIP3    H259573   4.400   4.485   6.289 -0.5842  0.6804 -0.8930
12720TIP3   OH259574   4.696   2.570   0.636 -0.1006  0.1093 -0.2520
12720TIP3    H159575   4.784   2.554   0.601 -0.3105 -0.5213 -0.4996
12720TIP3    H259576   4.665   2.647   0.588 -0.5916 -1.0451 -1.8821
12721TIP3   OH259577   1.520   4.725  14.480 -0.2566  0.3399  0.2719
12721TIP3    H159578   1.479   4.671  14.548  0.2712 -1.8885 -1.0987
12721TIP3    H259579   1.609   4.690  14.473 -0.2162  0.7281 -1.3449
12722TIP3   OH259580   1.724   1.860   4.198  0.0456  0.5439 -0.2146
12722TIP3    H159581   1.691   1.930   4.142 -0.6069 -0.7527 -1.5222
12722TIP3    H259582   1.815   1.848   4.170 -0.0665  0.3786 -0.5153
12723TIP3   OH259583   6.115   0.466  16.926 -0.4438  0.5783 -0.5315
12723TIP3    H159584   6.032   0.449  16.882 -0.7084 -1.0872  0.5096
12723TIP3    H259585   6.169   0.390  16.907  0.1620  0.7709  0.3455
12724TIP3   OH259586   1.851   2.050   4.455  0.9724 -0.3891  0.1436
12724TIP3    H159587   1.869   2.066   4.362  1.6420 -2.2180 -0.0917
12724TIP3    H259588   1.766   2.091   4.470  1.3662  0.9224 -0.9694
12725TIP3   OH259589   0.247   2.957  12.943  0.1682 -0.0867  0.1328
12725TIP3    H159590   0.274   2.872  12.977  0.4909  1.1511  3.2662
12725TIP3    H259591   0.167   2.938  12.892 -0.0146 -2.1844  1.0890
12726TIP3   OH259592   4.954   5.018   1.805 -0.0014  0.5162 -0.3296
12726TIP3    H159593   4.970   4.928   1.778 -0.7040  0.8071 -1.8070
12726TIP3    H259594   5.034   5.065   1.781  1.1223 -0.0045  2.1144
12727TIP3   OH259595   0.731   1.938  15.029 -0.6299 -0.2206  0.4758
12727TIP3    H159596   0.793   1.983  14.971  1.6607 -1.4614  1.8306
12727TIP3    H259597   0.752   1.972  15.116 -2.2819 -0.2811  0.9228
12728TIP3   OH259598   5.690   0.004  14.595  0.6704  0.0629  0.2911
12728TIP3    H159599   5.723  -0.065  14.537 -0.3827 -0.8985  0.8011
12728TIP3    H259600   5.757   0.072  14.591  2.7336 -1.7896  1.2774
12729TIP3   OH259601   2.263   3.986   1.073  0.1788  0.1069 -0.6709
12729TIP3    H159602   2.296   3.897   1.091 -0.1238  0.1553  0.1776
12729TIP3    H259603   2.341   4.040   1.069  0.4486 -0.3586 -2.2402
12730TIP3   OH259604   3.253   2.762  11.401  0.4874 -0.4278  0.7992
12730TIP3    H159605   3.216   2.801  11.481  0.3066 -1.2388  1.1180
12730TIP3    H259606   3.274   2.837  11.346 -1.9301  0.0585  0.4612
12731TIP3   OH259607   4.946   0.062  13.152  0.3430  0.1225 -0.6878
12731TIP3    H159608   4.912   0.116  13.224  0.0741 -0.6010 -0.2592
12731TIP3    H259609   5.033   0.098  13.135  0.4831  0.2037  0.1245
12732TIP3   OH259610   0.488   2.375   0.586  0.2613  1.2630  0.1977
12732TIP3    H159611   0.569   2.386   0.537  0.7207 -0.1239  0.5777
12732TIP3    H259612   0.425   2.342   0.522 -0.0048  2.2708 -0.0808
12733TIP3   OH259613   2.738   3.055   2.522 -0.1703 -0.5387 -0.1327
12733TIP3    H159614   2.648   3.077   2.547 -0.9821 -2.4480 -1.1637
12733TIP3    H259615   2.763   2.984   2.580  0.3684 -0.5592 -0.3836
12734TIP3   OH259616   4.431   6.731   6.143 -0.4297  0.3846 -0.2113
12734TIP3    H159617   4.396   6.806   6.095 -3.2447 -0.8931 -0.3316
12734TIP3    H259618   4.418   6.753   6.235  2.5234  1.6829  0.0166
12735TIP3   OH259619   4.820   4.126  16.279 -0.2745  0.4076 -0.2406
12735TIP3    H159620   4.786   4.048  16.322  0.7962 -0.3872 -0.7815
12735TIP3    H259621   4.893   4.094  16.226 -0.3238  1.6574 -1.1051
12736TIP3   OH259622   1.934   6.426   5.388 -0.1348 -0.3615  1.2861
12736TIP3    H159623   1.986   6.411   5.467  1.4872  3.1865  1.0843
12736TIP3    H259624   1.846   6.448   5.421  0.0783 -0.5183  1.9826
12737TIP3   OH259625   0.563   1.169  12.694 -0.2106  0.3627 -0.2348
12737TIP3    H159626   0.540   1.093  12.748 -0.4951  0.4470 -0.2354
12737TIP3    H259627   0.479   1.203  12.665 -0.1405  1.2559  0.5569
12738TIP3   OH259628   2.576   3.986  15.580 -0.8291 -0.4958  0.9535
12738TIP3    H159629   2.585   3.985  15.484 -1.5435  1.0112  0.8336
12738TIP3    H259630   2.489   4.024  15.595  0.8629  3.3029  2.2237
12739TIP3   OH259631   5.626   5.527  11.101  0.0602 -0.0959  0.4893
12739TIP3    H159632   5.647   5.599  11.042 -2.3694  0.6083  0.3687
12739TIP3    H259633   5.580   5.463  11.046  0.9659 -1.1284  0.8896
12740TIP3   OH259634   5.572   4.574  13.405  0.2949 -0.4048 -0.2436
12740TIP3    H159635   5.541   4.602  13.319 -1.0972 -0.8150  0.0957
12740TIP3    H259636   5.631   4.502  13.387  1.0423  0.3541 -0.9173
12741TIP3   OH259637   4.462   1.682   5.418  0.2882  0.0579  0.2676
12741TIP3    H159638   4.404   1.695   5.344  0.0014 -1.9593  0.0844
12741TIP3    H259639   4.406   1.694   5.495 -0.3837 -1.6505  0.0937
12742TIP3   OH259640   0.718   0.808  15.802 -0.2697  0.3411 -0.3489
12742TIP3    H159641   0.774   0.844  15.871 -0.2039  1.0797 -0.7869
12742TIP3    H259642   0.643   0.867  15.798  1.6690  2.9610 -3.8103
12743TIP3   OH259643   1.194   1.161  14.898  0.1970 -0.2594 -0.1808
12743TIP3    H159644   1.198   1.075  14.856  0.5479 -1.7522  2.6022
12743TIP3    H259645   1.285   1.183  14.917  0.0696  0.4560 -0.3915
12744TIP3   OH259646   0.756   5.695  11.260 -0.4880  0.2791 -0.4037
12744TIP3    H159647   0.692   5.625  11.248  2.5140 -2.7980 -0.3342
12744TIP3    H259648   0.782   5.720  11.172  1.5521 -2.0573 -0.5790
12745TIP3   OH259649   2.420   5.006  15.799 -0.8929 -0.0940 -0.3510
12745TIP3    H159650   2.394   4.925  15.842 -0.5464 -0.9673 -1.7147
12745TIP3    H259651   2.356   5.019  15.730 -1.2608  1.1094  0.1822
12746TIP3   OH259652   3.658   2.298   0.594  0.1430  0.0191 -0.7449
12746TIP3    H159653   3.674   2.236   0.666 -0.5621 -0.0986 -0.6809
12746TIP3    H259654   3.696   2.255   0.517 -0.2738 -0.4716 -0.6877
12747TIP3   OH259655   2.621   3.243   2.826 -0.0560  0.0349 -0.2680
12747TIP3    H159656   2.643   3.150   2.815 -0.3456  0.0352 -0.9094
12747TIP3    H259657   2.560   3.262   2.754  0.4296  0.8554 -0.4779
12748TIP3   OH259658   5.824   6.630  12.999  0.6059 -0.4567 -0.6611
12748TIP3    H159659   5.781   6.677  12.927 -0.9484  1.5205  1.4449
12748TIP3    H259660   5.875   6.697  13.045  0.5191 -1.3921  0.8666
12749TIP3   OH259661   6.035   3.804  12.990  0.3518 -0.1690 -0.1135
12749TIP3    H159662   6.089   3.753  12.931  2.7147  1.0155  0.8720
12749TIP3    H259663   6.057   3.895  12.970 -1.2848  0.3714  0.3658
12750TIP3   OH259664   0.069   6.254  14.842 -0.5449 -0.5861  0.3602
12750TIP3    H159665  -0.010   6.307  14.858 -0.7487 -1.0130  0.8097
12750TIP3    H259666   0.099   6.229  14.930  0.3642 -0.0355  0.2115
12751TIP3   OH259667   5.948   6.535   4.757 -0.5837 -0.2038 -0.5829
12751TIP3    H159668   5.912   6.624   4.756  0.0734  0.0686 -2.0189
12751TIP3    H259669   6.007   6.535   4.833 -0.9463  0.4292 -0.2890
12752TIP3   OH259670   6.625   3.974  16.883 -0.0921 -0.0147  0.3837
12752TIP3    H159671   6.701   3.944  16.933  0.6540  1.0363 -0.0739
12752TIP3    H259672   6.647   4.064  16.859 -0.7284 -0.2795 -1.2543
12753TIP3   OH259673   3.702   4.227   2.570  0.7148  0.5234  0.3319
12753TIP3    H159674   3.699   4.135   2.545 -0.8126  0.5349  0.3584
12753TIP3    H259675   3.763   4.230   2.644  0.8101 -0.4555  0.3034
12754TIP3   OH259676   0.828   3.999  16.923  0.3351 -0.0018  0.0388
12754TIP3    H159677   0.873   4.008  16.839  1.5436 -2.0792  0.4003
12754TIP3    H259678   0.895   4.023  16.988 -0.3260  0.7418  0.4635
12755TIP3   OH259679   5.592   2.652  16.542  1.0210  0.2244 -0.1956
12755TIP3    H159680   5.588   2.657  16.638  0.2301  1.0628 -0.2525
12755TIP3    H259681   5.503   2.675  16.514  1.3335  0.2986 -1.1364
12756TIP3   OH259682   4.142   2.693  12.687 -0.2192 -0.2173 -0.1924
12756TIP3    H159683   4.101   2.773  12.654 -1.6527  0.1017  2.1648
12756TIP3    H259684   4.223   2.722  12.727 -0.7321  0.0772  0.6513
12757TIP3   OH259685   0.409   2.900   5.072 -0.4232  0.3324 -0.5888
12757TIP3    H159686   0.491   2.865   5.107 -0.1200  2.9694  1.5912
12757TIP3    H259687   0.419   2.891   4.977  0.5738 -3.1364 -0.2926
12758TIP3   OH259688   1.480   0.475  10.601  0.4604  0.5529  0.4282
12758TIP3    H159689   1.442   0.506  10.684  1.2262 -1.3999  1.5836
12758TIP3    H259690   1.570   0.454  10.623  1.4261  2.2798 -1.5433
12759TIP3   OH259691   5.049   2.597   5.903 -0.8426 -0.1064  0.0540
12759TIP3    H159692   5.141   2.615   5.923 -0.8307 -2.7080  3.2814
12759TIP3    H259693   5.051   2.535   5.831 -0.2560  1.5207 -1.3895
12760TIP3   OH259694   0.329   2.372   1.917  0.3900 -0.0095  0.9824
12760TIP3    H159695   0.254   2.412   1.960 -0.6510 -1.5172  0.6261
12760TIP3    H259696   0.359   2.439   1.855 -1.7126  0.0279 -0.0805
12761TIP3   OH259697   3.505   0.021  16.664  0.0013 -0.2481 -0.1732
12761TIP3    H159698   3.440   0.011  16.595  0.6885 -0.8101 -0.7545
12761TIP3    H259699   3.544   0.107  16.649 -1.9936  1.0301  1.4187
12762TIP3   OH259700   1.988   2.222  14.742 -0.0050  0.0874 -0.5285
12762TIP3    H159701   2.063   2.263  14.700 -0.8436 -0.2675 -2.4692
12762TIP3    H259702   1.921   2.218  14.674 -0.7722 -2.3261  0.2483
12763TIP3   OH259703   1.326   4.981  13.283  0.2363 -0.1563 -0.1736
12763TIP3    H159704   1.251   5.029  13.246 -0.1932 -0.3587  0.4205
12763TIP3    H259705   1.295   4.950  13.368  0.9672 -0.3311  0.0346
12764TIP3   OH259706   6.630   2.742  15.867 -0.0705  0.5862  0.4264
12764TIP3    H159707   6.706   2.713  15.918  0.1631  0.7372  0.1632
12764TIP3    H259708   6.667   2.791  15.794 -0.4493  1.3167  0.7110
12765TIP3   OH259709   5.794   1.201   4.963 -0.6924 -0.4793 -0.1570
12765TIP3    H159710   5.863   1.171   4.904 -1.0754 -0.5899 -0.5597
12765TIP3    H259711   5.840   1.229   5.042  0.0778  1.9794 -1.3714
12766TIP3   OH259712   5.301   6.380  14.824  0.1990 -0.2204 -0.5384
12766TIP3    H159713   5.285   6.296  14.866 -1.2374 -0.1518 -0.9023
12766TIP3    H259714   5.353   6.429  14.887 -2.9415  0.3818  1.8503
12767TIP3   OH259715   5.815   5.494   1.691  0.3314  0.6515 -0.1744
12767TIP3    H159716   5.772   5.526   1.611  1.3827  1.3723 -0.4762
12767TIP3    H259717   5.783   5.552   1.760  0.7433  1.1403 -0.3858
12768TIP3   OH259718   3.801   4.170   3.738 -0.0581 -0.0435 -0.2687
12768TIP3    H159719   3.721   4.200   3.696 -0.9347 -0.8236  0.7681
12768TIP3    H259720   3.871   4.190   3.676 -1.3329 -1.7067 -2.3780
12769TIP3   OH259721   5.144   5.266   3.179 -0.1692  0.2099  0.5056
12769TIP3    H159722   5.160   5.352   3.140  0.0366  1.0387  2.3096
12769TIP3    H259723   5.091   5.284   3.257 -2.5395 -1.6095 -0.5408
12770TIP3   OH259724   0.904   1.787  16.040  0.3476  0.0506 -0.1506
12770TIP3    H159725   0.887   1.796  15.947  2.5654  1.2751 -0.5107
12770TIP3    H259726   0.963   1.712  16.047 -1.0536 -1.0230  0.4706
12771TIP3   OH259727   5.202   2.771  16.017 -0.5343  0.3774  0.2078
12771TIP3    H159728   5.174   2.861  16.003  0.4666  0.8103  0.9116
12771TIP3    H259729   5.280   2.760  15.963  0.8138  0.7313  2.0044
12772TIP3   OH259730   5.730   2.181  11.179  0.3090 -0.2769  0.1062
12772TIP3    H159731   5.808   2.149  11.225 -0.3992  0.7882  2.1320
12772TIP3    H259732   5.765   2.242  11.114  1.2151 -0.5756  0.2855
12773TIP3   OH259733   3.639   2.576   5.814  0.0367  0.0272  0.2479
12773TIP3    H159734   3.678   2.647   5.865  0.3116 -0.1092  0.2307
12773TIP3    H259735   3.623   2.507   5.878  0.0577 -0.0113  0.2117
12774TIP3   OH259736   4.540   3.585  14.941  0.1196  0.1034 -0.1176
12774TIP3    H159737   4.516   3.523  15.010 -0.4614 -0.4322 -0.7888
12774TIP3    H259738   4.630   3.562  14.919  1.0158  1.5175  1.7627
12775TIP3   OH259739   3.043   2.659   3.934 -0.3769  0.0058  0.3209
12775TIP3    H159740   3.123   2.618   3.966 -2.2563 -2.7199  2.0302
12775TIP3    H259741   3.032   2.737   3.988  0.4702 -0.3164  0.9754
12776TIP3   OH259742   1.287   2.683   1.137 -0.7457 -0.1508  0.7499
12776TIP3    H159743   1.205   2.679   1.185 -0.6676  0.6895  0.9680
12776TIP3    H259744   1.278   2.760   1.080 -0.2251 -0.2187  0.5696
12777TIP3   OH259745   1.187   6.225   6.325  0.2835  0.3661 -0.4501
12777TIP3    H159746   1.108   6.187   6.364  1.9715 -1.7309  1.1848
12777TIP3    H259747   1.235   6.151   6.290  3.0796  1.0414  1.5881
12778TIP3   OH259748   0.560   2.032  15.487  0.6459  0.2193 -0.4527
12778TIP3    H159749   0.647   2.023  15.526  0.5611  2.0701  0.2654
12778TIP3    H259750   0.514   1.953  15.515  2.0324 -0.7435 -0.7583
12779TIP3   OH259751   2.920   2.803   5.367  0.0978  0.5584 -0.1262
12779TIP3    H159752   2.842   2.821   5.421 -1.0536  1.4011 -1.9725
12779TIP3    H259753   2.988   2.780   5.430 -1.8341 -0.9761  1.5293
12780TIP3   OH259754   4.765   1.178   5.854  1.1611  0.3207 -0.2846
12780TIP3    H159755   4.821   1.104   5.879  0.9772 -0.4501 -1.9662
12780TIP3    H259756   4.724   1.149   5.772  1.7279  2.6331 -1.4403
12781TIP3   OH259757   5.760   0.540  15.073  0.3004  0.1107  0.4006
12781TIP3    H159758   5.852   0.565  15.078  0.3882 -0.4394  1.8978
12781TIP3    H259759   5.760   0.459  15.023  0.1827  1.9806 -2.9762
12782TIP3   OH259760   2.114   1.896   1.244  0.5232 -0.1285 -0.1088
12782TIP3    H159761   2.172   1.884   1.169  0.0839  0.8728 -0.6102
12782TIP3    H259762   2.084   1.807   1.265 -0.7419 -0.2651 -2.2201
12783TIP3   OH259763   2.812   3.083  12.400  0.2936 -0.1699 -0.0516
12783TIP3    H159764   2.880   3.092  12.467 -0.1326 -0.5691  0.4465
12783TIP3    H259765   2.746   3.026  12.441 -1.2011  1.6218  0.1603
12784TIP3   OH259766   5.082   3.906  11.098  0.2558  0.4964 -0.0763
12784TIP3    H159767   5.042   3.863  11.022  2.1603  0.3722 -1.0551
12784TIP3    H259768   5.150   3.845  11.127 -0.7966  0.2743  2.1379
12785TIP3   OH259769   4.086   2.419  13.084 -0.2138 -0.0036 -0.6560
12785TIP3    H159770   4.146   2.480  13.127  1.4088 -0.5880 -1.9472
12785TIP3    H259771   4.084   2.343  13.142  0.3084  0.0321 -0.5807
12786TIP3   OH259772   6.298   0.979   0.258  0.2258 -0.8333 -0.3795
12786TIP3    H159773   6.348   1.041   0.310  0.1595 -0.8598 -0.2839
12786TIP3    H259774   6.333   0.893   0.282 -0.2739 -0.9002  0.1402
12787TIP3   OH259775   6.538   4.461   4.347 -0.1202 -0.2537  0.3059
12787TIP3    H159776   6.613   4.444   4.289 -1.0980 -1.6280 -0.6177
12787TIP3    H259777   6.574   4.517   4.416  1.0456  1.6604 -1.7080
12788TIP3   OH259778   0.725   3.860  11.985  0.6066  0.6474  0.0939
12788TIP3    H159779   0.710   3.766  11.998 -1.3308  1.0099  0.8344
12788TIP3    H259780   0.728   3.896  12.074 -1.4903  1.6377 -0.1882
12789TIP3   OH259781   6.444   0.064  13.247  0.0528 -0.1399 -0.1833
12789TIP3    H159782   6.407   0.034  13.164  1.8845  0.1442 -1.1834
12789TIP3    H259783   6.529   0.101  13.222  0.0163  1.3189  1.6430
12790TIP3   OH259784   5.325   0.678  16.966  0.3589  0.2642 -0.6839
12790TIP3    H159785   5.259   0.611  16.986 -0.1813  0.9389 -0.1611
12790TIP3    H259786   5.281   0.736  16.903  0.1849  1.1379  0.2332
12791TIP3   OH259787   5.068   3.695  14.724  0.2422  0.1311  0.3918
12791TIP3    H159788   5.009   3.708  14.650  0.3843  1.2291  0.4573
12791TIP3    H259789   5.150   3.736  14.697  0.0128  1.3886  1.5092
12792TIP3   OH259790   1.792   2.095   1.610  0.0507 -0.2148  0.4761
12792TIP3    H159791   1.842   2.024   1.650 -1.7257 -0.4122  2.5549
12792TIP3    H259792   1.765   2.150   1.683 -1.2452  0.8638 -0.7404
12793TIP3   OH259793   4.870   2.082  15.511  0.5255  0.0765  0.2954
12793TIP3    H159794   4.853   2.141  15.437  1.2292 -1.1325 -0.8671
12793TIP3    H259795   4.784   2.046  15.534 -0.1752  2.5083  1.9451
12794TIP3   OH259796   0.085   5.882   3.611  0.4043  0.4270  0.0304
12794TIP3    H159797   0.044   5.967   3.591 -0.2264  0.2373  0.4885
12794TIP3    H259798   0.023   5.839   3.670  1.0415 -0.0741  0.3473
12795TIP3   OH259799   3.595   3.674  11.686 -0.4056  0.5129  0.2662
12795TIP3    H159800   3.619   3.604  11.625 -0.5201  1.0885 -0.4668
12795TIP3    H259801   3.660   3.669  11.756  0.7237  0.8331 -0.7181
12796TIP3   OH259802   5.315   4.768  12.549  0.4356  0.0502 -0.3589
12796TIP3    H159803   5.381   4.811  12.494  0.8230  0.0908  0.1239
12796TIP3    H259804   5.231   4.802  12.517  0.7475  1.4405  0.2191
12797TIP3   OH259805   4.418   4.330   2.186 -0.4013  0.3168  0.0333
12797TIP3    H159806   4.510   4.304   2.185 -0.4988 -0.0318 -1.1075
12797TIP3    H259807   4.382   4.291   2.265 -0.1553 -1.6792 -0.7928
12798TIP3   OH259808   0.902   4.155  15.478  0.1818  0.3190  0.1992
12798TIP3    H159809   0.956   4.125  15.406  0.8486 -0.6281  1.0642
12798TIP3    H259810   0.922   4.248  15.486 -0.9870  0.7903 -1.7274
12799TIP3   OH259811   3.302   1.606   1.510  0.5621  0.3206 -0.3264
12799TIP3    H159812   3.238   1.562   1.453  1.9334 -2.3886  0.0556
12799TIP3    H259813   3.368   1.640   1.450 -0.5896  2.1608 -0.6378
12800TIP3   OH259814   4.181   2.606  17.397 -0.3698 -0.2386 -0.5638
12800TIP3    H159815   4.261   2.647  17.364  0.8390 -0.7843  1.5140
12800TIP3    H259816   4.211   2.528  17.443 -1.6377  1.2400  3.1930
12801TIP3   OH259817   1.404   5.255  16.091 -0.4573  0.2480  0.0770
12801TIP3    H159818   1.439   5.166  16.096  0.5668  0.6981  1.4405
12801TIP3    H259819   1.479   5.310  16.067 -0.8484  0.8656  0.2297
12802TIP3   OH259820   5.363   4.732   4.941 -0.0018  0.1711 -0.2235
12802TIP3    H159821   5.419   4.760   5.013 -0.8523  0.4532  0.3473
12802TIP3    H259822   5.401   4.650   4.910 -0.1349 -0.4134  1.1298
12803TIP3   OH259823   2.914   4.897   5.494 -0.0394  0.2352 -0.8078
12803TIP3    H159824   2.957   4.944   5.423  1.1600  0.2837 -0.0788
12803TIP3    H259825   2.978   4.832   5.523 -0.8362 -0.3759 -0.3409
12804TIP3   OH259826   6.302   4.342  13.381  0.1563 -0.3763 -0.0993
12804TIP3    H159827   6.265   4.278  13.442  1.1781  2.3627  3.7734
12804TIP3    H259828   6.396   4.322  13.380  0.2196 -0.0751 -0.3916
12805TIP3   OH259829   4.311   1.833   2.179 -0.1494  0.2334  0.1088
12805TIP3    H159830   4.242   1.766   2.180 -1.1471  1.2044 -0.9427
12805TIP3    H259831   4.268   1.911   2.144  1.5943  0.7762 -0.9213
12806TIP3   OH259832   3.514   1.183  14.354 -0.0467  0.2467  0.2539
12806TIP3    H159833   3.475   1.270  14.348  1.5443  1.1123  1.3264
12806TIP3    H259834   3.609   1.200  14.357  0.2815 -1.4704  1.0860
12807TIP3   OH259835   6.653   5.898  15.527 -0.1143 -0.3444  0.5436
12807TIP3    H159836   6.631   5.810  15.499 -1.2725 -0.1212  0.7003
12807TIP3    H259837   6.635   5.898  15.621  0.9256 -0.2398  0.7624
12808TIP3   OH259838   2.111   3.108   1.673 -0.6683  0.8340  0.6460
12808TIP3    H159839   2.148   3.105   1.585 -0.8137  1.6455  0.5461
12808TIP3    H259840   2.024   3.147   1.661  0.1278  2.9721  1.3819
12809TIP3   OH259841   1.588   3.252   3.096  0.3356  0.0785  0.9067
12809TIP3    H159842   1.525   3.181   3.109 -0.3381  0.7926  1.6586
12809TIP3    H259843   1.667   3.223   3.141  0.5799 -0.8487 -0.0891
12810TIP3   OH259844   5.812   2.125  12.968 -0.5715  0.2148  0.3959
12810TIP3    H159845   5.736   2.089  12.923 -0.1567 -2.4382  1.6121
12810TIP3    H259846   5.796   2.105  13.061  0.5565  1.6716  0.9397
12811TIP3   OH259847   4.038   4.465   1.292  0.0915 -0.2119 -0.2002
12811TIP3    H159848   4.085   4.398   1.244  0.8613 -0.5519  0.9848
12811TIP3    H259849   3.950   4.465   1.254  0.0885 -1.8697 -0.2319
12812TIP3   OH259850   3.098   5.051   1.433  0.5799  0.4138  0.4799
12812TIP3    H159851   3.140   5.088   1.356  0.9309 -0.0523  0.4415
12812TIP3    H259852   3.083   4.959   1.411 -1.7955  0.8713 -0.0565
12813TIP3   OH259853   5.723   0.451   2.590 -0.0441 -0.1405 -0.4614
12813TIP3    H159854   5.785   0.381   2.610  0.2960 -0.2328 -1.7452
12813TIP3    H259855   5.638   0.414   2.612  0.1163 -1.0326 -1.2742
12814TIP3   OH259856   6.437   0.306  11.575  0.4911 -0.3748 -0.0141
12814TIP3    H159857   6.429   0.229  11.518  2.1428  1.3729 -2.8824
12814TIP3    H259858   6.348   0.339  11.583 -0.1398 -2.1325  0.6762
12815TIP3   OH259859   2.079   4.493  12.224  0.0873 -0.5845 -0.1736
12815TIP3    H159860   2.083   4.493  12.319 -1.2522 -0.2619 -0.0935
12815TIP3    H259861   2.077   4.585  12.200  1.6806 -0.6415 -0.6052
12816TIP3   OH259862   4.496   1.356  13.182  0.1984 -0.0415 -0.4144
12816TIP3    H159863   4.459   1.442  13.201  2.1149  0.8881 -0.6776
12816TIP3    H259864   4.549   1.370  13.103 -1.0793 -1.9463 -1.6926
12817TIP3   OH259865   0.382   0.484   1.745  0.2782 -0.2377  0.4138
12817TIP3    H159866   0.368   0.514   1.835 -0.7334 -1.3741  0.6594
12817TIP3    H259867   0.452   0.540   1.712 -0.4439  1.2885  1.3584
12818TIP3   OH259868   6.625   0.051   4.526 -0.1677 -0.3928  0.3059
12818TIP3    H159869   6.597   0.083   4.440  0.8380 -0.5547 -0.0951
12818TIP3    H259870   6.716   0.024   4.513  0.2790  0.3692  1.6227
12819TIP3   OH259871   5.151   2.783   1.782 -0.0992 -0.2311  0.0860
12819TIP3    H159872   5.089   2.818   1.719 -0.1342  0.4870  0.5078
12819TIP3    H259873   5.235   2.783   1.736  0.5020  3.1259  0.9156
12820TIP3   OH259874   4.160   1.243   0.182 -0.0445  0.4639 -0.2739
12820TIP3    H159875   4.089   1.230   0.245 -1.4163 -0.2288 -1.8809
12820TIP3    H259876   4.187   1.334   0.195  0.9601 -0.1365  2.4834
12821TIP3   OH259877   2.542   4.267  16.811  0.7138  0.0770 -0.0829
12821TIP3    H159878   2.501   4.260  16.897 -1.2414 -1.3099 -1.0528
12821TIP3    H259879   2.579   4.356  16.810 -0.9047  0.8430  1.4689
12822TIP3   OH259880   1.647   2.469  16.164  0.2474  0.4608 -0.3824
12822TIP3    H159881   1.630   2.431  16.078 -3.7853  0.0136  0.4020
12822TIP3    H259882   1.709   2.408  16.205 -0.2986 -1.1462 -1.8138
12823TIP3   OH259883   5.056   6.286   4.216  0.3616 -0.7512  0.0364
12823TIP3    H159884   5.069   6.192   4.225  0.7067 -0.5843  1.4522
12823TIP3    H259885   5.139   6.325   4.245 -0.3069  0.0329  0.9441
12824TIP3   OH259886   6.128   4.163   0.678 -0.1246 -0.5567  0.1509
12824TIP3    H159887   6.050   4.110   0.689  0.0620 -1.1150 -1.0527
12824TIP3    H259888   6.100   4.237   0.625  0.1784 -0.8477 -0.4325
12825TIP3   OH259889   3.409   6.642   3.793  0.0891 -0.5518 -0.4266
12825TIP3    H159890   3.470   6.587   3.745 -1.4747 -2.8590  0.0576
12825TIP3    H259891   3.354   6.580   3.842 -2.2793  1.3995 -0.4268
12826TIP3   OH259892   4.608   3.730   0.071  0.5083  0.2549 -0.0997
12826TIP3    H159893   4.581   3.729  -0.020  2.2258 -0.9904 -0.6491
12826TIP3    H259894   4.648   3.817   0.083 -1.6720  1.2996  0.1605
12827TIP3   OH259895   2.710   3.064  11.928 -0.0922 -0.5908  0.9382
12827TIP3    H159896   2.740   3.072  11.838 -0.1411  0.0160  0.9767
12827TIP3    H259897   2.723   2.971  11.949  1.9469 -0.3318  1.0071
12828TIP3   OH259898   5.060   3.499  11.273 -0.0940 -1.3750 -0.4747
12828TIP3    H159899   5.025   3.471  11.189  0.5940  0.4889 -1.4211
12828TIP3    H259900   5.126   3.433  11.295  0.3313 -1.4278 -1.8334
12829TIP3   OH259901   3.312   0.541   5.746 -0.0681  0.8147  0.3013
12829TIP3    H159902   3.259   0.563   5.670 -2.3648  0.9406  1.8531
12829TIP3    H259903   3.360   0.621   5.766 -2.3103  2.0327  1.1615
12830TIP3   OH259904   5.223   3.808   2.055  0.7519  0.4680  0.2350
12830TIP3    H159905   5.298   3.795   1.997 -0.2589  0.0025 -1.0189
12830TIP3    H259906   5.262   3.821   2.142  2.2481 -0.6341 -0.2236
12831TIP3   OH259907   0.332   1.064   2.840  0.1932  0.3496 -0.0117
12831TIP3    H159908   0.424   1.040   2.830  0.0216 -0.6582  0.5907
12831TIP3    H259909   0.333   1.149   2.883  0.8378  0.7635 -0.8181
12832TIP3   OH259910   3.176   3.707  16.773 -0.2470  0.0731 -0.1710
12832TIP3    H159911   3.110   3.676  16.834  0.6934 -1.8790 -0.0864
12832TIP3    H259912   3.172   3.646  16.700  1.0185  0.3059 -0.4664
12833TIP3   OH259913   3.828   0.869  17.021 -0.6846 -0.0931 -0.1297
12833TIP3    H159914   3.775   0.903  17.093 -0.2362 -0.3369  0.3157
12833TIP3    H259915   3.764   0.833  16.959 -1.0310 -0.5141  0.4704
12834TIP3   OH259916   4.614   4.430   2.563  0.4100  0.3017 -0.3493
12834TIP3    H159917   4.658   4.355   2.523  1.7025  1.6601 -1.5602
12834TIP3    H259918   4.588   4.399   2.650  0.5119 -1.6738 -0.9833
12835TIP3   OH259919   3.119   1.680  16.192  0.3791 -0.1540  0.3728
12835TIP3    H159920   3.067   1.600  16.179 -0.5214  0.5492 -0.5756
12835TIP3    H259921   3.158   1.670  16.278 -1.1460 -0.8358  1.0205
12836TIP3   OH259922   4.096   2.077   4.789 -0.4064 -0.1192 -0.4755
12836TIP3    H159923   4.183   2.106   4.815 -0.3908 -0.4152 -0.1912
12836TIP3    H259924   4.048   2.067   4.871  0.3995 -3.5220 -0.2833
12837TIP3   OH259925   2.639   0.567  11.519 -0.1083  0.3159  0.1656
12837TIP3    H159926   2.718   0.619  11.533  1.1434 -1.5914  0.5483
12837TIP3    H259927   2.664   0.501  11.455 -1.4483 -0.2637  0.2014
12838TIP3   OH259928   2.288   1.116   3.995  0.5679  0.2511 -0.4624
12838TIP3    H159929   2.273   1.200   4.038 -4.9554  1.1724 -3.2784
12838TIP3    H259930   2.297   1.138   3.903  0.5858 -2.1580 -1.0938
12839TIP3   OH259931   4.353   0.389  12.869 -0.4934  0.1745 -0.2464
12839TIP3    H159932   4.293   0.315  12.864  0.8937 -1.0076 -0.2808
12839TIP3    H259933   4.297   0.466  12.862 -1.8306 -0.8716 -2.0433
12840TIP3   OH259934   4.753   1.672   5.366 -0.5942 -0.4729  0.0375
12840TIP3    H159935   4.772   1.746   5.424 -1.7523  1.9832 -2.4935
12840TIP3    H259936   4.663   1.647   5.387 -0.7439 -0.1038 -0.1544
12841TIP3   OH259937   3.309   4.682  16.835  0.0439 -0.1638 -0.1598
12841TIP3    H159938   3.369   4.705  16.905  1.4774 -1.6175 -0.8430
12841TIP3    H259939   3.356   4.704  16.754 -1.2941  0.8437 -0.6944
12842TIP3   OH259940   4.110   5.481   5.409 -0.6328  0.3123  0.1323
12842TIP3    H159941   4.042   5.441   5.462 -1.3043  1.1618 -0.0589
12842TIP3    H259942   4.184   5.420   5.414 -1.2315 -0.3810  0.7420
12843TIP3   OH259943   2.780   5.528  13.574 -0.3916  0.0679  0.0065
12843TIP3    H159944   2.791   5.450  13.519  0.6028  0.1925  0.0247
12843TIP3    H259945   2.702   5.509  13.626 -2.3575  0.5700 -2.4944
12844TIP3   OH259946   2.153   2.822  16.073 -0.5377  0.6627  0.2971
12844TIP3    H159947   2.120   2.888  16.012  1.0767  1.2854  0.0370
12844TIP3    H259948   2.225   2.781  16.026  0.1011  0.4802  1.4149
12845TIP3   OH259949   0.110   3.719   1.914 -0.4872  0.1859 -0.5035
12845TIP3    H159950   0.061   3.801   1.916 -0.2667  0.3090  1.2164
12845TIP3    H259951   0.045   3.651   1.898 -0.8437  0.5808 -0.7284
12846TIP3   OH259952   4.348   2.205   4.972  0.1254 -0.3112 -0.3352
12846TIP3    H159953   4.262   2.243   4.956 -0.0410 -0.9168 -0.9410
12846TIP3    H259954   4.407   2.256   4.916  0.1521  0.0563  0.0248
12847TIP3   OH259955   1.880   3.507   2.701  0.1320  0.1468  0.3813
12847TIP3    H159956   1.886   3.466   2.787  2.0488  1.5337  0.9910
12847TIP3    H259957   1.923   3.445   2.642  0.4068 -0.0297  0.7610
12848TIP3   OH259958   6.061   6.464   1.795  0.6228 -0.2624 -0.1052
12848TIP3    H159959   6.006   6.509   1.731  0.2349  0.2562  0.5761
12848TIP3    H259960   6.010   6.466   1.876  1.6108  0.1927  0.5327
12849TIP3   OH259961   2.125   4.922  15.376 -0.6012 -0.8981  0.0214
12849TIP3    H159962   2.139   4.883  15.289  1.5684 -1.1126  0.4082
12849TIP3    H259963   2.086   5.007  15.358 -2.0098 -1.7174 -1.0384
12850TIP3   OH259964   5.706   3.677   1.692  0.2752  0.0428  0.3304
12850TIP3    H159965   5.746   3.591   1.700  1.0084  0.4393  1.2170
12850TIP3    H259966   5.658   3.674   1.609 -1.2831 -1.8277  1.2261
12851TIP3   OH259967   4.193   1.920  12.368 -0.0457  0.5201 -0.4777
12851TIP3    H159968   4.157   1.977  12.300  1.1119  1.7637 -0.1049
12851TIP3    H259969   4.162   1.958  12.450  1.3331  1.1064 -0.1927
12852TIP3   OH259970   4.143   6.010  13.845  0.4130 -0.1955 -0.9341
12852TIP3    H159971   4.109   6.061  13.772 -0.8313  0.9219  0.3408
12852TIP3    H259972   4.098   6.046  13.922  0.4289 -2.4081  0.1920
12853TIP3   OH259973   4.905   3.012  12.084  0.0941  0.5433  0.4158
12853TIP3    H159974   4.962   3.001  12.161  0.5965  0.3519  0.0274
12853TIP3    H259975   4.860   3.094  12.099  3.4265  2.8847 -1.0931
12854TIP3   OH259976   6.083   1.891   2.764  0.4691  0.2924 -0.9001
12854TIP3    H159977   6.032   1.811   2.761 -0.5148  0.8478  0.3205
12854TIP3    H259978   6.174   1.861   2.774 -0.0196 -0.6824  1.1309
12855TIP3   OH259979   0.702   6.684   1.287 -0.2687 -0.8909  0.2019
12855TIP3    H159980   0.797   6.675   1.272 -0.3305 -0.4823 -0.4923
12855TIP3    H259981   0.676   6.756   1.229 -0.6599  0.3764  1.8760
12856TIP3   OH259982   4.880   5.674   5.193 -0.3799  0.1213  0.3304
12856TIP3    H159983   4.884   5.751   5.251  0.3714 -0.0274  0.4972
12856TIP3    H259984   4.961   5.626   5.213 -0.2765 -0.1085 -0.6073
12857TIP3   OH259985   1.075   6.582  16.112  0.4692  0.3241 -0.3563
12857TIP3    H159986   1.062   6.574  16.207 -0.6788 -2.0435 -0.6497
12857TIP3    H259987   1.170   6.577  16.101  0.5737 -0.0795  0.6147
12858TIP3   OH259988   6.676   6.089   3.552 -0.1700  0.2044 -0.5696
12858TIP3    H159989   6.628   6.068   3.632  0.0320  0.9605 -0.2357
12858TIP3    H259990   6.610   6.087   3.483 -0.5128  0.3660 -0.2510
12859TIP3   OH259991   0.780   6.569   6.452 -0.2034 -0.4231 -0.7119
12859TIP3    H159992   0.689   6.541   6.461  0.0247 -0.8415  0.4163
12859TIP3    H259993   0.782   6.616   6.368 -2.0640  1.9704  0.4579
12860TIP3   OH259994   4.434   1.640  15.872  0.4692  0.1150  0.2612
12860TIP3    H159995   4.350   1.614  15.910  0.2603 -0.1126 -0.3552
12860TIP3    H259996   4.441   1.734  15.894  0.0939  0.1182  0.3797
12861TIP3   OH259997   5.257   1.717  15.050 -0.4457 -0.3078  0.0310
12861TIP3    H159998   5.295   1.766  15.123 -0.7002 -1.3164  0.8618
12861TIP3    H259999   5.269   1.774  14.974  1.3090  0.0837  0.5522
12862TIP3   OH260000   2.867   0.035   5.391  0.0165  0.7823  0.2205
12862TIP3    H160001   2.881  -0.023   5.465 -2.7484 -1.7791 -1.0584
12862TIP3    H260002   2.782   0.077   5.409  0.4357  1.9723 -0.4265
12863TIP3   OH260003   3.480   5.315   0.813 -0.2798  0.3239  0.3467
12863TIP3    H160004   3.468   5.223   0.792  2.0681  0.0636 -0.1230
12863TIP3    H260005   3.569   5.335   0.784 -1.2351  3.1480 -0.9962
12864TIP3   OH260006   1.180   0.534  15.461 -0.1219  0.0373 -0.8719
12864TIP3    H160007   1.202   0.627  15.470  0.9732 -0.3214  0.2705
12864TIP3    H260008   1.094   0.526  15.503  0.2087  0.3524 -0.1360
12865TIP3   OH260009   5.275   2.246   3.595  0.4304  0.1664  0.3758
12865TIP3    H160010   5.350   2.297   3.563  0.0261  0.1070 -0.6777
12865TIP3    H260011   5.314   2.164   3.627  1.2449  1.4890  3.1473
12866TIP3   OH260012   1.572   2.518   1.525 -0.0289  0.4137  0.7626
12866TIP3    H160013   1.506   2.526   1.456 -0.6270  0.6297  1.3446
12866TIP3    H260014   1.618   2.437   1.505 -0.3842  0.3271  0.2702
12867TIP3   OH260015   6.205   6.199   5.894 -0.1311 -0.5612 -0.2215
12867TIP3    H160016   6.176   6.136   5.827 -0.4725 -0.7453  0.0982
12867TIP3    H260017   6.125   6.229   5.936  0.0453 -0.0505 -0.2391
12868TIP3   OH260018   0.402   5.539   3.557 -0.2690 -0.3440 -0.1753
12868TIP3    H160019   0.413   5.453   3.597  0.5058  0.5195  1.5624
12868TIP3    H260020   0.455   5.534   3.477 -1.1888 -1.8391 -0.7384
12869TIP3   OH260021   0.710   3.615   4.589  0.3078  0.4728 -0.1830
12869TIP3    H160022   0.767   3.560   4.535  0.0167 -2.3176  2.1158
12869TIP3    H260023   0.627   3.615   4.543  0.0271 -1.9489  0.2052
12870TIP3   OH260024   6.335   1.862  12.119  0.1921 -0.1720 -0.0760
12870TIP3    H160025   6.356   1.780  12.163  0.8909 -0.9063 -1.7035
12870TIP3    H260026   6.406   1.875  12.056 -0.7656  0.8176 -0.9981
12871TIP3   OH260027   1.939   6.030   0.703 -0.9552  0.1752 -0.6380
12871TIP3    H160028   1.941   5.938   0.728  0.5220  0.7284  1.6096
12871TIP3    H260029   1.848   6.057   0.717 -0.9060 -0.4075  1.0026
12872TIP3   OH260030   5.690   6.074   4.411 -0.7392 -0.2355 -0.8659
12872TIP3    H160031   5.764   6.016   4.395 -2.0303 -1.5483 -2.3724
12872TIP3    H260032   5.680   6.124   4.330 -1.3613  0.0946 -0.5977
12873TIP3   OH260033   4.785   2.924  15.448 -0.0634 -0.3249 -0.0461
12873TIP3    H160034   4.865   2.954  15.406  0.4191 -0.2124  0.9309
12873TIP3    H260035   4.814   2.857  15.509 -0.8839 -1.2980 -0.6822
12874TIP3   OH260036   1.598   1.780  11.584  0.1901  0.1813 -0.1737
12874TIP3    H160037   1.691   1.799  11.589  0.4003 -0.9038  3.6542
12874TIP3    H260038   1.567   1.831  11.509  3.2741  3.1687  0.3126
12875TIP3   OH260039   2.728   2.011  10.537 -0.2532  0.0855 -0.1544
12875TIP3    H160040   2.694   1.925  10.513  0.8057 -0.3674 -0.1099
12875TIP3    H260041   2.822   1.997  10.548 -0.1898  1.0668  0.6975
12876TIP3   OH260042   5.843   3.746  13.646 -0.2648  0.0704 -0.2096
12876TIP3    H160043   5.840   3.770  13.739  1.0844  0.4690 -0.2569
12876TIP3    H260044   5.865   3.653  13.647 -2.6126 -0.5557 -0.1060
12877TIP3   OH260045   1.050   1.384   6.090 -0.0986 -0.1510 -0.0835
12877TIP3    H160046   1.046   1.291   6.111  0.2067 -0.1072  0.1834
12877TIP3    H260047   1.074   1.426   6.173 -1.8887  0.3489  0.2259
12878TIP3   OH260048   3.300   4.626   1.225  0.1858  0.2281 -0.0318
12878TIP3    H160049   3.249   4.636   1.144  4.2777 -1.6466 -3.2115
12878TIP3    H260050   3.310   4.531   1.235  1.7667  0.5023  1.3100
12879TIP3   OH260051   5.120   1.777   4.490 -0.3722  0.9873  0.6485
12879TIP3    H160052   5.140   1.818   4.573 -0.0762 -1.9560  2.1700
12879TIP3    H260053   5.202   1.739   4.461 -0.5594  1.6272 -0.8400
12880TIP3   OH260054   5.433   2.629  12.847 -0.8743 -0.4545 -0.3443
12880TIP3    H160055   5.373   2.554  12.849  0.5457 -1.6387  1.5015
12880TIP3    H260056   5.520   2.591  12.855  0.1715  1.2461 -2.6126
12881TIP3   OH260057   0.838   2.080  16.734 -0.2549 -0.3013 -0.5441
12881TIP3    H160058   0.815   1.993  16.765  0.8245 -1.3016 -2.3103
12881TIP3    H260059   0.807   2.081  16.643  1.4659  0.3885 -1.1625
12882TIP3   OH260060   2.720   0.666  14.528  0.0977  0.5304  0.3291
12882TIP3    H160061   2.665   0.727  14.478  1.2868  0.5816 -0.9976
12882TIP3    H260062   2.802   0.714  14.542  1.2515 -0.8764 -1.1835
12883TIP3   OH260063   4.563   6.180   4.854  0.0693 -0.7397  0.2031
12883TIP3    H160064   4.602   6.121   4.789 -0.7935 -0.6295 -0.4234
12883TIP3    H260065   4.475   6.147   4.868 -0.9264  1.1261 -1.1679
12884TIP3   OH260066   3.061   5.600  11.964  0.3833  0.2577 -0.4978
12884TIP3    H160067   3.055   5.665  11.894 -0.9954  1.3996  0.6229
12884TIP3    H260068   3.032   5.646  12.043 -0.7038 -1.7235  0.3513
12885TIP3   OH260069   2.066   2.465  16.562 -0.4126  0.3075  0.3859
12885TIP3    H160070   2.005   2.458  16.488  0.1118 -0.7675  0.0363
12885TIP3    H260071   2.103   2.553  16.554 -0.6794  0.3569 -0.3853
12886TIP3   OH260072   5.922   2.353  16.962 -0.2504  0.2612  0.2339
12886TIP3    H160073   5.961   2.413  17.025  0.3606 -1.0237  1.1290
12886TIP3    H260074   5.938   2.394  16.877  0.9106  0.9525  0.7520
12887TIP3   OH260075   0.170   3.015  11.757 -0.0460  0.0627  0.3619
12887TIP3    H160076   0.125   3.090  11.796  1.3599 -0.1169  2.4860
12887TIP3    H260077   0.140   2.940  11.808  2.7456 -0.0236  2.0430
12888TIP3   OH260078   2.333   4.808  12.468 -0.4969  0.2624 -0.0524
12888TIP3    H160079   2.293   4.779  12.549 -0.1858  1.7199  0.6614
12888TIP3    H260080   2.262   4.807  12.404 -1.9777  3.4513  1.3248
12889TIP3   OH260081   0.281   6.575   1.928 -0.5391 -0.1932 -0.3455
12889TIP3    H160082   0.222   6.573   1.853 -0.8242 -2.2739 -0.1134
12889TIP3    H260083   0.360   6.618   1.896 -1.6863  1.5460 -0.9990
12890TIP3   OH260084   0.599   4.904   1.308  0.3758 -0.0401  0.3332
12890TIP3    H160085   0.660   4.844   1.263 -3.3197 -3.2399 -0.9233
12890TIP3    H260086   0.570   4.964   1.239 -1.6237 -1.8494 -0.5067
12891TIP3   OH260087   4.512   1.650  14.916  0.1580  0.1936 -0.1425
12891TIP3    H160088   4.600   1.685  14.901  0.4502 -1.0988 -1.7974
12891TIP3    H260089   4.522   1.591  14.991  0.7110  0.0840 -0.2969
12892TIP3   OH260090   6.597   1.638   4.722 -0.0035 -0.2879 -0.5027
12892TIP3    H160091   6.554   1.671   4.643  1.9967 -0.1688 -1.6075
12892TIP3    H260092   6.551   1.557   4.742 -0.4409 -0.4174 -1.9251
12893TIP3   OH260093   4.214   6.091   5.881  0.3145  0.0308  0.4636
12893TIP3    H160094   4.181   6.148   5.949 -0.3078  0.9101 -0.5390
12893TIP3    H260095   4.303   6.068   5.910  0.6135  1.5636  0.8780
12894TIP3   OH260096   2.342   6.687  12.301 -0.2778 -0.2531 -0.5650
12894TIP3    H160097   2.273   6.621  12.312 -1.7598  1.1390 -1.1827
12894TIP3    H260098   2.300   6.769  12.324  1.4786  0.5457 -0.0277
12895TIP3   OH260099   1.402   6.627   2.081 -0.0557 -0.3165  0.0894
12895TIP3    H160100   1.356   6.698   2.124  0.3424 -0.1898  0.3152
12895TIP3    H260101   1.378   6.549   2.131  0.4681 -0.1583  0.6003
12896TIP3   OH260102   3.089   2.486  15.449  0.0731  0.5723 -0.0648
12896TIP3    H160103   3.181   2.511  15.439  0.0112  0.0685 -2.3564
12896TIP3    H260104   3.043   2.534  15.381 -1.1130 -0.3983  0.0149
12897TIP3   OH260105   2.816   6.052  15.160 -0.2980  0.0358  0.3887
12897TIP3    H160106   2.838   6.144  15.153 -0.6386  0.0651 -0.3775
12897TIP3    H260107   2.808   6.036  15.254  0.0267  0.7177  0.5361
12898TIP3   OH260108   6.734   4.354  15.879  0.7549  0.7677 -0.2547
12898TIP3    H160109   6.649   4.322  15.848  1.5706 -0.9454 -0.8064
12898TIP3    H260110   6.763   4.414  15.811  0.7194  0.0796 -0.8949
12899TIP3   OH260111   6.218   1.845  12.401 -0.2822 -0.1563  0.0314
12899TIP3    H160112   6.289   1.831  12.340  1.4732 -0.5421  2.0443
12899TIP3    H260113   6.233   1.782  12.471 -1.1871  1.3846  1.7059
12900TIP3   OH260114   1.980   0.392   4.727  0.6035  0.2156 -0.2229
12900TIP3    H160115   1.919   0.415   4.656 -2.0233  0.1304  1.8256
12900TIP3    H260116   2.034   0.323   4.690 -1.4526 -0.6676 -1.8233
12901TIP3   OH260117   6.293   4.081   2.605 -0.0290  0.1353  0.1900
12901TIP3    H160118   6.382   4.093   2.639  0.2396  0.6122 -0.6555
12901TIP3    H260119   6.268   4.167   2.572 -0.4280 -0.2285 -0.4763
12902TIP3   OH260120   4.953   2.397  16.816 -0.7698  0.6789 -0.0464
12902TIP3    H160121   4.945   2.424  16.725  0.0781  2.7500  0.4323
12902TIP3    H260122   4.987   2.308  16.812 -1.7961  0.3382 -1.7474
12903TIP3   OH260123   4.439   4.212  11.666 -0.1710 -0.0198 -0.1426
12903TIP3    H160124   4.380   4.193  11.593 -0.6496  1.0124 -0.0438
12903TIP3    H260125   4.526   4.215  11.626 -0.4645  0.8818 -0.7486
12904TIP3   OH260126   3.557   2.510  14.503  0.3034 -0.0278 -0.1118
12904TIP3    H160127   3.529   2.573  14.436  0.2525  0.6706  0.5544
12904TIP3    H260128   3.611   2.446  14.456  0.2679  0.4546 -0.8132
12905TIP3   OH260129   5.423   2.383   4.903  0.2490  0.4518 -0.6309
12905TIP3    H160130   5.384   2.313   4.850  0.9822 -0.2049 -0.3297
12905TIP3    H260131   5.486   2.425   4.845  1.9862 -1.0938  0.0526
12906TIP3   OH260132   5.880   4.451  12.431 -0.5673  0.2317 -0.1731
12906TIP3    H160133   5.932   4.373  12.410  0.0698  0.5810  0.0619
12906TIP3    H260134   5.814   4.420  12.493 -0.0786 -0.0534  0.2175
12907TIP3   OH260135   1.313   2.175   4.199 -0.0981  0.4516  0.4949
12907TIP3    H160136   1.386   2.125   4.162 -0.2703  1.4483 -1.3326
12907TIP3    H260137   1.258   2.109   4.243  0.8007 -0.6184  0.0575
12908TIP3   OH260138   2.418   2.467  11.626 -0.1558  0.4643 -0.3335
12908TIP3    H160139   2.469   2.532  11.577 -1.1052  0.4623 -1.3749
12908TIP3    H260140   2.391   2.403  11.559 -1.1199  0.2225  0.2684
12909TIP3   OH260141   1.442   5.508  12.589  0.5705 -0.0838 -0.2254
12909TIP3    H160142   1.435   5.585  12.532 -0.5207 -0.4939 -0.6569
12909TIP3    H260143   1.465   5.545  12.675  1.7167  0.5762 -0.7957
12910TIP3   OH260144   2.233   1.392   0.668 -0.3176  0.2881 -0.4493
12910TIP3    H160145   2.286   1.382   0.747 -0.4511 -0.2862 -0.4268
12910TIP3    H260146   2.198   1.481   0.674 -0.6559  0.1108  0.3507
12911TIP3   OH260147   3.242   0.121   5.000  0.0545  0.2692 -0.2384
12911TIP3    H160148   3.230   0.210   4.968 -1.6485 -0.8360 -3.1331
12911TIP3    H260149   3.176   0.111   5.069 -1.5539  0.5294 -1.6841
12912TIP3   OH260150   2.318   4.133  13.581 -0.0514  0.2055 -0.0402
12912TIP3    H160151   2.225   4.123  13.601 -0.2790  0.7166 -0.7859
12912TIP3    H260152   2.320   4.195  13.508  0.6450 -2.1022 -2.1335
12913TIP3   OH260153   6.066   5.239  13.291 -0.3145  0.4856  0.0137
12913TIP3    H160154   6.034   5.150  13.303 -1.3440  0.4899 -2.2200
12913TIP3    H260155   6.160   5.228  13.273 -0.9368 -0.5556 -3.3124
12914TIP3   OH260156   1.015   3.719  16.780 -0.1720 -0.1724 -0.0516
12914TIP3    H160157   0.948   3.660  16.746  0.0384 -1.4620  1.6415
12914TIP3    H260158   0.969   3.800  16.799 -1.0889 -0.7655  0.3045
12915TIP3   OH260159   4.384   4.343  16.165  0.7575 -0.0563 -0.2869
12915TIP3    H160160   4.384   4.435  16.189 -1.1655 -0.8143  3.1441
12915TIP3    H260161   4.298   4.328  16.127  0.5994 -0.7107  0.3297
12916TIP3   OH260162   4.937   0.350  12.312 -0.4612  0.3897  0.0914
12916TIP3    H160163   4.938   0.319  12.402 -0.3790 -3.1635 -0.9885
12916TIP3    H260164   4.997   0.291  12.265  1.0528  3.3011 -2.0158
12917TIP3   OH260165   1.982   4.800   4.872  0.2498 -0.3430 -0.0708
12917TIP3    H160166   2.028   4.789   4.955  0.5984  1.4845  0.0124
12917TIP3    H260167   2.033   4.866   4.825 -0.4616 -0.6833 -1.3641
12918TIP3   OH260168   1.055   0.632   4.415  0.4681 -0.0919  0.3535
12918TIP3    H160169   1.066   0.547   4.372 -0.5455 -0.5016  0.8568
12918TIP3    H260170   1.097   0.621   4.501  0.3317 -0.0902  0.4213
12919TIP3   OH260171   6.201   0.112   0.216  0.4568  0.1979 -0.7226
12919TIP3    H160172   6.239   0.195   0.189 -0.8209  0.8531 -0.5787
12919TIP3    H260173   6.121   0.103   0.163  1.2404 -1.5863 -1.6992
12920TIP3   OH260174   2.865   4.702  16.382 -0.3268  0.0290  1.0100
12920TIP3    H160175   2.820   4.619  16.367 -1.6190  0.7287  0.8512
12920TIP3    H260176   2.947   4.677  16.425 -0.9964 -1.2815  1.6100
12921TIP3   OH260177   4.009   3.150   0.586 -0.2057  0.0928 -0.5139
12921TIP3    H160178   4.059   3.100   0.652 -0.9364  1.1663  0.9188
12921TIP3    H260179   4.052   3.235   0.584 -0.9194  0.4562 -0.5474
12922TIP3   OH260180   0.975   0.057  13.825 -0.5465  0.2380 -0.3227
12922TIP3    H160181   0.958   0.066  13.918  1.1653  0.0709  0.0369
12922TIP3    H260182   0.922   0.125  13.784 -0.4463  1.0593  0.8781
12923TIP3   OH260183   0.774   1.672  15.085  0.1019  0.1882 -0.4238
12923TIP3    H160184   0.694   1.623  15.101 -0.3354  1.3834  1.2168
12923TIP3    H260185   0.745   1.760  15.063  0.9615  1.0683  1.7684
12924TIP3   OH260186   6.421   4.002   0.743  0.0251  0.1707 -0.4283
12924TIP3    H160187   6.516   3.996   0.736  0.1863  0.0169  1.4075
12924TIP3    H260188   6.406   4.055   0.822 -1.4054 -0.9162  0.0636
12925TIP3   OH260189   5.356   5.926  16.856  0.8146  0.1042  0.0332
12925TIP3    H160190   5.424   5.861  16.838  1.4324  1.0263 -1.0531
12925TIP3    H260191   5.367   5.992  16.788 -0.7817  0.5876  0.2006
12926TIP3   OH260192   2.640   1.689   0.277 -0.4043 -0.0064  0.5254
12926TIP3    H160193   2.611   1.725   0.194 -1.5719 -1.1855  0.3762
12926TIP3    H260194   2.682   1.606   0.254 -0.0352  0.0295  1.0488
12927TIP3   OH260195   5.802   0.377   2.221 -0.6579 -0.6717  0.0790
12927TIP3    H160196   5.711   0.373   2.253 -0.2121 -2.1924  1.2911
12927TIP3    H260197   5.801   0.324   2.142 -0.7470 -1.0479  0.3283
12928TIP3   OH260198   2.293   4.241   6.520 -0.4520  0.3808 -0.0085
12928TIP3    H160199   2.260   4.314   6.467  2.8038  1.0256 -1.4319
12928TIP3    H260200   2.279   4.269   6.611 -1.1559  1.8239 -0.5250
12929TIP3   OH260201   3.171   1.895   2.024  0.3621  0.1182  0.0544
12929TIP3    H160202   3.149   1.804   2.044  0.7937  0.0804  0.3751
12929TIP3    H260203   3.251   1.911   2.073  1.4465  0.0346 -1.6135
12930TIP3   OH260204   1.042   6.251   3.890  0.3789  0.1298 -0.1876
12930TIP3    H160205   1.093   6.330   3.869  1.4274 -1.0096 -2.1761
12930TIP3    H260206   0.951   6.280   3.889  0.7040  1.1904 -1.5852
12931TIP3   OH260207   2.069   3.057  14.936 -0.2431  0.3881  0.4098
12931TIP3    H160208   2.151   3.096  14.906  2.0235 -4.1367 -0.1209
12931TIP3    H260209   2.018   3.044  14.856  1.2584 -2.1026 -0.2694
12932TIP3   OH260210   6.499   3.094   1.933  0.4520 -0.3330  0.3593
12932TIP3    H160211   6.574   3.123   1.881  0.7401 -1.4239  0.1343
12932TIP3    H260212   6.494   3.156   2.005  0.2333  1.0493 -0.7913
12933TIP3   OH260213   2.576   4.646   1.418 -0.0139  1.1435  0.4793
12933TIP3    H160214   2.591   4.562   1.375  2.5586  1.1434  1.2584
12933TIP3    H260215   2.501   4.630   1.477  0.7942 -0.7799  1.0381
12934TIP3   OH260216   0.913   3.232   2.096 -0.3110 -0.1195  0.7584
12934TIP3    H160217   0.977   3.231   2.026 -2.2903 -0.4916 -1.1580
12934TIP3    H260218   0.930   3.153   2.147  1.2906  0.2799  0.8870
12935TIP3   OH260219   1.018   3.171   5.997  0.4307 -0.0021 -0.7871
12935TIP3    H160220   0.955   3.142   6.063  1.7883 -0.1133  0.5467
12935TIP3    H260221   1.076   3.096   5.985  1.6769  0.8162 -0.2059
12936TIP3   OH260222   5.912   2.902  14.367 -0.0546 -0.6674 -0.1054
12936TIP3    H160223   5.939   2.832  14.427 -0.6397 -0.1262  0.8055
12936TIP3    H260224   5.893   2.976  14.424  2.1250  0.7998 -1.1419
12937TIP3   OH260225   3.669   3.772   3.296  0.0615  0.3029  0.3507
12937TIP3    H160226   3.648   3.688   3.337 -0.5117 -0.4173 -1.3107
12937TIP3    H260227   3.718   3.748   3.217  0.0129  1.5375 -0.0681
12938TIP3   OH260228   1.796   3.165  17.158 -0.1752  0.7366 -0.5640
12938TIP3    H160229   1.777   3.165  17.252  1.8921  0.0451 -0.0883
12938TIP3    H260230   1.764   3.080  17.127  0.8268  0.1693 -0.0773
12939TIP3   OH260231   5.721   6.324  17.278 -0.1061 -0.3204  0.0707
12939TIP3    H160232   5.672   6.263  17.333  0.9296 -0.9804  0.2746
12939TIP3    H260233   5.759   6.387  17.339 -1.8168  1.0648 -0.1891
12940TIP3   OH260234   2.929   3.696  14.846  0.5634  0.2366  0.0974
12940TIP3    H160235   2.962   3.728  14.762  1.4846 -1.4142 -0.2183
12940TIP3    H260236   2.914   3.775  14.897 -0.1269  1.2921 -1.6384
12941TIP3   OH260237   5.133   1.741  12.428  0.2463  0.1262 -0.1660
12941TIP3    H160238   5.162   1.734  12.336  2.1705 -1.2185  0.4624
12941TIP3    H260239   5.131   1.835  12.445  0.3612  0.3877 -1.4334
12942TIP3   OH260240   5.911   0.286  12.774 -0.1566 -0.2029 -0.1797
12942TIP3    H160241   5.916   0.266  12.680  0.0661  0.1366 -0.2392
12942TIP3    H260242   5.837   0.233  12.805 -0.6128  0.1404 -0.6652
12943TIP3   OH260243   3.391   6.718   2.858 -0.1156  0.1292  0.7593
12943TIP3    H160244   3.366   6.666   2.782  1.4789  1.7589 -0.9692
12943TIP3    H260245   3.479   6.687   2.881 -0.1164  0.4415  1.2064
12944TIP3   OH260246   4.749   5.464  11.347  0.6293 -0.2772  0.4768
12944TIP3    H160247   4.775   5.392  11.404  2.1163  1.3521  1.9744
12944TIP3    H260248   4.805   5.455  11.269  2.8040  0.7131  1.8251
12945TIP3   OH260249   2.220   3.765   3.785  0.1964 -0.4095  0.1186
12945TIP3    H160250   2.128   3.789   3.789  0.2106 -0.0428 -1.1282
12945TIP3    H260251   2.246   3.749   3.876 -0.9622 -0.0341  0.5254
12946TIP3   OH260252   5.477   2.482  13.626  1.2762 -0.0259  0.0531
12946TIP3    H160253   5.492   2.570  13.659  1.5238 -0.2310  0.4887
12946TIP3    H260254   5.430   2.437  13.697  0.6048 -0.0631 -0.4048
12947TIP3   OH260255   0.070   1.893  15.355 -0.6134  0.4252  0.2667
12947TIP3    H160256   0.039   1.973  15.398 -0.5943 -0.0176  1.1325
12947TIP3    H260257   0.055   1.824  15.420 -1.4205 -0.4192 -0.7687
12948TIP3   OH260258   2.497   6.239  14.993 -0.0020 -0.5672  0.2339
12948TIP3    H160259   2.560   6.237  15.065  1.2205  0.4621 -0.7730
12948TIP3    H260260   2.439   6.312  15.014  0.0432 -0.5824  0.4158
12949TIP3   OH260261   2.081   6.362  16.905  0.0900  0.4413  0.3949
12949TIP3    H160262   2.027   6.306  16.848 -1.4765  0.7735  1.4790
12949TIP3    H260263   2.136   6.412  16.845  0.3195 -1.0360 -0.6809
12950TIP3   OH260264   5.292   5.621   6.296 -0.0649  0.0255  0.6653
12950TIP3    H160265   5.290   5.534   6.257  1.7582  1.2712 -2.5425
12950TIP3    H260266   5.379   5.628   6.334 -0.4668  0.2543  1.5888
12951TIP3   OH260267   0.350   0.062   1.439 -0.0599  0.1839 -0.0952
12951TIP3    H160268   0.369  -0.032   1.438  1.9351  0.5449 -0.9712
12951TIP3    H260269   0.298   0.076   1.360  1.2628  0.0547 -1.0397
12952TIP3   OH260270   5.355   3.766   1.350 -0.0020  0.0319  0.3588
12952TIP3    H160271   5.348   3.860   1.368 -0.7148 -0.0453  0.5293
12952TIP3    H260272   5.447   3.752   1.329  0.1842  0.7074  0.6981
12953TIP3   OH260273   4.598   3.150  11.572  0.3858 -0.5119  0.1978
12953TIP3    H160274   4.612   3.104  11.489 -0.5057 -2.1114  0.8902
12953TIP3    H260275   4.648   3.100  11.636  2.1029  1.4279  0.4880
12954TIP3   OH260276   5.392   6.257  12.509 -0.3602 -0.1176 -0.0460
12954TIP3    H160277   5.297   6.262  12.518 -0.4623 -0.8532 -0.5939
12954TIP3    H260278   5.416   6.180  12.561 -0.2619 -0.8797 -1.1815
12955TIP3   OH260279   1.769   6.088  15.081 -0.6523  0.2454  0.0323
12955TIP3    H160280   1.846   6.119  15.034 -1.1424 -0.0147 -0.9754
12955TIP3    H260281   1.735   6.017  15.027 -1.0499 -0.2807  0.9592
12956TIP3   OH260282   0.940   1.920  17.279  0.7790 -0.9081  0.3136
12956TIP3    H160283   0.904   1.992  17.331  0.8302 -0.7837  0.1763
12956TIP3    H260284   0.929   1.949  17.188  0.0215 -1.4325  0.2296
12957TIP3   OH260285   5.391   2.792   5.803  0.1699  0.1851 -0.4923
12957TIP3    H160286   5.360   2.714   5.758  0.7119  0.3910 -1.2413
12957TIP3    H260287   5.421   2.759   5.888 -0.2946 -0.3040 -0.5111
12958TIP3   OH260288   2.413   0.537  16.182  0.1170  0.1023  0.4012
12958TIP3    H160289   2.505   0.558  16.172 -0.1805  3.3279  2.8801
12958TIP3    H260290   2.366   0.609  16.140 -1.3941 -1.7454 -1.3188
12959TIP3   OH260291   0.005   1.133   3.317  0.6112 -0.1621 -0.5838
12959TIP3    H160292   0.025   1.155   3.226 -0.2428  2.0273 -0.3121
12959TIP3    H260293  -0.091   1.131   3.320  0.6019  0.8582  0.4657
12960TIP3   OH260294   5.286   3.362  12.948 -0.2305 -0.0391  0.4420
12960TIP3    H160295   5.355   3.313  12.905 -0.6281  1.4009 -1.9898
12960TIP3    H260296   5.217   3.297  12.963  0.1329 -0.6981 -0.6407
12961TIP3   OH260297   2.668   5.033  14.439  0.6518 -0.0328 -0.1983
12961TIP3    H160298   2.686   4.983  14.359 -1.3093  1.0128 -1.3700
12961TIP3    H260299   2.745   5.087  14.451  0.3627  0.9849 -2.3823
12962TIP3   OH260300   3.011   1.853  14.228 -0.4482 -0.0511  0.2754
12962TIP3    H160301   3.010   1.898  14.143 -1.7825 -0.6841 -0.0618
12962TIP3    H260302   2.986   1.920  14.291 -0.4282  0.1792  0.0398
12963TIP3   OH260303   4.169   0.410  16.447 -0.2045  0.2555  0.1782
12963TIP3    H160304   4.090   0.424  16.394 -0.6633 -0.1632  0.7366
12963TIP3    H260305   4.136   0.388  16.534  0.5404  2.1820  1.0046
12964TIP3   OH260306   2.161   2.364   1.396  0.0828 -0.0936 -0.3930
12964TIP3    H160307   2.131   2.433   1.337  0.3349  0.0924 -0.3063
12964TIP3    H260308   2.094   2.296   1.390  0.7586 -0.6565 -1.8819
12965TIP3   OH260309   4.317   5.809  13.803 -0.5104  0.3131 -0.3544
12965TIP3    H160310   4.271   5.726  13.810  0.0958  0.0954  1.4310
12965TIP3    H260311   4.249   5.876  13.810 -0.8035 -0.0212  0.0245
12966TIP3   OH260312   1.468   3.699  16.612 -0.1715  0.6153 -0.0409
12966TIP3    H160313   1.552   3.708  16.656 -0.1234  1.1577 -0.2416
12966TIP3    H260314   1.487   3.718  16.520 -0.0040 -1.7137 -0.5642
12967TIP3   OH260315   6.714   0.894   3.061 -0.8935 -0.3821 -0.5934
12967TIP3    H160316   6.694   0.839   3.137 -0.4437 -1.4118 -1.2017
12967TIP3    H260317   6.808   0.880   3.047 -0.6789  0.8879 -0.4962
12968TIP3   OH260318   3.011   5.915  13.513  0.2242  0.1613  0.0023
12968TIP3    H160319   3.021   5.965  13.594 -0.6018 -0.1473  0.3092
12968TIP3    H260320   2.956   5.970  13.457 -0.5546 -0.3160  0.2795
12969TIP3   OH260321   3.642   1.003   4.583 -0.0981  0.4467  0.3870
12969TIP3    H160322   3.655   0.969   4.495  1.2959  0.7476  0.4560
12969TIP3    H260323   3.623   0.926   4.637  0.9159  0.0322  0.1608
12970TIP3   OH260324   1.946   0.954  11.450  0.5404 -0.0463  0.2606
12970TIP3    H160325   1.940   1.045  11.423  0.9524 -0.3550 -0.9454
12970TIP3    H260326   1.919   0.954  11.541  0.0617  1.2044  0.1358
12971TIP3   OH260327   6.630   4.058   2.393  0.6401 -0.5839  0.5515
12971TIP3    H160328   6.551   4.037   2.343  0.2875  0.6508  0.5603
12971TIP3    H260329   6.688   3.984   2.378  1.4590  0.6508 -3.4829
12972TIP3   OH260330   1.367   0.872   5.124  0.1976 -0.2434 -0.4482
12972TIP3    H160331   1.456   0.870   5.160 -0.5814  1.9076  1.8335
12972TIP3    H260332   1.337   0.961   5.139 -1.7432 -0.3913 -2.8545
12973TIP3   OH260333   5.321   1.082   0.934 -0.0749  0.3031 -0.0688
12973TIP3    H160334   5.344   1.130   1.014 -0.2345 -0.2084  0.2918
12973TIP3    H260335   5.353   0.994   0.949  0.1726  0.2827 -0.7083
12974TIP3   OH260336   3.596   6.006   3.186 -0.4655  0.1032  0.0342
12974TIP3    H160337   3.662   6.017   3.118  0.3449  2.0258  1.0524
12974TIP3    H260338   3.646   5.991   3.266 -1.3748 -1.4161  0.3590
12975TIP3   OH260339   3.559   2.980  12.280  0.0827 -0.4402 -0.0381
12975TIP3    H160340   3.652   2.965  12.295  0.0523  0.3920  1.0875
12975TIP3    H260341   3.554   3.008  12.189  0.8312 -1.2501 -0.3415
12976TIP3   OH260342   3.767   2.213   0.843 -0.2030  0.0546  0.3032
12976TIP3    H160343   3.827   2.287   0.859 -0.3939  0.2848 -0.0384
12976TIP3    H260344   3.717   2.205   0.925 -0.3324  0.4458  0.2643
12977TIP3   OH260345   2.570   4.855   0.379  0.1982  0.4410  0.5820
12977TIP3    H160346   2.615   4.848   0.463  0.4982  2.5518  0.6709
12977TIP3    H260347   2.526   4.940   0.384 -0.2164  0.3546 -1.1820
12978TIP3   OH260348   1.249   0.068   5.394  0.5824  0.0243  0.1688
12978TIP3    H160349   1.222   0.037   5.481  0.1599 -2.1328 -0.6560
12978TIP3    H260350   1.168   0.074   5.344  0.9159  0.3177 -0.3466
12979TIP3   OH260351   2.363   1.783   1.434  0.1961  0.0665  0.1652
12979TIP3    H160352   2.357   1.878   1.442 -2.0529 -0.1043  1.2535
12979TIP3    H260353   2.272   1.754   1.426  0.8879 -1.9258 -1.3180
12980TIP3   OH260354   2.333   6.387  10.904 -0.1710 -0.5436 -0.4327
12980TIP3    H160355   2.395   6.416  10.971 -0.5612 -1.3183  0.2795
12980TIP3    H260356   2.352   6.294  10.893  2.1563  0.1391 -3.8521
12981TIP3   OH260357   0.448   5.622   1.677  0.3201 -0.3537 -0.1978
12981TIP3    H160358   0.374   5.656   1.728  2.2722  1.3143  1.7337
12981TIP3    H260359   0.445   5.527   1.691  0.0841 -0.0616  2.1597
12982TIP3   OH260360   3.100   1.846   6.690 -0.4853 -0.6458  0.0645
12982TIP3    H160361   3.195   1.853   6.698 -0.5413  1.6110 -0.4177
12982TIP3    H260362   3.081   1.754   6.704  1.5809 -0.8379  2.2495
12983TIP3   OH260363   2.160   1.105   5.160 -0.0999 -0.0608  0.4948
12983TIP3    H160364   2.210   1.156   5.224  0.9568  0.6092 -0.8070
12983TIP3    H260365   2.074   1.147   5.157  0.1123  0.4035  0.8864
12984TIP3   OH260366   3.242   5.252   5.823 -0.7987 -0.6893 -0.2241
12984TIP3    H160367   3.245   5.158   5.840 -0.0337 -0.5303  0.6208
12984TIP3    H260368   3.183   5.287   5.891 -1.5077 -0.6123 -0.8627
12985TIP3   OH260369   2.963   2.930  13.861  0.8578  0.0927  0.1880
12985TIP3    H160370   3.017   3.000  13.897  0.7750 -0.2473  1.0014
12985TIP3    H260371   2.878   2.972  13.845  2.0881  1.4966 -4.0957
12986TIP3   OH260372   1.399   5.931  17.105  0.1333 -0.7071  0.2823
12986TIP3    H160373   1.413   5.938  17.010  1.9853 -0.3391  0.5474
12986TIP3    H260374   1.465   5.988  17.143 -0.6233 -0.8095  1.8114
12987TIP3   OH260375   6.428   3.092  11.202  0.6312  0.0031  0.1455
12987TIP3    H160376   6.495   3.118  11.139  1.2616 -3.3744 -0.7833
12987TIP3    H260377   6.381   3.020  11.159 -3.2627  1.7572  1.0189
12988TIP3   OH260378   0.812   1.333   2.312 -0.6204 -0.1678 -0.2591
12988TIP3    H160379   0.765   1.415   2.327  0.3654  0.2430  0.7874
12988TIP3    H260380   0.890   1.340   2.368 -1.0654 -2.3107  0.7318
12989TIP3   OH260381   4.791   5.984  13.978  0.1076  0.1531 -0.2703
12989TIP3    H160382   4.850   6.058  13.963  0.7862 -0.3997 -0.3892
12989TIP3    H260383   4.802   5.929  13.901  0.4712 -0.6323  0.3201
12990TIP3   OH260384   5.289   3.624   3.412 -0.5178 -0.4275 -0.3282
12990TIP3    H160385   5.255   3.701   3.457  0.7713  0.6448 -1.1031
12990TIP3    H260386   5.317   3.566   3.482 -0.6991  0.1986  0.2772
12991TIP3   OH260387   1.122   3.334   1.781  0.0909 -0.2621  0.6271
12991TIP3    H160388   1.180   3.268   1.746 -0.2419  0.0286 -0.5135
12991TIP3    H260389   1.041   3.287   1.801  0.0098 -0.2837  0.2481
12992TIP3   OH260390   1.378   0.947   3.742 -0.5384  0.2586  0.3045
12992TIP3    H160391   1.447   0.987   3.796 -0.5181  0.7333 -0.0652
12992TIP3    H260392   1.368   0.859   3.778  0.2286  0.1979  0.4000
12993TIP3   OH260393   3.946   1.995   5.833  0.6494  0.2197  0.2967
12993TIP3    H160394   3.896   1.970   5.911 -0.0441  0.3420 -0.1034
12993TIP3    H260395   3.881   2.034   5.774  1.3273  0.9539  0.0189
12994TIP3   OH260396   6.588   5.572  15.995 -0.0071  0.0039 -0.5727
12994TIP3    H160397   6.548   5.626  16.063 -3.0270 -0.6389 -1.6779
12994TIP3    H260398   6.650   5.630  15.952  0.6199  0.9668  1.4950
12995TIP3   OH260399   2.340   4.748  15.578 -0.4034  0.0153  0.4617
12995TIP3    H160400   2.274   4.753  15.647 -1.1008 -1.7272 -0.0033
12995TIP3    H260401   2.323   4.664  15.536 -0.9046  1.5764 -2.7334
12996TIP3   OH260402   1.546   3.876  17.221 -0.1982 -0.6251 -0.2782
12996TIP3    H160403   1.483   3.932  17.267  0.5834 -0.7196  0.9642
12996TIP3    H260404   1.627   3.928  17.218  0.0586 -1.0343 -0.6338
12997TIP3   OH260405   0.554   1.736  13.461  0.4553  0.1468 -0.1000
12997TIP3    H160406   0.589   1.664  13.514 -1.1779 -0.2741  0.4725
12997TIP3    H260407   0.496   1.783  13.521 -0.2734  0.5647 -1.1189
12998TIP3   OH260408   4.426   2.172   3.515 -0.3988 -0.1969  0.1359
12998TIP3    H160409   4.498   2.172   3.452 -0.6310  1.2604 -0.1811
12998TIP3    H260410   4.352   2.210   3.466 -0.4932  1.2799  1.3647
12999TIP3   OH260411   3.805   5.668  14.233  0.2918  0.4268  0.0478
12999TIP3    H160412   3.788   5.748  14.283  0.3313 -0.1009  0.9343
12999TIP3    H260413   3.900   5.662  14.230  0.2864  0.1699  0.3842
13000TIP3   OH260414   0.209   5.641  16.209  0.0912 -0.4172 -0.2261
13000TIP3    H160415   0.196   5.546  16.207  1.2181 -0.5704 -1.2204
13000TIP3    H260416   0.170   5.668  16.292  0.3953 -1.8482  0.4201
13001TIP3   OH260417   1.182   6.300  16.608 -0.6975 -0.1159 -0.1519
13001TIP3    H160418   1.125   6.284  16.683 -0.2440 -1.3676 -0.0519
13001TIP3    H260419   1.241   6.225  16.606 -0.2091  0.2740 -1.3158
13002TIP3   OH260420   0.488   4.701  16.222 -0.0295 -0.4073  0.1920
13002TIP3    H160421   0.427   4.738  16.159 -2.9427 -2.2993  1.6731
13002TIP3    H260422   0.485   4.760  16.298  0.9570  0.1227 -0.1613
13003TIP3   OH260423   1.282   6.579  13.558 -0.2117 -0.4505 -0.4080
13003TIP3    H160424   1.359   6.536  13.596  1.6603  1.8737 -1.3077
13003TIP3    H260425   1.221   6.586  13.631  1.4113 -0.2108  0.9970
13004TIP3   OH260426   0.052   0.494   5.011  0.3154  0.1382 -0.3901
13004TIP3    H160427   0.069   0.432   5.083 -0.3685  1.8489  1.3177
13004TIP3    H260428   0.136   0.501   4.966  0.8720 -0.6657  0.4755
13005TIP3   OH260429   6.113   0.783   2.862  0.1874 -0.2203 -0.3355
13005TIP3    H160430   6.031   0.735   2.849 -0.7103  1.3528 -0.6935
13005TIP3    H260431   6.126   0.830   2.780 -0.2133  1.9441  0.7676
13006TIP3   OH260432   4.128   2.885   1.851 -0.3010  0.3722 -0.6000
13006TIP3    H160433   4.217   2.861   1.824 -0.1292 -0.5569  0.7071
13006TIP3    H260434   4.109   2.965   1.802  0.8580  0.0330 -1.6712
13007TIP3   OH260435   0.508   6.303   5.640  0.0682 -0.2752 -0.2739
13007TIP3    H160436   0.504   6.282   5.734  1.1741 -0.4242 -0.2542
13007TIP3    H260437   0.574   6.371   5.633 -0.6147  0.3451 -0.8595
13008TIP3   OH260438   4.988   3.742  11.420  0.3725  1.1926  0.0800
13008TIP3    H160439   4.893   3.746  11.428  0.5016  1.0721  1.9455
13008TIP3    H260440   5.005   3.658  11.377 -0.2727 -0.0342  2.1192
13009TIP3   OH260441   5.958   5.705  14.126 -0.4221  0.4891 -0.1029
13009TIP3    H160442   5.926   5.737  14.041  0.5439  1.0958 -0.2504
13009TIP3    H260443   5.971   5.611  14.112  0.0164  0.6352 -0.7280
13010TIP3   OH260444   0.658   2.731   1.270 -0.5352  0.2026 -0.6518
13010TIP3    H160445   0.665   2.712   1.363  0.5827 -0.4912 -0.8683
13010TIP3    H260446   0.575   2.779   1.262 -1.3615 -0.9538  0.4924
13011TIP3   OH260447   6.362   1.868   5.465  0.0559 -0.3589  0.4760
13011TIP3    H160448   6.353   1.885   5.559  0.8952 -3.6761  1.3091
13011TIP3    H260449   6.456   1.876   5.448 -0.1435  0.6791 -0.2329
13012TIP3   OH260450   3.703   5.923  13.566  0.3465  0.1307  0.2361
13012TIP3    H160451   3.650   5.864  13.513  0.6466 -1.2295  1.3962
13012TIP3    H260452   3.641   5.962  13.628  0.6854 -1.8244  1.9128
13013TIP3   OH260453   4.811   3.306   0.193  0.0108  0.6103  0.1396
13013TIP3    H160454   4.752   3.333   0.263 -2.7407 -1.5988 -1.1497
13013TIP3    H260455   4.778   3.352   0.115 -1.6570 -2.2980 -1.0579
13014TIP3   OH260456   4.514   4.782   5.297 -0.0267  0.2913 -0.2738
13014TIP3    H160457   4.435   4.808   5.343  0.9956  1.0349  1.1224
13014TIP3    H260458   4.483   4.758   5.209 -1.8011  0.4134  0.2749
13015TIP3   OH260459   6.746   4.618   2.725  0.1013  0.5848  0.3070
13015TIP3    H160460   6.759   4.629   2.630  0.0833 -0.6692  0.1522
13015TIP3    H260461   6.721   4.527   2.736 -0.2548  0.8076  1.4993
13016TIP3   OH260462   6.695   5.447   5.196  0.0172  0.1547 -0.5261
13016TIP3    H160463   6.683   5.355   5.174  0.8024 -0.0173 -0.2957
13016TIP3    H260464   6.669   5.495   5.117 -3.5175 -0.0344  0.3936
13017TIP3   OH260465   4.542   3.699   5.370 -0.4714  0.4854 -0.2406
13017TIP3    H160466   4.563   3.617   5.327  0.0264  1.1832 -1.3749
13017TIP3    H260467   4.586   3.766   5.317  0.0310  1.3968  1.2467
13018TIP3   OH260468   4.155   2.917   5.928 -0.3795 -0.7022 -0.4479
13018TIP3    H160469   4.077   2.961   5.893 -0.1590  1.9927  1.9671
13018TIP3    H260470   4.228   2.952   5.877 -0.4078  0.1687  0.0850
13019TIP3   OH260471   5.409   0.243   3.917 -0.0130  0.1033 -0.1765
13019TIP3    H160472   5.438   0.316   3.972  0.3753 -0.1206 -0.0851
13019TIP3    H260473   5.437   0.165   3.964 -0.5057 -0.1099 -0.2315
13020TIP3   OH260474   2.814   2.126   2.570 -0.4532  0.2297  0.3872
13020TIP3    H160475   2.883   2.092   2.513 -1.6144 -0.3476 -0.7267
13020TIP3    H260476   2.846   2.212   2.597  0.3357  0.3306 -0.7880
13021TIP3   OH260477   1.993   3.416  17.330 -0.1241  0.2091 -0.5664
13021TIP3    H160478   1.938   3.339  17.340  2.1641 -1.4521  0.0526
13021TIP3    H260479   2.022   3.436  17.419 -0.4930  1.6655 -0.7537
13022TIP3   OH260480   4.448   2.753  17.384 -0.8028 -0.7148 -0.7367
13022TIP3    H160481   4.470   2.787  17.297  0.5102 -0.3530 -0.2844
13022TIP3    H260482   4.416   2.829  17.432  0.6870 -0.3824 -0.2033
13023TIP3   OH260483   5.137   5.805  14.206 -0.1602  0.2933 -0.1592
13023TIP3    H160484   5.230   5.803  14.186  0.3002  1.1623  1.6855
13023TIP3    H260485   5.123   5.890  14.247 -1.2036 -0.8238  1.9753
13024TIP3   OH260486   3.919   5.663  17.257 -0.2297 -0.1189  0.0131
13024TIP3    H160487   3.944   5.655  17.165 -0.4412  0.7798 -0.1312
13024TIP3    H260488   3.938   5.754  17.280 -0.3819 -0.2713  0.8004
13025TIP3   OH260489   4.535   3.793   4.449  0.9109  0.2883  0.6968
13025TIP3    H160490   4.464   3.854   4.469  0.9995  0.8803 -0.6822
13025TIP3    H260491   4.499   3.707   4.470  0.3204  0.6916  1.4084
13026TIP3   OH260492   2.668   3.510   5.466  0.4720  0.3622 -0.3294
13026TIP3    H160493   2.573   3.512   5.457  0.2934 -0.8370  0.8566
13026TIP3    H260494   2.697   3.451   5.397  0.0829 -1.1053  0.6933
13027TIP3   OH260495   1.506   2.757   5.139  0.2248  0.3498  0.4398
13027TIP3    H160496   1.501   2.697   5.214  1.9075 -0.7803 -0.3040
13027TIP3    H260497   1.594   2.794   5.144 -0.3794  1.9131  0.1965
13028TIP3   OH260498   0.258   2.508  14.731 -0.5205  0.1437  0.4380
13028TIP3    H160499   0.288   2.418  14.718  1.4947  1.0344 -1.7066
13028TIP3    H260500   0.272   2.524  14.824  1.1361 -1.0799  0.4478
13029TIP3   OH260501   6.160   0.802   4.691  0.4695  0.1066  0.2737
13029TIP3    H160502   6.230   0.842   4.742  1.0614  1.1643 -1.2629
13029TIP3    H260503   6.190   0.809   4.600 -0.0183 -2.6910 -0.1834
13030TIP3   OH260504   5.538   4.712  11.643 -0.5374  0.2168 -0.2407
13030TIP3    H160505   5.552   4.741  11.734  0.2784  1.6604 -0.7892
13030TIP3    H260506   5.624   4.684  11.614 -0.7110  0.1653 -0.7021
13031TIP3   OH260507   5.571   5.219  15.524  0.0827  0.2504 -0.0354
13031TIP3    H160508   5.634   5.191  15.590  0.2846  2.0521  0.5969
13031TIP3    H260509   5.613   5.202  15.440  0.0885 -1.4654  0.2803
13032TIP3   OH260510   4.508   5.818  14.015 -0.6083 -0.5929 -0.8790
13032TIP3    H160511   4.588   5.869  14.029 -0.1030 -1.7793  0.7941
13032TIP3    H260512   4.468   5.858  13.937 -0.2303  2.3052  0.2777
13033TIP3   OH260513   4.857   0.677  13.243  0.4432 -0.3028  0.0782
13033TIP3    H160514   4.920   0.620  13.287  0.3612 -0.1442  0.4108
13033TIP3    H260515   4.812   0.722  13.315 -0.2010 -0.5758 -0.1430
13034TIP3   OH260516   0.332   1.211  16.190 -0.2555  0.3279  0.2805
13034TIP3    H160517   0.355   1.290  16.238  1.1950 -0.8904  1.7075
13034TIP3    H260518   0.262   1.171  16.241 -0.6373  0.4241 -0.1594
13035TIP3   OH260519   0.946   6.535   0.617 -0.2648 -0.2380  0.4496
13035TIP3    H160520   0.872   6.497   0.569 -0.1345 -1.3952  1.1292
13035TIP3    H260521   0.959   6.476   0.691  1.1680  0.1088  0.4912
13036TIP3   OH260522   4.869   2.812  11.922  0.1868  0.0636  0.1077
13036TIP3    H160523   4.964   2.807  11.909  0.0803 -0.0668 -0.6597
13036TIP3    H260524   4.855   2.893  11.971  0.6409  0.3971 -0.3111
13037TIP3   OH260525   0.831   2.549  17.119 -0.2150 -0.8435 -0.3983
13037TIP3    H160526   0.762   2.495  17.156  0.5784 -1.0449  0.8735
13037TIP3    H260527   0.860   2.604  17.192  1.5116 -1.3454 -0.6467
13038TIP3   OH260528   4.532   0.089  11.350 -0.0071 -0.2122 -0.4734
13038TIP3    H160529   4.543   0.055  11.261  2.0417  1.6671 -1.0618
13038TIP3    H260530   4.589   0.034  11.404 -0.8430 -1.0214 -0.3981
13039TIP3   OH260531   3.105   2.894   0.857 -0.1728  0.8910 -0.3395
13039TIP3    H160532   3.069   2.914   0.771 -1.2934 -2.0401 -0.6538
13039TIP3    H260533   3.140   2.806   0.849 -1.1518  0.1388  2.4409
13040TIP3   OH260534   2.240   4.873   0.833 -0.1744 -0.2065  0.1285
13040TIP3    H160535   2.202   4.951   0.873 -0.1339  0.0344 -0.3005
13040TIP3    H260536   2.167   4.831   0.787 -0.5598 -1.2737  1.6470
13041TIP3   OH260537   3.677   5.942   3.814  0.3869 -0.4754 -0.6817
13041TIP3    H160538   3.639   5.864   3.855  0.4007 -0.0491  0.1800
13041TIP3    H260539   3.612   5.970   3.750 -0.8521  0.3088  0.8453
13042TIP3   OH260540   1.805   1.181  14.984 -0.0186  0.9255  0.4330
13042TIP3    H160541   1.854   1.263  14.977  0.1731  0.8459  0.8329
13042TIP3    H260542   1.734   1.191  14.920  0.4006  1.1171 -0.0135
13043TIP3   OH260543   1.599   3.575   5.362  0.2219 -0.3213 -0.4643
13043TIP3    H160544   1.552   3.633   5.302  0.6676  0.6736  0.1120
13043TIP3    H260545   1.679   3.551   5.315 -0.0815 -0.6713 -0.8038
13044TIP3   OH260546   5.437   4.949  11.575 -0.1247  0.3388  1.0778
13044TIP3    H160547   5.485   4.873  11.608  0.6778  1.4778  2.6550
13044TIP3    H260548   5.505   5.014  11.556 -0.4823 -0.1733 -3.0197
13045TIP3   OH260549   0.039   2.935   2.023  0.1043  0.2149  0.3454
13045TIP3    H160550   0.020   3.029   2.028  0.5830  0.3681 -0.5310
13045TIP3    H260551  -0.028   2.900   1.964 -0.6949 -0.1852  1.4574
13046TIP3   OH260552   5.552   1.087  16.696 -0.8046  0.2667  0.0559
13046TIP3    H160553   5.603   1.071  16.776  0.6417  1.1898 -0.6298
13046TIP3    H260554   5.473   1.034  16.707  0.7987 -2.1870  0.6995
13047TIP3   OH260555   6.743   1.482  12.549  0.3865 -0.0926  0.2359
13047TIP3    H160556   6.708   1.457  12.634 -1.6171  2.5458  0.3266
13047TIP3    H260557   6.763   1.575  12.558  0.5478  0.1575 -2.0470
13048TIP3   OH260558   2.803   5.312  11.977  0.0724  0.5387  0.1252
13048TIP3    H160559   2.893   5.284  11.993  0.3176  0.4495 -1.3177
13048TIP3    H260560   2.800   5.335  11.884 -1.7078 -0.6991 -0.1851
13049TIP3   OH260561   3.272   0.958   3.361  0.0207  0.4781 -0.5479
13049TIP3    H160562   3.253   0.941   3.453  0.4836  0.5629 -0.4366
13049TIP3    H260563   3.261   0.873   3.318  0.4232  0.3096 -0.3144
13050TIP3   OH260564   5.013   6.672  11.362 -0.1735 -0.2228 -0.3073
13050TIP3    H160565   4.940   6.693  11.421 -0.1871  0.1595 -0.4610
13050TIP3    H260566   4.980   6.692  11.275  0.0728 -0.1689 -0.3876
13051TIP3   OH260567   0.552   2.887  11.506 -0.0020 -1.8942  0.3446
13051TIP3    H160568   0.501   2.900  11.426 -1.3577  1.0611  1.5543
13051TIP3    H260569   0.487   2.869  11.574  0.7829 -0.8819  1.3987
13052TIP3   OH260570   0.586   5.302  15.787 -0.2114  0.5979  0.1755
13052TIP3    H160571   0.615   5.213  15.764  2.2923  1.3277  0.1632
13052TIP3    H260572   0.658   5.337  15.840 -0.9675  2.7681 -0.1539
13053TIP3   OH260573   3.808   6.581  11.472  0.0920 -0.3793 -0.7426
13053TIP3    H160574   3.806   6.565  11.378  2.9078  1.6047 -1.2666
13053TIP3    H260575   3.893   6.548  11.501 -0.3381 -0.1333  0.9458
13054TIP3   OH260576   3.939   0.195  13.116 -0.1383 -0.4848 -0.4545
13054TIP3    H160577   3.942   0.285  13.146 -0.8033  0.3525 -2.7292
13054TIP3    H260578   3.964   0.143  13.193  0.1417  1.5969  0.9258
13055TIP3   OH260579   1.397   0.187  15.412  0.1401  0.1183 -0.0658
13055TIP3    H160580   1.406   0.262  15.470  0.4127  0.1513 -0.1518
13055TIP3    H260581   1.461   0.123  15.445 -1.8115 -1.1155  1.6300
13056TIP3   OH260582   6.151   0.131   0.948  0.5160 -0.6344  0.5523
13056TIP3    H160583   6.143   0.049   0.996  1.2816 -1.2395 -0.3162
13056TIP3    H260584   6.091   0.191   0.992 -0.3858 -1.7785  0.9309
13057TIP3   OH260585   5.875   3.358  12.593  0.0798  0.6329 -0.1973
13057TIP3    H160586   5.969   3.344  12.605 -0.0826 -3.1079 -1.8824
13057TIP3    H260587   5.851   3.300  12.521 -3.6817  0.9241  0.6006
13058TIP3   OH260588   0.931   4.716  10.981 -0.5237 -0.3949  0.4173
13058TIP3    H160589   0.906   4.808  10.973  1.7570  0.4772  2.2230
13058TIP3    H260590   0.988   4.700  10.906  0.3148  0.1505  0.9230
13059TIP3   OH260591   1.607   6.572   6.345  0.3641 -0.2213  0.0816
13059TIP3    H160592   1.607   6.648   6.402  1.5380 -0.1266 -0.0202
13059TIP3    H260593   1.545   6.512   6.385 -1.1383  1.0614 -0.2339
13060TIP3   OH260594   4.776   3.491   1.332  0.0829  0.2634  0.0484
13060TIP3    H160595   4.831   3.496   1.410 -0.7484  0.5505  0.6300
13060TIP3    H260596   4.769   3.582   1.302  1.0439  0.0643 -0.8369
13061TIP3   OH260597   1.438   2.016   1.065 -0.1855 -0.7360 -0.0758
13061TIP3    H160598   1.377   1.996   1.136  0.5381 -0.6883  0.5745
13061TIP3    H260599   1.419   1.951   0.997  0.6550 -2.2829  1.1106
13062TIP3   OH260600   5.804   6.318   3.515 -0.0382  0.0403  0.5153
13062TIP3    H160601   5.812   6.352   3.426 -0.9126 -1.6331 -0.2483
13062TIP3    H260602   5.894   6.319   3.549  0.1100  2.1141  0.2171
13063TIP3   OH260603   6.147   6.217  13.399  0.0635  0.5749  0.6050
13063TIP3    H160604   6.236   6.244  13.374  0.9619 -1.2801  1.6381
13063TIP3    H260605   6.117   6.286  13.457  1.8855  0.0177  2.3441
13064TIP3   OH260606   4.425   4.441  10.414  0.6809 -0.0203 -0.0370
13064TIP3    H160607   4.346   4.387  10.400 -1.1695  2.0736  1.6547
13064TIP3    H260608   4.421   4.507  10.345  2.1931 -1.1187 -1.2499
13065TIP3   OH260609   5.121   1.087  16.773 -0.5136 -0.6699 -0.3477
13065TIP3    H160610   5.188   1.073  16.706 -2.2744 -0.2265 -2.3148
13065TIP3    H260611   5.038   1.081  16.726 -1.8532  4.3005  0.7290
13066TIP3   OH260612   1.121   1.594   4.487  0.3913  0.3316 -0.1653
13066TIP3    H160613   1.182   1.522   4.503  2.0785  1.9518  1.1509
13066TIP3    H260614   1.130   1.612   4.394  0.1078 -0.9772 -0.4715
13067TIP3   OH260615   2.884   6.215   2.710 -0.1314  0.7550  0.0390
13067TIP3    H160616   2.797   6.205   2.672 -0.4504 -1.4027  1.1778
13067TIP3    H260617   2.917   6.125   2.718  1.5157  1.4148  1.1929
13068TIP3   OH260618   4.099   1.755  12.167  0.5184 -0.2409  0.0852
13068TIP3    H160619   4.125   1.809  12.241  2.2328 -1.2980  0.2895
13068TIP3    H260620   4.058   1.817  12.106  0.8763  0.9791  1.0414
13069TIP3   OH260621   5.604   1.185   3.338 -0.9756  0.0271 -0.0968
13069TIP3    H160622   5.611   1.111   3.277  0.2979  0.3178 -0.3169
13069TIP3    H260623   5.558   1.253   3.288 -0.0724  0.2107 -0.6967
13070TIP3   OH260624   0.255   5.227  11.651  0.9111  0.1464  0.2242
13070TIP3    H160625   0.262   5.217  11.746  0.9217 -0.6682  0.1420
13070TIP3    H260626   0.336   5.272  11.626  1.6018 -0.9394  0.4305
13071TIP3   OH260627   0.827   6.260   1.469  0.8747 -0.5717  0.5678
13071TIP3    H160628   0.866   6.273   1.383  2.3325  1.4726  1.4549
13071TIP3    H260629   0.900   6.233   1.525  0.4987  0.6082  1.6802
13072TIP3   OH260630   1.444   1.243   1.251  0.2422 -0.0545 -0.1580
13072TIP3    H160631   1.383   1.309   1.218 -0.6976 -0.2328  1.1402
13072TIP3    H260632   1.480   1.282   1.331  0.3962 -0.7175  0.1006
13073TIP3   OH260633   1.518   5.263  12.540 -0.2320 -0.0024 -0.0416
13073TIP3    H160634   1.477   5.350  12.549  0.5420  0.6743 -2.2169
13073TIP3    H260635   1.444   5.202  12.544 -1.0841  0.9447 -0.6828
13074TIP3   OH260636   0.045   3.331   3.375  0.1602  0.6236  0.1947
13074TIP3    H160637   0.023   3.287   3.293  0.4370  0.0742  0.4123
13074TIP3    H260638  -0.025   3.306   3.435  0.3151  0.4831  0.3173
13075TIP3   OH260639   2.534   5.738  11.645  0.1431  0.5114  0.1810
13075TIP3    H160640   2.520   5.832  11.658 -1.0461  0.9754 -3.3658
13075TIP3    H260641   2.473   5.696  11.705 -0.4823  2.0340  0.6694
13076TIP3   OH260642   0.418   5.298   3.373 -0.5926 -0.1392  0.8237
13076TIP3    H160643   0.513   5.293   3.364 -0.8560 -1.9780 -2.3042
13076TIP3    H260644   0.403   5.304   3.468  2.5894 -0.4941  1.4490
13077TIP3   OH260645   3.798   4.653   5.056 -0.5296  0.7632  0.0089
13077TIP3    H160646   3.884   4.678   5.022 -0.6994  0.9511 -0.2793
13077TIP3    H260647   3.788   4.705   5.136  0.5018 -0.7448  1.1800
13078TIP3   OH260648   3.405   2.827  14.920  0.3856  0.4467 -0.3170
13078TIP3    H160649   3.325   2.871  14.949  0.4718  1.1040 -1.0319
13078TIP3    H260650   3.375   2.759  14.860  0.3668  0.8528 -0.7770
13079TIP3   OH260651   1.659   3.941   1.110 -0.1041 -0.0042 -0.0230
13079TIP3    H160652   1.659   3.873   1.043 -1.5098 -0.4843  0.4244
13079TIP3    H260653   1.630   4.020   1.064  1.0988  0.2094 -0.4453
13080TIP3   OH260654   5.790   4.758   3.431 -0.0791  0.3020  0.5981
13080TIP3    H160655   5.741   4.808   3.365  0.6612  0.6485  0.2969
13080TIP3    H260656   5.831   4.687   3.381 -1.2454 -0.7169  1.0489
13081TIP3   OH260657   3.198   3.650  11.765 -0.0552  0.5068 -0.0156
13081TIP3    H160658   3.157   3.706  11.698  0.3650 -0.2562 -0.9296
13081TIP3    H260659   3.129   3.589  11.790  0.1726 -0.0707 -0.7524
13082TIP3   OH260660   4.172   1.703  14.564 -0.2425  0.3761  0.3916
13082TIP3    H160661   4.142   1.668  14.648 -2.3512 -0.4836 -0.6497
13082TIP3    H260662   4.239   1.640  14.535 -0.9214 -0.4342  0.5274
13083TIP3   OH260663   2.749   2.318   5.237  0.5731 -0.0837 -0.1625
13083TIP3    H160664   2.796   2.256   5.293  0.7257 -1.5412 -1.8326
13083TIP3    H260665   2.657   2.306   5.259  0.6386 -0.5329 -0.1383
13084TIP3   OH260666   3.440   6.404  14.120  0.6397  0.2703 -0.0561
13084TIP3    H160667   3.447   6.338  14.189  1.3041  0.8821  0.4747
13084TIP3    H260668   3.434   6.487  14.167  2.3068  0.8130 -0.7349
13085TIP3   OH260669   0.939   3.604   5.498 -0.1718  0.1087  0.4309
13085TIP3    H160670   0.883   3.579   5.571  0.6580  1.5316  1.5939
13085TIP3    H260671   1.026   3.576   5.523  0.4708  2.4125  0.9572
13086TIP3   OH260672   4.375   3.154  10.834  0.0781  0.8679  0.4286
13086TIP3    H160673   4.327   3.089  10.886 -1.5268  0.7083 -1.1387
13086TIP3    H260674   4.465   3.122  10.833  0.0492  0.5627  2.5448
13087TIP3   OH260675   5.733   4.319   4.130  0.5524  0.2379 -0.7405
13087TIP3    H160676   5.740   4.391   4.193 -0.1544  0.4787 -0.9250
13087TIP3    H260677   5.643   4.324   4.098  0.9679  0.2761 -1.9542
13088TIP3   OH260678   3.345   6.269   2.367 -0.2656 -0.0626  0.6133
13088TIP3    H160679   3.371   6.248   2.277 -2.1003  0.5101 -0.0793
13088TIP3    H260680   3.424   6.252   2.418  0.8477 -0.3518 -1.0999
13089TIP3   OH260681   6.071   1.694   5.397 -0.1627 -0.0074 -0.3195
13089TIP3    H160682   5.989   1.703   5.446 -0.0386 -1.2270  0.1610
13089TIP3    H260683   6.048   1.717   5.307 -1.6329 -2.5040 -0.6650
13090TIP3   OH260684   6.210   6.119  17.351  0.0798  0.1022  0.1227
13090TIP3    H160685   6.153   6.064  17.404  0.7514 -0.2219  0.5204
13090TIP3    H260686   6.290   6.129  17.403  0.7655 -0.2480 -0.8234
13091TIP3   OH260687   6.089   5.884   5.103 -0.1787 -0.1641  0.2388
13091TIP3    H160688   6.119   5.873   5.193  0.6888  0.2759  0.0102
13091TIP3    H260689   6.116   5.804   5.058 -0.6757 -0.4160  0.3768
13092TIP3   OH260690   5.043   1.085  11.310 -0.1936 -0.1017 -0.3428
13092TIP3    H160691   5.037   1.036  11.392 -1.1211 -0.1606 -0.4435
13092TIP3    H260692   5.121   1.139  11.320 -0.3649 -0.0250  0.6225
13093TIP3   OH260693   2.587   1.630  16.507  0.5772  0.4918 -0.1134
13093TIP3    H160694   2.519   1.583  16.556  1.7230 -0.0019  1.0694
13093TIP3    H260695   2.558   1.722  16.508  0.5828  0.5125  1.5946
13094TIP3   OH260696   6.706   1.002   0.284  0.0185  0.1398  0.1129
13094TIP3    H160697   6.721   0.907   0.275  1.3534  0.4208 -1.0843
13094TIP3    H260698   6.760   1.027   0.358 -0.9938 -0.1570  0.9645
13095TIP3   OH260699   1.844   5.695   3.998  0.2436 -0.3585 -0.2070
13095TIP3    H160700   1.786   5.701   3.921 -0.0200 -0.7121 -0.0383
13095TIP3    H260701   1.924   5.741   3.971 -0.6296  1.4402  0.0613
13096TIP3   OH260702   4.365   5.169   6.245 -0.4947  0.0366 -0.4757
13096TIP3    H160703   4.277   5.188   6.277 -0.7024 -0.3626 -0.8017
13096TIP3    H260704   4.386   5.243   6.188 -0.2584  0.5788  0.3064
13097TIP3   OH260705   1.553   6.318  16.453  0.2650 -0.1484 -0.6331
13097TIP3    H160706   1.535   6.407  16.484  0.0412 -0.3887 -0.0441
13097TIP3    H260707   1.634   6.326  16.403 -0.8344  0.7679 -2.3575
13098TIP3   OH260708   0.634   2.831   2.446 -0.4388 -0.1451 -0.3364
13098TIP3    H160709   0.725   2.858   2.437 -0.4616  0.5756  1.2281
13098TIP3    H260710   0.621   2.766   2.377  1.7090 -1.4650  0.4242
13099TIP3   OH260711   5.791   4.528  17.389  0.0736  0.8112 -0.7075
13099TIP3    H160712   5.778   4.439  17.357  1.8419  1.1189 -2.4903
13099TIP3    H260713   5.871   4.523  17.441 -2.0322  0.5984  2.8532
13100TIP3   OH260714   5.724   3.798  17.335  0.4680 -0.2917 -0.2522
13100TIP3    H160715   5.655   3.782  17.399  0.5302 -0.2890 -0.1846
13100TIP3    H260716   5.757   3.885  17.357  0.7805 -0.4682 -0.0169
13101TIP3   OH260717   5.399   1.964  17.154  0.0347 -0.4167 -0.0559
13101TIP3    H160718   5.459   2.033  17.127 -2.5624  1.9420 -0.3550
13101TIP3    H260719   5.342   1.951  17.078  0.2775 -2.7698  0.0998
13102TIP3   OH260720   0.998   0.373   3.297 -0.0415  0.0370  0.7617
13102TIP3    H160721   0.911   0.360   3.259  0.7108  0.0241 -1.0331
13102TIP3    H260722   1.043   0.430   3.235  1.5406 -0.6662  1.2150
13103TIP3   OH260723   0.880   0.783   3.879 -0.2227 -0.6033 -0.4643
13103TIP3    H160724   0.922   0.815   3.799 -1.6134  0.3876 -0.8391
13103TIP3    H260725   0.941   0.717   3.913  0.4937 -0.9220 -2.2256
13104TIP3   OH260726   2.262   3.483   2.853  0.6398 -0.0040  0.2635
13104TIP3    H160727   2.191   3.539   2.885  0.8170  0.8106 -0.7168
13104TIP3    H260728   2.338   3.509   2.905  0.3852 -0.4156  0.8572
13105TIP3   OH260729   1.650   4.666  15.217  0.0847 -0.2403  0.4463
13105TIP3    H160730   1.634   4.708  15.132 -1.0626 -0.5707  0.4753
13105TIP3    H260731   1.733   4.621  15.206 -1.1163 -2.2381 -1.3207
13106TIP3   OH260732   4.658   3.909   1.133  0.2404 -0.0702 -0.4426
13106TIP3    H160733   4.569   3.874   1.143 -0.1795 -0.1027 -3.5401
13106TIP3    H260734   4.712   3.847   1.182 -1.4109  0.1537  1.8511
13107TIP3   OH260735   4.926   4.725  15.055 -0.5903 -0.4260  0.5621
13107TIP3    H160736   4.924   4.811  15.013 -1.0278 -0.8934 -0.3978
13107TIP3    H260737   4.994   4.677  15.007 -0.7697 -0.8098  0.6896
13108TIP3   OH260738   0.061   5.054  13.336  0.0056  0.2070  0.2238
13108TIP3    H160739   0.007   4.985  13.297  1.4390 -0.6345 -0.3937
13108TIP3    H260740   0.114   5.086  13.263 -1.4435  2.8394  0.2326
13109TIP3   OH260741   0.443   0.930   0.611 -0.7734 -0.9279  0.1700
13109TIP3    H160742   0.445   0.940   0.706 -1.1523 -1.3066  0.2188
13109TIP3    H260743   0.457   1.019   0.577 -0.0865 -0.8807  0.5727
13110TIP3   OH260744   3.192   3.458   1.750 -0.5219  0.6415  0.3280
13110TIP3    H160745   3.122   3.523   1.741 -0.4734  0.5860 -0.6020
13110TIP3    H260746   3.243   3.467   1.669 -0.5953 -0.6319  0.1183
13111TIP3   OH260747   5.470   0.297  14.967 -0.3335  0.1698 -0.1298
13111TIP3    H160748   5.540   0.288  14.903  0.0471  0.7650  0.1887
13111TIP3    H260749   5.390   0.274  14.919 -0.2356  1.9284 -1.2454
13112TIP3   OH260750   6.338   3.864  14.352  0.1630  0.5624 -0.4011
13112TIP3    H160751   6.342   3.868  14.447  0.2234 -0.1275 -0.3727
13112TIP3    H260752   6.249   3.834  14.332  0.9851 -2.0640 -0.4558
13113TIP3   OH260753   2.385   5.894  14.887 -0.3108 -0.4783 -0.0942
13113TIP3    H160754   2.400   5.969  14.829  0.2217  0.3195  1.0259
13113TIP3    H260755   2.472   5.872  14.920 -0.7795  0.3079  1.8237
13114TIP3   OH260756   3.238   3.820  14.962 -0.0550  0.3302 -0.0978
13114TIP3    H160757   3.224   3.811  15.057 -1.1581 -0.4229 -0.3108
13114TIP3    H260758   3.283   3.740  14.937 -0.6837  0.0612 -0.3727
13115TIP3   OH260759   1.569   0.160   3.155 -0.4484  0.1396 -0.1747
13115TIP3    H160760   1.500   0.225   3.146 -0.2117  0.3241 -0.6794
13115TIP3    H260761   1.648   0.211   3.176 -0.1937  0.0567 -0.8844
13116TIP3   OH260762   5.369   2.467   2.820 -0.0479  0.0440  0.1803
13116TIP3    H160763   5.420   2.545   2.845 -1.2810  1.0442 -0.3282
13116TIP3    H260764   5.362   2.472   2.725 -0.4739 -0.4824  0.1780
13117TIP3   OH260765   3.190   3.953  17.050  0.3106 -0.0660 -0.1033
13117TIP3    H160766   3.112   4.007  17.039  0.7324  0.9425  1.4714
13117TIP3    H260767   3.175   3.904  17.131  0.6798 -1.0132 -0.5936
13118TIP3   OH260768   4.409   5.880   1.967  0.3386  0.0388  0.4329
13118TIP3    H160769   4.342   5.812   1.957  0.3162  0.2492 -0.9592
13118TIP3    H260770   4.401   5.908   2.058  0.0200 -1.4790  0.8959
13119TIP3   OH260771   1.602   5.716  13.610  0.5797 -0.4737 -0.0506
13119TIP3    H160772   1.613   5.636  13.559  1.0489 -0.1371 -0.4765
13119TIP3    H260773   1.627   5.786  13.551 -1.3224  0.1333 -0.2149
13120TIP3   OH260774   0.487   0.982  15.010 -0.4007  0.2983  0.3644
13120TIP3    H160775   0.536   0.974  15.092  1.8197  1.6475 -0.7319
13120TIP3    H260776   0.419   1.047  15.028  0.2682  0.8178  1.0623
13121TIP3   OH260777   1.606   1.185   0.322  0.1085  0.3246  0.5070
13121TIP3    H160778   1.559   1.246   0.266 -0.1318 -0.2762  0.0470
13121TIP3    H260779   1.538   1.131   0.362  0.3162  0.3771  0.9436
13122TIP3   OH260780   3.331   5.351  16.693  0.0956 -0.2280  0.3562
13122TIP3    H160781   3.301   5.399  16.771  2.1464  1.0098  0.4688
13122TIP3    H260782   3.291   5.397  16.620  0.5143  0.4909  0.5677
13123TIP3   OH260783   5.171   6.258   5.577 -0.5096  0.4831  0.6262
13123TIP3    H160784   5.212   6.340   5.549 -0.6386  0.8602  1.5034
13123TIP3    H260785   5.207   6.241   5.664  0.2140 -0.8956  0.0914
13124TIP3   OH260786   4.316   0.197   0.980  0.1465  0.3671  0.0549
13124TIP3    H160787   4.252   0.268   0.982  0.5234  0.7791 -1.2603
13124TIP3    H260788   4.325   0.175   0.887 -0.6934 -2.1166  0.4995
13125TIP3   OH260789   3.489   2.718   0.075 -0.1763 -0.2183 -0.1572
13125TIP3    H160790   3.411   2.684   0.120 -1.6968  0.3203 -2.2108
13125TIP3    H260791   3.454   2.774   0.006  2.0839  0.3892 -0.9040
13126TIP3   OH260792   1.565   2.986   1.074  0.1198  0.1111 -0.0835
13126TIP3    H160793   1.654   2.970   1.105 -0.1412  2.5077  2.2688
13126TIP3    H260794   1.576   3.040   0.996  0.6976 -1.0256 -0.8191
13127TIP3   OH260795   3.680   2.908  17.240  0.1395  0.5628  0.2832
13127TIP3    H160796   3.732   2.927  17.163 -2.7926  0.4040 -1.9289
13127TIP3    H260797   3.718   2.828  17.276  1.7109  0.7613 -0.8559
13128TIP3   OH260798   4.283   2.160  16.934  0.1999 -0.4133 -0.0726
13128TIP3    H160799   4.264   2.240  16.983 -0.7085 -0.6716  0.0139
13128TIP3    H260800   4.329   2.191  16.855 -0.4446  0.2268 -0.2086
13129TIP3   OH260801   6.576   5.904  16.515  0.4986  0.6286 -0.6529
13129TIP3    H160802   6.497   5.930  16.563  0.2170 -0.2971 -0.6019
13129TIP3    H260803   6.563   5.939  16.427 -0.3501 -0.2168 -0.8732
13130TIP3   OH260804   0.325   0.756  12.332 -0.1020 -0.2487 -0.3424
13130TIP3    H160805   0.318   0.672  12.377  1.1864 -0.4899 -0.5498
13130TIP3    H260806   0.398   0.744  12.271 -0.7871  0.5885 -1.3426
13131TIP3   OH260807   4.310   0.159   0.677 -0.8618 -0.2499 -0.0299
13131TIP3    H160808   4.399   0.192   0.690 -2.3599  4.1950  0.6408
13131TIP3    H260809   4.313   0.114   0.593  1.8730  0.2605 -0.3013
13132TIP3   OH260810   3.808   2.966   3.762 -0.0553  0.2418  0.4012
13132TIP3    H160811   3.769   2.906   3.825  0.4986  1.0129  1.5003
13132TIP3    H260812   3.899   2.976   3.790  0.2542  0.4659 -0.6228
13133TIP3   OH260813   1.138   1.526   0.362  0.1501  0.1887 -0.1716
13133TIP3    H160814   1.176   1.523   0.274 -1.2158 -0.5371 -0.7634
13133TIP3    H260815   1.170   1.446   0.404  1.7655  1.1113  0.4405
13134TIP3   OH260816   6.253   2.032  15.908 -0.1599 -0.0496  0.2143
13134TIP3    H160817   6.246   1.996  15.996  0.3308 -1.1433 -0.1750
13134TIP3    H260818   6.320   1.978  15.865 -0.2164  0.6178 -0.7539
13135TIP3   OH260819   3.786   5.904   0.706 -0.2375  0.4830  0.0628
13135TIP3    H160820   3.806   5.870   0.619 -0.4758  0.3044  0.0775
13135TIP3    H260821   3.779   5.826   0.761  0.9390  0.6383  0.4608
13136TIP3   OH260822   4.375   5.351  14.845  0.7018  0.1260  0.3522
13136TIP3    H160823   4.325   5.395  14.777  1.0959 -2.0609 -1.4637
13136TIP3    H260824   4.434   5.418  14.880  0.2362  1.3832 -1.2056
13137TIP3   OH260825   2.801   3.434   2.911  0.4256 -0.2278 -0.3059
13137TIP3    H160826   2.872   3.377   2.939 -0.7696 -1.0524  1.1862
13137TIP3    H260827   2.732   3.375   2.881 -0.4144  0.4617  0.2231
13138TIP3   OH260828   2.807   1.174   4.569  0.3799 -0.0937 -0.2459
13138TIP3    H160829   2.713   1.158   4.578  0.4350 -1.0157 -1.0785
13138TIP3    H260830   2.823   1.252   4.621 -1.0575  0.7686 -1.0287
13139TIP3   OH260831   3.344   1.381  16.884 -0.1495  0.1287  0.1670
13139TIP3    H160832   3.318   1.397  16.793 -0.3925 -2.9587 -0.4202
13139TIP3    H260833   3.439   1.380  16.883 -0.1322  1.1413  0.1848
13140TIP3   OH260834   0.625   5.389   2.825 -0.0153 -0.5576 -0.1772
13140TIP3    H160835   0.642   5.380   2.731  0.3251  0.7089 -0.2530
13140TIP3    H260836   0.710   5.375   2.867 -0.0010 -0.3176 -0.1225
13141TIP3   OH260837   2.580   2.542   5.990 -0.0170 -0.2736 -0.5119
13141TIP3    H160838   2.562   2.454   5.956 -1.1078 -0.0106 -0.6342
13141TIP3    H260839   2.518   2.599   5.944  0.4431  0.5133 -0.1741
13142TIP3   OH260840   4.227   0.342  12.393 -0.3193  0.4361 -0.0312
13142TIP3    H160841   4.318   0.349  12.422  0.3581  0.8945 -2.1169
13142TIP3    H260842   4.214   0.248  12.379  0.0628  0.4334 -0.3966
13143TIP3   OH260843   3.137   6.692  12.036  0.1532  0.0922 -0.2611
13143TIP3    H160844   3.163   6.609  12.075  2.9758  1.4264  0.9159
13143TIP3    H260845   3.069   6.726  12.095  0.2421 -0.5621  0.2265
13144TIP3   OH260846   2.925   6.496   2.031 -0.6194 -0.0115 -0.0605
13144TIP3    H160847   2.960   6.453   2.109  2.6821 -0.7087 -1.7505
13144TIP3    H260848   2.855   6.438   2.002 -2.9696  1.0048  3.0336
13145TIP3   OH260849   0.031   2.016   2.084  0.9309 -0.2682  0.0245
13145TIP3    H160850   0.031   1.986   1.993 -0.5385 -0.5673  0.0973
13145TIP3    H260851   0.102   1.967   2.126  2.2503  0.5709 -1.1497
13146TIP3   OH260852   1.308   1.546   2.906 -0.2889 -0.4424 -0.3370
13146TIP3    H160853   1.291   1.587   2.821  0.2618  1.3995  0.3864
13146TIP3    H260854   1.403   1.548   2.914 -0.3957  0.8819  0.9767
13147TIP3   OH260855   0.219   6.365  11.355 -0.3660 -0.1976 -0.3677
13147TIP3    H160856   0.221   6.460  11.338 -1.2397 -0.0657  0.2351
13147TIP3    H260857   0.246   6.326  11.271  0.2333  0.5843 -0.5529
13148TIP3   OH260858   5.932   5.361  11.143 -0.1002 -0.0236 -0.5840
13148TIP3    H160859   6.010   5.307  11.127 -0.0245  0.5735 -2.3791
13148TIP3    H260860   5.959   5.450  11.121 -0.8140  0.4676  0.4337
13149TIP3   OH260861   2.837   2.305  14.370 -0.3191 -0.4138 -0.0267
13149TIP3    H160862   2.872   2.386  14.334 -1.6099 -0.3953 -1.3407
13149TIP3    H260863   2.743   2.310  14.353 -0.4815 -1.9977  0.2584
13150TIP3   OH260864   1.858   6.011  15.341  0.0413 -0.0882 -0.2116
13150TIP3    H160865   1.953   6.022  15.347  0.4553 -2.9018 -0.5046
13150TIP3    H260866   1.837   6.034  15.250  0.1891  1.7309  0.1698
13151TIP3   OH260867   2.788   6.631  14.527 -0.4549  0.3566 -0.3640
13151TIP3    H160868   2.846   6.700  14.560 -0.0820  0.5704 -1.3975
13151TIP3    H260869   2.795   6.561  14.591 -1.6702  1.6603  1.2791
13152TIP3   OH260870   4.123   6.522  16.032  0.1527  0.0242  0.3076
13152TIP3    H160871   4.060   6.558  16.094  0.9484  1.1450  0.5078
13152TIP3    H260872   4.196   6.492  16.087  1.6671  2.6432 -0.0773
13153TIP3   OH260873   1.277   2.062   3.767 -0.2708 -0.8563  0.0593
13153TIP3    H160874   1.335   1.987   3.756 -1.3100 -1.8673  1.1441
13153TIP3    H260875   1.308   2.106   3.846 -0.6522 -1.0967  0.3464
13154TIP3   OH260876   3.120   4.274  13.189  0.7707  0.1976 -0.4096
13154TIP3    H160877   3.129   4.344  13.254 -0.7138 -0.1022  0.1568
13154TIP3    H260878   3.103   4.320  13.107  1.7617  0.5513 -0.4287
13155TIP3   OH260879   5.471   4.472  14.615  0.3874  0.3085  0.0557
13155TIP3    H160880   5.395   4.476  14.557  1.3564 -0.1105 -1.2812
13155TIP3    H260881   5.539   4.523  14.570  1.8112 -1.7078 -0.2248
13156TIP3   OH260882   0.108   1.496   0.920  0.1001  0.7633  0.2025
13156TIP3    H160883   0.116   1.586   0.950  0.9086  0.5893  0.5330
13156TIP3    H260884   0.014   1.480   0.917 -0.0518  1.6290  0.0917
13157TIP3   OH260885   4.480   6.028   1.083  0.2450 -0.1598  0.0900
13157TIP3    H160886   4.430   5.946   1.079  2.7595 -1.8273  0.7841
13157TIP3    H260887   4.436   6.078   1.152 -0.7878 -1.3034  0.3143
13158TIP3   OH260888   2.029   6.626   3.948 -0.3059 -0.0849 -0.3694
13158TIP3    H160889   1.979   6.549   3.978 -1.3092 -0.2106 -2.1994
13158TIP3    H260890   2.119   6.607   3.973 -0.6669 -1.4608 -0.0005
13159TIP3   OH260891   5.690   2.469  15.562 -0.0116  0.1313 -0.5295
13159TIP3    H160892   5.774   2.509  15.585 -1.0135  2.6157 -0.8481
13159TIP3    H260893   5.677   2.400  15.626  2.4801 -0.6736 -0.7892
13160TIP3   OH260894   4.162   0.399   3.375  0.2055 -0.3093  0.2937
13160TIP3    H160895   4.137   0.485   3.408 -1.1228  0.4187 -2.3112
13160TIP3    H260896   4.130   0.337   3.440 -1.0886  1.0711  1.0154
13161TIP3   OH260897   1.151   2.967   1.836 -0.2195 -0.5150  0.0018
13161TIP3    H160898   1.242   2.976   1.808 -0.0968  2.0197  0.9428
13161TIP3    H260899   1.153   2.977   1.931 -1.6255  1.9498 -0.1404
13162TIP3   OH260900   6.722   0.685  15.923 -0.0350 -0.0808  0.3105
13162TIP3    H160901   6.665   0.658  15.851 -0.4661 -0.7766  0.8934
13162TIP3    H260902   6.665   0.685  16.000  0.2117  1.4905  0.5305
13163TIP3   OH260903   0.909   4.715   0.770  0.0086  0.2428 -0.3510
13163TIP3    H160904   0.903   4.805   0.802  1.0943  1.1099 -2.3888
13163TIP3    H260905   0.989   4.681   0.810 -1.6269 -0.7261  2.3366
13164TIP3   OH260906   4.685   6.299  15.356  0.3571 -0.3050  0.2179
13164TIP3    H160907   4.705   6.208  15.335  0.2375 -0.2315 -0.2230
13164TIP3    H260908   4.609   6.294  15.414 -0.7469 -0.4272 -1.1774
13165TIP3   OH260909   0.537   3.529  10.885 -0.2226 -0.1881  0.1421
13165TIP3    H160910   0.611   3.508  10.828  1.0292  1.7136  0.9727
13165TIP3    H260911   0.465   3.477  10.851  1.2344 -1.3575 -1.3189
13166TIP3   OH260912   5.862   4.636  16.072  0.1865  0.2967 -0.1060
13166TIP3    H160913   5.781   4.631  16.123  0.6757  0.1487  0.6866
13166TIP3    H260914   5.837   4.609  15.984 -1.1748  2.7862 -0.5827
13167TIP3   OH260915   4.149   3.535  11.824 -0.2488  0.2670 -0.2447
13167TIP3    H160916   4.095   3.604  11.862 -0.6869 -0.8589  1.2925
13167TIP3    H260917   4.088   3.477  11.780 -0.1205 -0.1055  0.0532
13168TIP3   OH260918   4.332   3.704   5.535  0.3406 -0.1362 -0.5073
13168TIP3    H160919   4.328   3.791   5.574 -0.2852 -0.1335 -0.5694
13168TIP3    H260920   4.406   3.708   5.474  0.8394  0.0907  0.1107
13169TIP3   OH260921   3.872   2.100   1.843 -0.3953  0.0661 -0.9752
13169TIP3    H160922   3.844   2.180   1.799  1.5503  0.7326 -1.1157
13169TIP3    H260923   3.881   2.125   1.935 -2.1084 -0.6801 -0.5624
13170TIP3   OH260924   5.994   0.630  15.136 -0.3962  0.3177 -0.2948
13170TIP3    H160925   5.995   0.627  15.232  0.3505 -0.0265 -0.3033
13170TIP3    H260926   6.075   0.586  15.110 -1.3514 -1.0243 -1.1314
13171TIP3   OH260927   4.669   3.010  16.667 -0.0026 -0.3655 -0.7704
13171TIP3    H160928   4.764   3.010  16.677 -0.1764 -1.4371  1.8127
13171TIP3    H260929   4.640   2.932  16.714 -2.2392  0.6904 -0.2444
13172TIP3   OH260930   4.509   3.434   1.922  0.1540 -0.1812 -0.0078
13172TIP3    H160931   4.453   3.380   1.866 -0.1261 -1.6754  1.6287
13172TIP3    H260932   4.448   3.487   1.973  0.4260  1.8324 -1.6260
13173TIP3   OH260933   4.419   4.199  13.428  0.6658  0.0899  0.3962
13173TIP3    H160934   4.384   4.130  13.372 -0.0073  0.9014 -0.2041
13173TIP3    H260935   4.343   4.228  13.479  0.7402  1.0016 -0.0059
13174TIP3   OH260936   1.481   1.271   3.259  0.2126 -0.2545  0.1971
13174TIP3    H160937   1.513   1.254   3.171  0.1004 -0.3646  0.1774
13174TIP3    H260938   1.462   1.184   3.295 -0.2246 -0.1792  0.1490
13175TIP3   OH260939   0.154   0.358  15.921 -0.7259  0.0717  0.5061
13175TIP3    H160940   0.174   0.444  15.884 -1.9729  0.2652  0.2381
13175TIP3    H260941   0.084   0.324  15.866  0.3083 -1.5035  0.0743
13176TIP3   OH260942   2.170   2.547   1.733 -0.1852  0.7343  0.0200
13176TIP3    H160943   2.260   2.574   1.749 -0.1862  0.7588 -0.0151
13176TIP3    H260944   2.154   2.476   1.795 -0.1995  0.8515  0.1513
13177TIP3   OH260945   5.547   2.171   5.109  0.8100 -0.1431 -0.1240
13177TIP3    H160946   5.483   2.190   5.040  1.1016  0.2431 -0.2869
13177TIP3    H260947   5.494   2.134   5.180  0.5117 -0.5843 -0.5622
13178TIP3   OH260948   1.238   1.674   0.656  0.1790  0.2465 -0.9127
13178TIP3    H160949   1.207   1.620   0.583  2.6266 -1.4029 -0.8255
13178TIP3    H260950   1.217   1.763   0.629 -1.8043 -0.5123 -2.1754
13179TIP3   OH260951   0.981   0.046  14.117 -0.3431 -0.5515 -0.4634
13179TIP3    H160952   0.997   0.133  14.155  0.3918 -0.3274 -1.2383
13179TIP3    H260953   1.004  -0.015  14.186  2.1617 -0.1826 -0.8502
13180TIP3   OH260954   3.156   2.805   6.141  0.1240  0.4108 -0.0467
13180TIP3    H160955   3.182   2.827   6.230  0.8910 -0.9313  0.1024
13180TIP3    H260956   3.175   2.883   6.090  0.5508  0.8800  0.8149
13181TIP3   OH260957   5.443   2.020   3.237 -0.1050  0.0181  0.5206
13181TIP3    H160958   5.360   2.065   3.252  0.2263  0.4756  0.9912
13181TIP3    H260959   5.430   1.974   3.154 -1.3560 -1.1636  1.3236
13182TIP3   OH260960   5.937   1.963   1.798  0.0803  0.4819 -0.1180
13182TIP3    H160961   5.851   1.939   1.766  0.2355  1.0358 -0.9900
13182TIP3    H260962   5.996   1.896   1.762  0.0103 -0.0058  0.6313
13183TIP3   OH260963   2.267   0.124   3.044  0.5257 -0.2639 -0.4354
13183TIP3    H160964   2.280   0.029   3.052  1.3611 -0.2113 -1.0368
13183TIP3    H260965   2.178   0.133   3.011  0.4757 -0.8528 -0.4731
13184TIP3   OH260966   3.161   5.989  15.159  0.0082  0.3137  0.0799
13184TIP3    H160967   3.090   5.969  15.098 -1.6250  1.9074  1.3589
13184TIP3    H260968   3.155   5.922  15.227  0.2066  0.0189 -0.1923
13185TIP3   OH260969   3.569   4.530  13.795 -0.2568  0.6354  0.1124
13185TIP3    H160970   3.599   4.608  13.843  1.9811  0.8887 -1.5835
13185TIP3    H260971   3.505   4.564  13.732  1.0942  1.2333 -0.9765
13186TIP3   OH260972   5.566   4.555   6.003  0.7578 -0.2097  0.3005
13186TIP3    H160973   5.574   4.466   6.035  1.0186 -0.0920  0.5689
13186TIP3    H260974   5.654   4.591   6.010  0.7121 -0.0215 -0.0735
13187TIP3   OH260975   0.140   1.421  13.159 -0.0029  0.1774  0.0581
13187TIP3    H160976   0.120   1.460  13.074  0.2751 -1.2728 -0.7080
13187TIP3    H260977   0.206   1.480  13.197  1.0608  0.0135 -1.4371
13188TIP3   OH260978   2.467   0.871  11.531 -0.3179 -0.3087  0.0821
13188TIP3    H160979   2.409   0.947  11.535 -1.1934 -0.9793  0.5609
13188TIP3    H260980   2.423   0.804  11.583  1.6208 -0.3764  1.7676
13189TIP3   OH260981   2.919   5.800  13.914  0.5782 -0.0925  0.3053
13189TIP3    H160982   2.881   5.740  13.978 -0.9760  0.7303  0.1988
13189TIP3    H260983   2.956   5.743  13.847 -0.4900 -0.9541  0.4101
13190TIP3   OH260984   4.016   4.705  15.015  0.4919 -0.1822 -0.4978
13190TIP3    H160985   4.059   4.729  15.096  1.9870  1.5700 -1.7299
13190TIP3    H260986   3.978   4.619  15.032  0.8947  0.0619  1.9630
13191TIP3   OH260987   6.707   6.673  14.190  0.1165  0.0766  0.4060
13191TIP3    H160988   6.681   6.679  14.099  1.6151 -2.0456 -0.2452
13191TIP3    H260989   6.773   6.742  14.201  0.7637 -0.3774 -0.4698
13192TIP3   OH260990   0.955   1.088   1.048  0.3351 -0.0495  0.5409
13192TIP3    H160991   0.902   1.152   1.096  1.2046 -0.2012  1.7554
13192TIP3    H260992   0.904   1.007   1.052  0.3906 -0.0535  1.2005
13193TIP3   OH260993   2.865   0.336   5.326  0.4054 -0.2937 -0.6886
13193TIP3    H160994   2.943   0.388   5.348  0.0849  0.3097 -0.9536
13193TIP3    H260995   2.892   0.245   5.340  0.4157  0.0146  1.4828
13194TIP3   OH260996   2.050   1.362  17.226  0.0441 -0.3322  0.2439
13194TIP3    H160997   2.110   1.287  17.222  0.4367  0.0065 -0.3737
13194TIP3    H260998   1.964   1.323  17.240  0.3424 -0.8508  0.6889
13195TIP3   OH260999   5.053   2.550   1.305 -0.1236  0.0343 -0.4731
13195TIP3    H161000   5.015   2.637   1.317  0.9316  0.2577  1.9806
13195TIP3    H261001   5.119   2.544   1.374  0.4243 -2.4078 -1.1290
13196TIP3   OH261002   6.520   4.667  12.724  0.0716  0.1868  0.1516
13196TIP3    H161003   6.562   4.585  12.750 -0.7672 -0.0649  0.7670
13196TIP3    H261004   6.427   4.644  12.714 -0.4586  1.3431  1.8119
13197TIP3   OH261005   3.751   3.170   5.208 -0.0676 -0.1219 -0.3606
13197TIP3    H161006   3.832   3.129   5.178  0.0699  0.9659 -1.5117
13197TIP3    H261007   3.685   3.142   5.144 -0.5549 -0.7328  0.3866
13198TIP3   OH261008   3.068   4.767  13.451 -0.0015  0.4545  0.3901
13198TIP3    H161009   3.115   4.784  13.532 -0.3202  1.0572  0.4506
13198TIP3    H261010   3.130   4.787  13.382 -0.4877  2.2947  0.4500
13199TIP3   OH261011   5.658   2.802   5.759 -0.1728  0.5638  0.0465
13199TIP3    H161012   5.579   2.845   5.791 -0.4021 -0.0341  0.2944
13199TIP3    H261013   5.649   2.804   5.663 -0.9638 -0.3438  0.0816
13200TIP3   OH261014   4.252   0.779   3.227  0.6238 -0.2260  0.2829
13200TIP3    H161015   4.343   0.799   3.204 -0.1837  1.5771 -1.6243
13200TIP3    H261016   4.227   0.708   3.167  0.1955  0.6609 -0.6109
13201TIP3   OH261017   5.865   1.744   3.285  0.1359 -0.2686 -0.2952
13201TIP3    H161018   5.914   1.825   3.297  1.2095 -0.9947  0.4688
13201TIP3    H261019   5.788   1.769   3.234 -0.0527  1.3931  0.7517
13202TIP3   OH261020   3.547   5.743   5.197 -0.5474  0.4890 -0.2777
13202TIP3    H161021   3.519   5.791   5.275  0.0511  0.6181 -0.1407
13202TIP3    H261022   3.617   5.795   5.159  0.4409 -0.4897  0.1410
13203TIP3   OH261023   4.099   3.682  12.747 -0.2032 -0.7415 -0.1239
13203TIP3    H161024   4.131   3.674  12.657  0.1835 -0.5165 -0.0085
13203TIP3    H261025   4.007   3.707  12.738  0.7043  3.0586 -0.4919
13204TIP3   OH261026   4.881   3.367   6.368  0.3365  0.0760  0.0409
13204TIP3    H161027   4.800   3.349   6.414  0.4638 -1.5974 -0.3440
13204TIP3    H261028   4.944   3.304   6.403  1.0511  0.3106 -0.7759
13205TIP3   OH261029   3.034   4.903   4.526 -0.2399  0.1882 -0.1030
13205TIP3    H161030   2.959   4.936   4.575  0.7699  3.1251 -0.3657
13205TIP3    H261031   3.011   4.920   4.434  0.7839  1.1957 -0.1753
13206TIP3   OH261032   2.533   0.365   6.560 -0.1833  0.8688  0.1577
13206TIP3    H161033   2.511   0.277   6.591 -1.7354  1.0654 -0.3163
13206TIP3    H261034   2.596   0.398   6.625 -0.7369 -0.0253  1.1814
13207TIP3   OH261035   6.030   5.014  16.359 -0.2597  0.5639  0.2638
13207TIP3    H161036   6.011   5.025  16.266  1.2720  0.9536 -0.0192
13207TIP3    H261037   6.009   4.922  16.377  1.6087 -0.1647 -1.0265
13208TIP3   OH261038   1.521   2.358   5.761  0.2035 -0.7158 -0.4680
13208TIP3    H161039   1.440   2.370   5.712  0.8321 -0.9709 -1.6111
13208TIP3    H261040   1.493   2.335   5.849 -0.9692  0.1629 -0.5860
13209TIP3   OH261041   4.035   6.697   2.888  0.3881  0.2642  0.4169
13209TIP3    H161042   3.960   6.702   2.829  1.6137  0.2314 -1.1958
13209TIP3    H261043   4.087   6.623   2.855  0.0354 -1.2276  2.8885
13210TIP3   OH261044   1.986   1.805  15.343  0.2338  0.1149  0.4836
13210TIP3    H161045   1.964   1.880  15.289 -1.0090  0.1287  0.9798
13210TIP3    H261046   1.917   1.801  15.409 -0.3905 -2.1451 -0.2223
13211TIP3   OH261047   4.238   1.613   6.039 -0.4862  0.4095  0.2907
13211TIP3    H161048   4.178   1.573   5.975 -1.9992  1.2585  1.1097
13211TIP3    H261049   4.209   1.704   6.046  1.2318  0.9898  0.3828
13212TIP3   OH261050   3.227   6.358   0.130  0.8542 -0.5934 -0.2438
13212TIP3    H161051   3.296   6.419   0.157  1.4116 -0.9418 -0.8565
13212TIP3    H261052   3.274   6.278   0.105  0.5270  0.1387 -3.5769
13213TIP3   OH261053   5.594   1.995  12.864  0.9310  0.1833 -0.7908
13213TIP3    H161054   5.599   1.914  12.814  0.7582  0.0664 -0.6195
13213TIP3    H261055   5.540   1.974  12.939  0.0490  0.7269 -1.2569
13214TIP3   OH261056   4.760   5.563  15.632  0.4304  0.0509  0.6805
13214TIP3    H161057   4.837   5.547  15.686  2.4508  3.5553 -0.8460
13214TIP3    H261058   4.743   5.657  15.640 -0.9067  0.2201 -2.4401
13215TIP3   OH261059   3.694   1.993   3.827  0.3099 -0.2685  0.5174
13215TIP3    H161060   3.693   1.899   3.847 -0.6751 -0.1626  1.0297
13215TIP3    H261061   3.758   2.029   3.887  0.9289 -0.6542  0.1001
13216TIP3   OH261062   0.455   3.564   2.031  0.4268  0.3676 -0.0934
13216TIP3    H161063   0.504   3.611   2.099  1.9497 -0.6312 -0.4438
13216TIP3    H261064   0.523   3.533   1.971 -0.6492 -1.0844 -0.6007
13217TIP3   OH261065   4.913   0.839  15.303  0.4007 -0.8542  0.1147
13217TIP3    H161066   4.955   0.917  15.267 -1.0730 -0.7778 -1.6191
13217TIP3    H261067   4.983   0.790  15.345  1.7894  0.2835 -0.8060
13218TIP3   OH261068   6.388   2.658  12.749 -0.2416 -0.3007 -0.1717
13218TIP3    H161069   6.295   2.670  12.733 -0.7978 -1.4755  1.7696
13218TIP3    H261070   6.395   2.567  12.781  1.4760 -0.0646  0.2158
13219TIP3   OH261071   4.986   4.552  11.513  0.5164  0.2266  0.6934
13219TIP3    H161072   5.029   4.503  11.443 -0.7661  0.3645 -0.2291
13219TIP3    H261073   5.041   4.629  11.526  0.9589  0.0205  0.0754
13220TIP3   OH261074   5.303   2.674   3.180 -0.2437 -0.1309 -0.4267
13220TIP3    H161075   5.353   2.601   3.145  0.1090  0.3893 -1.0474
13220TIP3    H261076   5.354   2.705   3.255  0.2374  0.2307 -0.8962
13221TIP3   OH261077   2.387   2.487  13.871  0.4385  0.2436  0.0181
13221TIP3    H161078   2.400   2.544  13.947 -1.2553 -1.3761  1.6189
13221TIP3    H261079   2.298   2.507  13.841  1.0422  0.7969 -1.5496
13222TIP3   OH261080   3.577   4.104  13.745 -0.4880 -0.1046 -0.1855
13222TIP3    H161081   3.583   4.059  13.660 -0.3602  0.5043 -0.5057
13222TIP3    H261082   3.654   4.074  13.793 -0.6985 -0.6527 -0.1868
13223TIP3   OH261083   5.073   3.042   4.059 -0.1217  0.8092  0.1029
13223TIP3    H161084   5.167   3.046   4.042 -0.2241  2.3126 -0.2540
13223TIP3    H261085   5.041   2.975   3.999  0.4047  1.9680 -1.5559
13224TIP3   OH261086   4.538   1.653  14.623 -0.6135  0.7513  0.2313
13224TIP3    H161087   4.486   1.646  14.703 -0.4279  0.8110  0.3596
13224TIP3    H261088   4.627   1.630  14.650 -0.4215  1.4269  0.1862
13225TIP3   OH261089   2.963   1.040   3.654 -0.6902  0.5358  0.2975
13225TIP3    H161090   2.956   1.051   3.749  1.3745  2.2270  0.3095
13225TIP3    H261091   2.901   0.969   3.634  2.4907 -3.7105  3.6170
13226TIP3   OH261092   6.453   0.959  14.817  0.3565 -0.3534  0.4157
13226TIP3    H161093   6.537   0.914  14.832  0.3448 -0.3792  0.4049
13226TIP3    H261094   6.473   1.028  14.754  0.2746 -0.6665  0.0396
13227TIP3   OH261095   4.542   4.848   4.678  0.1018 -0.0484 -0.2313
13227TIP3    H161096   4.614   4.843   4.616 -1.2818  0.9493 -1.9972
13227TIP3    H261097   4.506   4.760   4.681  0.3703 -0.1717 -0.6046
13228TIP3   OH261098   2.635   0.974   4.371 -0.5424 -0.1001 -0.3188
13228TIP3    H161099   2.584   0.958   4.291 -0.1034 -1.7832 -0.2973
13228TIP3    H261100   2.572   0.966   4.442 -0.7684  0.5447 -0.4446
13229TIP3   OH261101   0.857   1.841  10.864 -0.5963 -0.1395  0.7010
13229TIP3    H161102   0.929   1.778  10.873 -0.9239 -1.2662 -2.8822
13229TIP3    H261103   0.895   1.925  10.889  1.7660 -0.8564 -0.1731
13230TIP3   OH261104   2.451   0.611   0.448  0.7257 -0.0614  0.2386
13230TIP3    H161105   2.539   0.575   0.457  0.3849 -1.5967 -1.9282
13230TIP3    H261106   2.406   0.552   0.389 -0.7397  2.4550 -1.3669
13231TIP3   OH261107   3.646   6.610  13.629 -0.5165  0.4050  0.4341
13231TIP3    H161108   3.602   6.583  13.548 -0.1910  0.5387  0.2115
13231TIP3    H261109   3.639   6.534  13.686  0.2749 -0.1105 -0.1425
13232TIP3   OH261110   3.963   2.009  16.265 -0.0241  0.0545  0.1582
13232TIP3    H161111   3.881   1.967  16.291  1.0971 -1.7223  0.9679
13232TIP3    H261112   3.940   2.102  16.256 -1.6082 -0.0166  2.5833
13233TIP3   OH261113   5.245   0.541   3.572  0.1691 -0.1036  0.4112
13233TIP3    H161114   5.166   0.499   3.538  0.7765 -0.8329 -0.1147
13233TIP3    H261115   5.240   0.631   3.539 -1.4521  0.4664  2.0579
13234TIP3   OH261116   5.220   1.090  11.873  0.0621 -0.1114  0.5173
13234TIP3    H161117   5.240   1.183  11.877  0.4138 -0.1319 -0.5448
13234TIP3    H261118   5.253   1.055  11.955  3.4263  0.0550 -0.6072
13235TIP3   OH261119   3.185   3.744  17.216 -0.4925 -0.1551  0.2342
13235TIP3    H161120   3.141   3.676  17.165 -1.9912  0.9958 -0.0772
13235TIP3    H261121   3.277   3.721  17.212 -0.7651 -1.1326 -1.4627
13236TIP3   OH261122   4.389   1.010  17.149  0.0787 -0.3939 -0.3722
13236TIP3    H161123   4.344   0.940  17.103 -0.5883  0.1919 -0.6295
13236TIP3    H261124   4.319   1.056  17.197  0.7250 -0.8939  1.1145
13237TIP3   OH261125   6.240   0.737   2.582 -0.2870 -0.3022 -0.0701
13237TIP3    H161126   6.208   0.652   2.613  0.2153 -0.2546  0.6218
13237TIP3    H261127   6.187   0.756   2.505  0.6990 -2.0209 -1.2519
13238TIP3   OH261128   0.576   1.284   0.217  0.7078  0.3509  0.0476
13238TIP3    H161129   0.487   1.309   0.240  0.2380 -0.4450 -0.8166
13238TIP3    H261130   0.617   1.365   0.187 -0.2642  0.4402 -1.1221
13239TIP3   OH261131   2.552   3.749  16.109  0.0170 -0.3154  0.2828
13239TIP3    H161132   2.589   3.709  16.188  0.8047  2.5343  1.4729
13239TIP3    H261133   2.460   3.723  16.110 -0.7913  1.9027  3.8777
13240TIP3   OH261134   4.928   1.634   5.173  0.7530  0.2746 -0.1113
13240TIP3    H161135   4.877   1.639   5.253  0.2296 -0.3908 -0.3882
13240TIP3    H261136   5.002   1.693   5.187  0.6374  0.2083  0.8359
13241TIP3   OH261137   3.408   5.063   1.861 -0.3228  0.4998 -0.2241
13241TIP3    H161138   3.480   5.028   1.809 -0.5500  1.1903 -1.0222
13241TIP3    H261139   3.355   4.986   1.883  0.8772 -0.0688  0.7433
13242TIP3   OH261140   2.891   1.728   5.275 -0.0521 -0.2909  0.2437
13242TIP3    H161141   2.820   1.785   5.245 -0.4068 -0.4672  0.7339
13242TIP3    H261142   2.854   1.681   5.349  1.0145  0.6538  1.4359
13243TIP3   OH261143   4.787   2.357   4.012 -0.3204 -0.3665 -0.1301
13243TIP3    H161144   4.859   2.314   4.058 -0.5794 -0.6833 -0.0179
13243TIP3    H261145   4.813   2.357   3.920 -0.0384 -0.2012 -0.0511
13244TIP3   OH261146   1.416   2.957  11.609  0.9399  0.2549  0.5621
13244TIP3    H161147   1.470   3.025  11.649  2.3145 -0.3980 -0.1410
13244TIP3    H261148   1.464   2.930  11.531 -1.8163  1.8224 -1.9182
13245TIP3   OH261149   3.420   4.914   5.636 -0.2031 -0.1441 -0.5002
13245TIP3    H161150   3.354   4.920   5.566 -0.4824  0.6790 -0.1800
13245TIP3    H261151   3.483   4.850   5.604  0.0400  0.7076 -1.8155
13246TIP3   OH261152   3.206   1.763  14.761  0.5152  0.5208  0.2647
13246TIP3    H161153   3.177   1.853  14.750  1.2765  1.0940  2.3789
13246TIP3    H261154   3.129   1.716  14.792  0.5362  0.8788  0.8842
13247TIP3   OH261155   1.813   4.781  15.458  0.2967 -0.8977 -0.5826
13247TIP3    H161156   1.895   4.815  15.424 -0.7255  0.5344 -1.7342
13247TIP3    H261157   1.826   4.686  15.462  2.2075 -0.6633 -0.0910
13248TIP3   OH261158   2.703   5.605  13.314 -0.4216  0.3358  0.2657
13248TIP3    H161159   2.745   5.649  13.241 -1.4597  1.9981  0.6243
13248TIP3    H261160   2.776   5.568  13.365  0.4208  0.8289 -0.5596
13249TIP3   OH261161   4.957   1.362   6.000 -0.1145  0.6532  0.1414
13249TIP3    H161162   4.948   1.442   5.948  0.3908 -0.5908 -2.0317
13249TIP3    H261163   4.889   1.304   5.965 -0.8230  0.2731  2.0411
13250TIP3   OH261164   5.906   0.147   5.579 -0.3488  0.2387  0.5296
13250TIP3    H161165   5.859   0.092   5.641 -0.0901  0.1888  0.6836
13250TIP3    H261166   5.971   0.193   5.633  0.5912 -0.5916  0.1347
13251TIP3   OH261167   0.551   1.148   3.839 -0.4805 -0.2337 -0.2053
13251TIP3    H161168   0.626   1.122   3.785 -0.9801  0.1671 -1.1083
13251TIP3    H261169   0.533   1.071   3.893  0.3688 -0.4550 -0.2223
13252TIP3   OH261170   3.162   4.587   0.136  0.3698 -0.0293 -0.4889
13252TIP3    H161171   3.234   4.582   0.073  1.5105 -0.7205  0.8208
13252TIP3    H261172   3.203   4.569   0.221 -1.0899  1.0119  0.4889
13253TIP3   OH261173   3.302   3.215  12.188 -0.0203  0.0670  0.5951
13253TIP3    H161174   3.234   3.150  12.169 -1.8479  2.4152 -1.5557
13253TIP3    H261175   3.367   3.202  12.118 -1.8282  2.2192 -1.7023
13254TIP3   OH261176   3.217   3.496   5.518 -0.7178  0.2693  0.3395
13254TIP3    H161177   3.160   3.572   5.508  0.9013  1.2684 -2.5076
13254TIP3    H261178   3.172   3.426   5.469 -0.2199  0.6862 -0.7639
13255TIP3   OH261179   3.055   1.925  13.959 -0.4894  0.0856  0.6392
13255TIP3    H161180   3.066   1.832  13.937  1.0431 -0.1617  2.2356
13255TIP3    H261181   2.999   1.959  13.889  0.2028 -1.6753 -0.8717
13256TIP3   OH261182   1.308   0.094  13.525 -0.4020  0.1323 -0.4168
13256TIP3    H161183   1.275   0.008  13.551 -0.4353  0.1611 -0.3652
13256TIP3    H261184   1.342   0.080  13.436  0.7150 -0.2164  0.0561
13257TIP3   OH261185   2.537   2.858  13.696 -0.3463  0.7999 -0.5276
13257TIP3    H161186   2.489   2.885  13.774 -0.0250  0.6063 -0.2608
13257TIP3    H261187   2.470   2.823  13.638 -0.3421 -0.9474  0.4712
13258TIP3   OH261188   1.614   6.147   5.332 -0.3538 -0.1640 -0.2118
13258TIP3    H161189   1.671   6.162   5.407  1.6353 -3.1964 -0.9353
13258TIP3    H261190   1.528   6.130   5.370  0.0949  0.5555  1.1879
13259TIP3   OH261191   5.214   6.364  15.146  0.1284 -0.8241 -0.1736
13259TIP3    H161192   5.210   6.317  15.229  0.4569 -1.3496 -0.4549
13259TIP3    H261193   5.266   6.308  15.089 -3.2047 -2.3992 -1.9786
13260TIP3   OH261194   5.708   1.227   0.555  0.2658  0.1297  0.4044
13260TIP3    H161195   5.715   1.131   0.555  2.3910  0.2106 -0.7186
13260TIP3    H261196   5.750   1.254   0.637 -2.0050  0.0908  1.6479
13261TIP3   OH261197   0.274   2.108   2.976 -0.1174 -0.2950 -0.1702
13261TIP3    H161198   0.325   2.053   3.036 -0.5035 -1.6589 -1.0367
13261TIP3    H261199   0.277   2.195   3.014  0.9911 -0.8051  0.9692
13262TIP3   OH261200   3.297   3.372   0.792  0.2308  0.3288  0.0685
13262TIP3    H161201   3.207   3.348   0.815  1.1831 -1.8330  1.9596
13262TIP3    H261202   3.322   3.308   0.725  0.0830  1.6005 -1.2626
13263TIP3   OH261203   5.229   2.724  11.363  0.0264 -0.1544  0.0727
13263TIP3    H161204   5.267   2.676  11.436 -0.0491 -0.1628  0.1065
13263TIP3    H261205   5.178   2.659  11.315  0.4988 -0.2690 -0.2844
13264TIP3   OH261206   1.353   2.088  14.850 -0.0502 -0.0855  0.1745
13264TIP3    H161207   1.428   2.057  14.902 -1.2517 -2.6601  0.5399
13264TIP3    H261208   1.320   2.163  14.899 -0.3677 -1.6547  2.5351
13265TIP3   OH261209   0.641   1.925  16.914  0.2201 -0.4087  0.0187
13265TIP3    H161210   0.606   2.002  16.869  1.0042 -0.3752 -0.5430
13265TIP3    H261211   0.649   1.952  17.006  1.7420  0.6483 -0.3866
13266TIP3   OH261212   4.936   1.647  15.082  0.5980 -0.3722  0.1368
13266TIP3    H161213   4.910   1.687  15.165 -1.0761 -0.3234 -0.3647
13266TIP3    H261214   5.031   1.659  15.077  0.3796  2.0461  0.7830
13267TIP3   OH261215   5.490   5.602  11.625 -0.2339 -0.1835 -0.0864
13267TIP3    H161216   5.478   5.623  11.532 -0.0749  1.3565  0.2169
13267TIP3    H261217   5.464   5.682  11.671 -1.5274 -1.3486  1.2833
13268TIP3   OH261218   2.327   1.407  16.347  0.2423 -0.1049 -0.0669
13268TIP3    H161219   2.369   1.489  16.320  0.4752 -0.1701  0.0964
13268TIP3    H261220   2.237   1.414  16.313  1.0216 -0.9955 -2.5620
13269TIP3   OH261221   2.516   2.507  15.762  0.2554  0.2956  0.2076
13269TIP3    H161222   2.448   2.454  15.719  0.4747  0.1223  0.0727
13269TIP3    H261223   2.561   2.551  15.690  1.5162 -1.0480  0.1300
13270TIP3   OH261224   0.827   6.301  11.653 -0.0952  0.0034 -0.4150
13270TIP3    H161225   0.877   6.221  11.644 -0.5446 -0.5490  1.5494
13270TIP3    H261226   0.750   6.277  11.705  0.4961  1.9531  1.5284
13271TIP3   OH261227   6.530   4.914   3.412 -0.6199 -0.4222 -0.6624
13271TIP3    H161228   6.537   5.003   3.378  0.6948  0.2086  1.1240
13271TIP3    H261229   6.436   4.899   3.421 -0.8917  1.7677  1.3097
13272TIP3   OH261230   0.799   5.328  16.624  0.1774 -0.1615  0.4602
13272TIP3    H161231   0.895   5.323  16.618  0.1972 -0.4187  0.9715
13272TIP3    H261232   0.769   5.290  16.541  0.5312  1.4894 -0.4707
13273TIP3   OH261233   4.548   3.168   5.888  0.2974  0.0083  0.0590
13273TIP3    H161234   4.623   3.118   5.855 -1.2807 -2.3075 -0.2428
13273TIP3    H261235   4.499   3.192   5.809  0.8821  1.8974  0.2183
13274TIP3   OH261236   5.401   4.092  15.945  0.4107  0.6982  1.0910
13274TIP3    H161237   5.401   3.998  15.925 -1.8719  0.5311  1.5642
13274TIP3    H261238   5.492   4.113  15.964  0.7694 -1.7920  2.5243
13275TIP3   OH261239   6.325   5.640  16.290 -0.3987  0.0462  0.0701
13275TIP3    H161240   6.408   5.631  16.337 -0.8565  0.7666  1.0489
13275TIP3    H261241   6.281   5.555  16.300 -0.7144  0.3507  1.4055
13276TIP3   OH261242   6.127   3.945  13.242 -0.5303  0.1465 -0.4117
13276TIP3    H161243   6.219   3.971  13.247 -0.1234 -1.2622 -0.3000
13276TIP3    H261244   6.112   3.927  13.149 -0.0787 -1.6631 -0.1725
13277TIP3   OH261245   6.290   5.201   3.795  0.6384  0.0114  0.4322
13277TIP3    H161246   6.248   5.186   3.879 -0.0675 -3.3951 -0.3563
13277TIP3    H261247   6.222   5.181   3.730  2.6488 -3.4993 -0.8806
13278TIP3   OH261248   0.861   4.152  13.214 -0.2622  0.0317 -0.3594
13278TIP3    H161249   0.920   4.089  13.173 -0.8720 -0.2386 -0.8388
13278TIP3    H261250   0.892   4.237  13.184 -0.4465 -0.1427 -1.0430
13279TIP3   OH261251   0.757   1.579  14.041  0.0622 -0.2180  0.0725
13279TIP3    H161252   0.700   1.555  13.968  0.4556  0.2189 -0.3832
13279TIP3    H261253   0.824   1.634  14.002  0.2201  0.1054  0.7848
13280TIP3   OH261254   1.730   4.342  16.116 -0.1136 -0.0287 -0.1190
13280TIP3    H161255   1.719   4.379  16.029 -1.3609 -1.7793 -0.7649
13280TIP3    H261256   1.663   4.385  16.169 -0.9539 -0.6521 -0.6423
13281TIP3   OH261257   0.931   0.692  13.717 -0.0495 -0.5804 -0.3197
13281TIP3    H161258   0.850   0.657  13.680 -0.4252  0.0844 -0.1492
13281TIP3    H261259   0.909   0.782  13.742  0.5704 -0.5820  0.2773
13282TIP3   OH261260   6.511   4.981  16.491  0.1007 -0.5394  0.3944
13282TIP3    H161261   6.445   5.017  16.432 -0.9342 -2.5515  0.2599
13282TIP3    H261262   6.587   4.965  16.434 -0.7529 -2.0917 -0.3743
13283TIP3   OH261263   1.569   3.851  11.572 -1.0247  0.1370 -0.3897
13283TIP3    H161264   1.603   3.762  11.581  0.3347  0.6779  0.0998
13283TIP3    H261265   1.486   3.850  11.618 -1.4384 -1.0882 -1.1152
13284TIP3   OH261266   3.419   1.869  10.822 -0.4449  0.1453  0.2337
13284TIP3    H161267   3.419   1.955  10.781 -2.1238  0.2783  0.4475
13284TIP3    H261268   3.331   1.834  10.805  0.1162 -1.4105  0.3931
13285TIP3   OH261269   4.932   0.305   5.024 -0.2256 -0.3774  0.0086
13285TIP3    H161270   4.842   0.333   5.038 -0.4399 -1.7746  1.9465
13285TIP3    H261271   4.928   0.251   4.945 -1.0839 -0.3792  0.0420
13286TIP3   OH261272   3.779   0.031   5.842  0.0925  0.2470 -0.3437
13286TIP3    H161273   3.817  -0.028   5.776  1.5910  2.0807 -1.2323
13286TIP3    H261274   3.707  -0.019   5.881  0.1133 -1.4667 -2.3240
13287TIP3   OH261275   4.549   4.874   1.909 -0.0907  0.1309 -0.4263
13287TIP3    H161276   4.549   4.891   2.003 -1.5027  1.5812 -0.6390
13287TIP3    H261277   4.478   4.928   1.875 -1.0360 -1.9994 -2.0530
13288TIP3   OH261278   1.577   0.892   2.602  0.0439 -0.8616  0.0829
13288TIP3    H161279   1.562   0.910   2.695 -0.9383  0.1985 -0.2692
13288TIP3    H261280   1.642   0.957   2.575 -0.9935  0.0148 -0.3777
13289TIP3   OH261281   0.440   2.274   1.342 -0.2872 -0.1571  0.3032
13289TIP3    H161282   0.385   2.250   1.416 -0.0780 -0.2610  0.4249
13289TIP3    H261283   0.461   2.367   1.356 -4.2899  1.4053 -2.1335
13290TIP3   OH261284   2.510   3.255   3.287 -0.3549  0.1276 -0.4625
13290TIP3    H161285   2.441   3.199   3.322  2.3347 -2.5300  0.9894
13290TIP3    H261286   2.526   3.320   3.356  0.3952 -0.9737  0.4374
13291TIP3   OH261287   6.068   6.094  14.199  0.2015 -0.2881 -0.7065
13291TIP3    H161288   6.126   6.030  14.156  2.7167  0.8855  0.6970
13291TIP3    H261289   5.988   6.092  14.147  1.9458 -1.0903 -3.6351
13292TIP3   OH261290   1.963   1.632   6.529 -0.4928  0.3585  0.0751
13292TIP3    H161291   2.056   1.613   6.543 -0.6121 -0.0545  0.3233
13292TIP3    H261292   1.961   1.723   6.500 -0.1769  1.1701  2.3570
13293TIP3   OH261293   4.708   6.573   3.587  0.1962 -0.0564 -0.2683
13293TIP3    H161294   4.716   6.523   3.506 -1.0877  1.1631 -1.1869
13293TIP3    H261295   4.724   6.508   3.656 -2.0254 -1.9549 -1.3870
13294TIP3   OH261296   3.788   2.933   2.867  0.0678  0.3577 -0.3793
13294TIP3    H161297   3.756   3.015   2.905  1.1723  0.4373  0.4489
13294TIP3    H261298   3.745   2.865   2.919  0.8005  0.4553  0.3806
13295TIP3   OH261299   0.803   0.202   5.026  0.3538 -0.0431  0.5450
13295TIP3    H161300   0.747   0.148   5.082  0.4152 -0.1776  0.4798
13295TIP3    H261301   0.875   0.143   5.001 -0.9077 -0.7747 -1.6586
13296TIP3   OH261302   2.878   3.153   1.691 -0.1851  0.7830 -0.3615
13296TIP3    H161303   2.973   3.153   1.680 -0.1391 -1.5320 -0.4204
13296TIP3    H261304   2.865   3.143   1.785 -0.3567  0.3421 -0.4306
13297TIP3   OH261305   4.150   4.169  13.139  0.0742  0.2649  0.3114
13297TIP3    H161306   4.070   4.196  13.184  1.3220  1.1313  2.1515
13297TIP3    H261307   4.135   4.191  13.048 -2.4052 -1.1256  0.3031
13298TIP3   OH261308   2.485   3.853  14.821  0.7977 -0.4464 -0.6612
13298TIP3    H161309   2.546   3.927  14.826  0.3639  0.0103 -1.7374
13298TIP3    H261310   2.537   3.781  14.787  0.2496  0.6491 -4.2744
13299TIP3   OH261311   0.228   2.803  15.689 -0.0987 -0.1641 -0.3033
13299TIP3    H161312   0.227   2.899  15.697 -1.5430 -0.2119  0.5441
13299TIP3    H261313   0.173   2.773  15.762  1.7926 -1.7412  0.5691
13300TIP3   OH261314   5.761   3.890  12.727 -0.5227 -0.5609 -0.4164
13300TIP3    H161315   5.782   3.959  12.790  1.1207 -0.8458 -0.5855
13300TIP3    H261316   5.740   3.814  12.780 -0.7920 -0.3508 -0.2223
13301TIP3   OH261317   4.424   2.872  16.292  0.1939 -0.0188  0.3936
13301TIP3    H161318   4.455   2.936  16.356 -0.6149  0.1048  0.6819
13301TIP3    H261319   4.488   2.801  16.295 -0.3180 -0.4475  2.0293
13302TIP3   OH261320   2.556   4.131   4.673  0.2146  0.3294  0.5959
13302TIP3    H161321   2.505   4.187   4.731 -0.2921  0.6122 -0.1067
13302TIP3    H261322   2.603   4.072   4.732 -0.9550  0.0357  1.2762
13303TIP3   OH261323   2.730   6.563   0.497  0.2052  0.2363  0.4434
13303TIP3    H161324   2.690   6.533   0.579  0.3764 -1.9868 -0.2058
13303TIP3    H261325   2.821   6.533   0.503  0.1523 -0.1816 -0.6524
13304TIP3   OH261326   0.269   2.362   3.061 -0.4751  0.1554 -0.1092
13304TIP3    H161327   0.188   2.399   3.028  0.6420  1.2405 -1.8147
13304TIP3    H261328   0.333   2.432   3.053  1.2967 -1.5010 -1.6299
13305TIP3   OH261329   4.969   3.198   0.723  0.3273 -0.5112  0.4352
13305TIP3    H161330   4.987   3.292   0.728  0.9746 -0.6617  1.1615
13305TIP3    H261331   4.998   3.172   0.636 -0.7026  0.1239 -0.1171
13306TIP3   OH261332   3.927   4.861  14.788  0.0306 -0.6616  0.5750
13306TIP3    H161333   3.896   4.804  14.718  2.3325 -1.3298  0.0305
13306TIP3    H261334   3.934   4.804  14.864 -0.8461 -0.3191  0.9225
13307TIP3   OH261335   1.771   0.774   5.401 -0.0396  1.0106  0.1416
13307TIP3    H161336   1.694   0.814   5.441 -0.9194 -0.1164 -0.3530
13307TIP3    H261337   1.791   0.699   5.457  0.6868  1.2804  0.2502
13308TIP3   OH261338   1.609   4.340  12.526  0.1663 -0.2666 -0.4559
13308TIP3    H161339   1.638   4.429  12.504  2.0489 -0.9880 -1.0626
13308TIP3    H261340   1.556   4.313  12.451 -1.1743  0.6366  0.1279
13309TIP3   OH261341   1.856   1.664  16.178  0.2587  0.0826 -0.0006
13309TIP3    H161342   1.863   1.751  16.217  0.2602  0.6039 -1.1213
13309TIP3    H261343   1.793   1.674  16.108  2.1371 -0.1733 -1.8209
13310TIP3   OH261344   2.162   3.955   0.496 -0.1482 -0.4021  0.2251
13310TIP3    H161345   2.103   3.998   0.558 -1.6717 -1.7102 -0.2459
13310TIP3    H261346   2.115   3.958   0.412  0.8508 -0.7151 -0.3667
13311TIP3   OH261347   0.616   5.800   4.693 -0.6109 -0.4344 -0.1755
13311TIP3    H161348   0.640   5.815   4.602  0.7651 -0.2348  0.2003
13311TIP3    H261349   0.591   5.707   4.697 -0.9271 -0.3790 -0.7879
13312TIP3   OH261350   3.392   1.202  15.781  0.5351 -0.2759 -0.0582
13312TIP3    H161351   3.441   1.198  15.863  0.5175  0.8061  0.0192
13312TIP3    H261352   3.407   1.290  15.748 -1.8024  0.3148  0.2660
13313TIP3   OH261353   5.183   4.207   5.550 -0.2460  0.5903  0.0256
13313TIP3    H161354   5.101   4.257   5.557 -0.0690  1.2889 -1.9826
13313TIP3    H261355   5.244   4.252   5.607 -0.9892  0.6716  0.7703
13314TIP3   OH261356   0.317   3.206   4.016 -0.2075 -0.3516  0.0413
13314TIP3    H161357   0.284   3.117   4.032  0.8007 -1.0193 -1.3197
13314TIP3    H261358   0.411   3.200   4.035 -0.0317  0.2692 -0.6022
13315TIP3   OH261359   1.808   1.339   1.223 -0.0957 -0.9299 -0.0267
13315TIP3    H161360   1.753   1.285   1.165  1.1000 -0.2686 -1.8620
13315TIP3    H261361   1.819   1.285   1.301 -2.4235 -1.5330 -0.0485
13316TIP3   OH261362   3.876   1.125   0.130 -0.1345 -0.0719  0.2966
13316TIP3    H161363   3.788   1.096   0.105 -0.4283  0.8941  0.1793
13316TIP3    H261364   3.930   1.047   0.121 -0.9242 -0.6061  0.0830
13317TIP3   OH261365   2.219   0.656  17.034 -0.1964 -0.0834 -0.0985
13317TIP3    H161366   2.149   0.708  16.994  1.0539  1.8984  0.1520
13317TIP3    H261367   2.201   0.566  17.005 -2.0044  0.5682 -1.2076
13318TIP3   OH261368   2.043   6.555  11.800 -0.2416  0.5821 -0.3372
13318TIP3    H161369   2.119   6.604  11.769  0.4238  0.4224  0.9725
13318TIP3    H261370   2.048   6.471  11.754 -0.2429  0.9661 -1.0544
13319TIP3   OH261371   5.297   1.819   2.406 -0.2313  0.1147  0.2476
13319TIP3    H161372   5.344   1.740   2.431  0.2793  0.7250  1.2724
13319TIP3    H261373   5.283   1.810   2.312  0.0358 -1.0729  0.3094
13320TIP3   OH261374   0.514   1.345   1.241  0.3819  0.3888  0.5140
13320TIP3    H161375   0.539   1.286   1.312  1.1846 -1.2487 -1.0425
13320TIP3    H261376   0.419   1.355   1.250  0.2767 -0.8747  1.0445
13321TIP3   OH261377   3.641   3.705   0.890  0.1185  0.2832  0.0240
13321TIP3    H161378   3.701   3.680   0.960 -0.7801 -1.4657  0.2251
13321TIP3    H261379   3.677   3.787   0.856 -0.5235  2.3720  3.8478
13322TIP3   OH261380   5.675   4.907   3.907 -0.4319 -0.5323  0.3957
13322TIP3    H161381   5.682   4.935   3.816  0.3066 -1.4802  0.1427
13322TIP3    H261382   5.585   4.874   3.914 -1.3053  1.7577  0.6950
13323TIP3   OH261383   4.159   3.628  17.294 -0.0462 -0.4961 -0.4669
13323TIP3    H161384   4.074   3.607  17.333  2.2042 -2.1291  4.2588
13323TIP3    H261385   4.184   3.548  17.248 -0.1360 -0.8023  0.0130
13324TIP3   OH261386   4.147   4.055  13.781 -0.2110  0.0429  0.0041
13324TIP3    H161387   4.159   3.960  13.782  0.7105  0.1210 -1.1394
13324TIP3    H261388   4.132   4.079  13.873 -2.0533 -1.3764  0.1187
13325TIP3   OH261389   5.148   1.876  16.195  0.8524 -0.0957  0.0859
13325TIP3    H161390   5.118   1.838  16.112 -0.3960  0.8812  0.0623
13325TIP3    H261391   5.084   1.846  16.259  0.5907  0.8979  0.3003
13326TIP3   OH261392   1.289   0.176  11.873 -0.0946  0.1701  0.0946
13326TIP3    H161393   1.268   0.189  11.966  1.1774  0.2675  0.3829
13326TIP3    H261394   1.299   0.081  11.864 -2.2528 -0.0526 -0.4218
13327TIP3   OH261395   6.749   2.179  14.158 -0.3888  0.3958 -0.5567
13327TIP3    H161396   6.695   2.163  14.235 -2.0933  0.4811 -1.6805
13327TIP3    H261397   6.732   2.271  14.136 -0.6923  0.1006 -1.5936
13328TIP3   OH261398   6.155   1.159  13.871  0.3671  0.3425  0.7435
13328TIP3    H161399   6.136   1.180  13.779 -0.9841  0.0055  0.9298
13328TIP3    H261400   6.214   1.229  13.899  0.8761  0.4051 -0.3956
13329TIP3   OH261401   2.145   3.341   1.171 -0.6584 -0.0565 -0.6168
13329TIP3    H161402   2.227   3.334   1.122 -0.5019  0.3887 -0.4227
13329TIP3    H261403   2.080   3.365   1.105 -0.2010  1.8854 -0.4171
13330TIP3   OH261404   4.615   4.808  13.895 -0.3736 -0.6803 -0.4943
13330TIP3    H161405   4.678   4.773  13.958  0.1558  0.3523 -0.4189
13330TIP3    H261406   4.651   4.782  13.810 -0.2541 -0.7506 -0.4224
13331TIP3   OH261407   0.002   5.906   6.546 -0.7401 -0.5330 -0.1447
13331TIP3    H161408   0.041   5.821   6.568 -1.0677 -0.8248 -0.6783
13331TIP3    H261409  -0.086   5.902   6.583 -1.1733 -0.8925 -1.1937
13332TIP3   OH261410   1.901   1.548   2.867 -0.5415 -0.2463 -0.3644
13332TIP3    H161411   1.876   1.633   2.903  1.5321  0.4210 -0.4044
13332TIP3    H261412   1.840   1.534   2.794 -1.0676  1.0663 -0.2069
13333TIP3   OH261413   5.159   4.565   3.449  0.2922  0.2352 -0.2131
13333TIP3    H161414   5.103   4.591   3.523  0.2576  1.4695 -0.6395
13333TIP3    H261415   5.209   4.644   3.428 -0.7818  0.4063 -2.4672
13334TIP3   OH261416   3.174   5.890  14.428 -0.2585 -0.4165 -0.0610
13334TIP3    H161417   3.093   5.938  14.445 -0.2211 -0.1963 -0.4766
13334TIP3    H261418   3.242   5.941  14.473 -0.1033  0.3759 -1.1454
13335TIP3   OH261419   4.463   6.073  12.875  0.4560 -0.6856  0.0942
13335TIP3    H161420   4.559   6.064  12.876  0.6829  1.2465  2.0879
13335TIP3    H261421   4.448   6.167  12.868 -1.3695 -1.0320 -1.4992
13336TIP3   OH261422   0.366   4.767   5.531  0.0258  0.4152 -0.2549
13336TIP3    H161423   0.324   4.702   5.476  0.0185  1.1013 -1.0845
13336TIP3    H261424   0.297   4.833   5.546 -0.4421 -0.4651  1.8223
13337TIP3   OH261425   3.209   4.087  16.452  0.5322 -0.1598 -0.3859
13337TIP3    H161426   3.291   4.060  16.495  0.3040  1.5283  1.2711
13337TIP3    H261427   3.140   4.048  16.505  0.2622  0.7923 -0.0041
13338TIP3   OH261428   4.737   0.991  11.373 -0.5311  0.4322  0.1040
13338TIP3    H161429   4.737   1.075  11.326  0.9381 -0.0809 -0.8914
13338TIP3    H261430   4.818   0.993  11.424  0.3598 -1.0271 -1.1828
13339TIP3   OH261431   1.344   3.733  10.853 -0.0331  0.6324  0.4367
13339TIP3    H161432   1.347   3.763  10.762 -1.1799  0.5785  0.3718
13339TIP3    H261433   1.294   3.651  10.850  1.4575 -0.3359  0.8738
13340TIP3   OH261434   3.861   2.941   0.106  0.2291 -0.2226  0.5239
13340TIP3    H161435   3.857   2.958   0.012 -1.0339 -0.5297  0.5025
13340TIP3    H261436   3.862   2.846   0.114  3.0254 -0.2656  0.7765
13341TIP3   OH261437   4.042   2.487  10.865 -0.0223 -0.3897 -1.0502
13341TIP3    H161438   4.127   2.455  10.896 -0.2140  1.4210  1.7526
13341TIP3    H261439   4.064   2.545  10.792  1.5698  1.9975  1.1341
13342TIP3   OH261440   3.444   6.497   5.394  0.0849 -0.7152  0.4549
13342TIP3    H161441   3.532   6.534   5.385  0.1237 -1.1100 -0.9850
13342TIP3    H261442   3.456   6.422   5.451 -0.1545  1.8783  4.2875
13343TIP3   OH261443   0.644   2.170   5.038 -0.0612  0.1039 -0.1196
13343TIP3    H161444   0.642   2.124   5.122 -1.1171  0.2972 -0.0249
13343TIP3    H261445   0.569   2.136   4.990 -0.8785  1.7064 -0.0366
13344TIP3   OH261446   0.487   1.375  14.762 -0.0923  0.4736 -0.0469
13344TIP3    H161447   0.501   1.434  14.687  0.6429  1.8504  1.1196
13344TIP3    H261448   0.557   1.310  14.755 -0.5179  0.1039 -0.9980
13345TIP3   OH261449   3.105   6.648  11.754 -0.6339  0.1220 -0.1055
13345TIP3    H161450   3.117   6.554  11.738  0.3543  0.0950  0.6730
13345TIP3    H261451   3.182   6.673  11.804  0.0357  1.7459 -1.8293
13346TIP3   OH261452   6.397   6.735  12.975  0.7982  0.1482  0.5816
13346TIP3    H161453   6.438   6.735  12.888  1.2710 -1.2480  0.7780
13346TIP3    H261454   6.347   6.817  12.978 -0.9997 -0.7432 -1.8564
13347TIP3   OH261455   0.430   5.462  11.653 -0.4455 -0.0508 -0.6422
13347TIP3    H161456   0.519   5.427  11.662 -0.4973  0.1319  0.8352
13347TIP3    H261457   0.441   5.557  11.656 -0.7774 -0.0290  0.9360
13348TIP3   OH261458   3.700   3.732   4.436 -0.3972  0.1643 -0.5012
13348TIP3    H161459   3.636   3.777   4.382  0.3290  0.0227 -1.5044
13348TIP3    H261460   3.735   3.663   4.380 -1.3992 -1.6224  0.9615
13349TIP3   OH261461   5.109   6.717  16.051 -0.2929 -0.6317  0.1212
13349TIP3    H161462   5.028   6.670  16.031 -0.1093 -0.0137 -2.3636
13349TIP3    H261463   5.089   6.808  16.031  0.5219 -0.1936  1.2033
13350TIP3   OH261464   3.841   4.397   0.059  0.0503  0.7004  0.5946
13350TIP3    H161465   3.904   4.448   0.110 -0.1774 -0.1910  1.7904
13350TIP3    H261466   3.789   4.350   0.124 -2.8375  2.4467 -0.2205
13351TIP3   OH261467   6.698   3.400  16.117 -0.0840  0.2100 -0.1733
13351TIP3    H161468   6.645   3.321  16.122  2.3078 -1.5228 -0.4616
13351TIP3    H261469   6.657   3.460  16.179 -2.7771 -0.6724 -0.9357
13352TIP3   OH261470   2.042   3.572   5.749  1.3115 -0.2201 -0.4855
13352TIP3    H161471   2.096   3.550   5.825  0.0277  1.2585  0.9215
13352TIP3    H261472   1.959   3.527   5.765  0.9350  0.3223 -0.8976
13353TIP3   OH261473   2.568   0.453   5.933  0.2024 -0.0162 -0.1984
13353TIP3    H161474   2.571   0.546   5.957  0.9441 -0.4748  1.6255
13353TIP3    H261475   2.553   0.408   6.016 -1.1414 -1.4885 -1.1969
13354TIP3   OH261476   5.778   3.168   0.600 -0.4745 -0.0895  0.2204
13354TIP3    H161477   5.758   3.256   0.568  0.9560  0.1729 -0.0386
13354TIP3    H261478   5.761   3.172   0.694  0.4872  0.7770  0.3788
13355TIP3   OH261479   5.598   6.027  16.393  0.1555 -0.2060  0.2993
13355TIP3    H161480   5.659   6.009  16.464 -0.5181 -0.4222  0.8298
13355TIP3    H261481   5.621   6.116  16.365  0.4661 -0.1397  0.7434
13356TIP3   OH261482   3.577   0.027  15.054 -0.4754 -0.9417  0.5956
13356TIP3    H161483   3.531   0.100  15.013  0.9010  0.4499  1.4277
13356TIP3    H261484   3.526   0.007  15.132 -0.1136  0.0658  1.0961
13357TIP3   OH261485   5.055   5.518  14.719 -0.2162  0.3506  0.4234
13357TIP3    H161486   5.131   5.462  14.702  2.5686  3.1876  2.3786
13357TIP3    H261487   5.054   5.580  14.646 -0.9985  0.0333  0.1555
13358TIP3   OH261488   4.962   1.412  11.951  0.2665  0.0772  0.2157
13358TIP3    H161489   4.871   1.426  11.977  0.2076  3.1078 -1.1712
13358TIP3    H261490   5.012   1.417  12.033 -0.6547  0.2428  0.7710
13359TIP3   OH261491   5.060   4.778  15.717  0.6285 -0.0792  0.3458
13359TIP3    H161492   4.979   4.807  15.759  0.9937  0.1303  0.9121
13359TIP3    H261493   5.041   4.779  15.623 -0.0600 -0.1456  0.4835
13360TIP3   OH261494   6.184   1.551   4.642  0.0726 -0.5142  0.1810
13360TIP3    H161495   6.167   1.589   4.556 -0.6976 -1.7010 -0.2244
13360TIP3    H261496   6.270   1.511   4.634 -0.4215 -1.5034 -0.3890
13361TIP3   OH261497   6.682   2.827  17.395 -0.2178  0.2600 -0.1017
13361TIP3    H161498   6.648   2.801  17.481 -3.4003 -2.3759 -1.9378
13361TIP3    H261499   6.767   2.782  17.389  0.0191  0.3992  1.5571
13362TIP3   OH261500   3.984   5.352  15.058  0.3963 -0.2718  0.6068
13362TIP3    H161501   4.065   5.304  15.071  0.7918  0.5086  1.1068
13362TIP3    H261502   3.988   5.382  14.967  0.4203 -0.6801  0.4737
13363TIP3   OH261503   3.465   6.341  14.469  0.0500 -0.2572  0.4082
13363TIP3    H161504   3.457   6.399  14.545  0.7333  0.3356  0.0388
13363TIP3    H261505   3.380   6.346  14.425  0.2041  0.7098  0.2085
13364TIP3   OH261506   2.315   2.995   2.822 -0.3963 -0.0598 -0.0520
13364TIP3    H161507   2.226   3.016   2.793 -0.5409 -0.6282 -0.0332
13364TIP3    H261508   2.307   2.911   2.866  0.0548  0.1629  0.4691
13365TIP3   OH261509   0.640   4.185   6.046 -0.4020 -0.0645 -0.4328
13365TIP3    H161510   0.700   4.213   6.115  0.9952 -2.0206 -0.7997
13365TIP3    H261511   0.628   4.263   5.992  0.0299  0.9579  0.8965
13366TIP3   OH261512   0.385   2.387  16.643 -0.1150  0.8392 -0.1026
13366TIP3    H161513   0.293   2.386  16.669 -0.7206  0.2863 -2.0668
13366TIP3    H261514   0.401   2.477  16.614  0.2170  1.1425  0.9753
13367TIP3   OH261515   5.161   0.435  12.939 -0.6013  0.3338 -0.2164
13367TIP3    H161516   5.159   0.430  12.843 -0.1887 -0.5358 -0.1914
13367TIP3    H261517   5.070   0.439  12.965 -0.7960 -1.0069 -0.5895
13368TIP3   OH261518   5.121   4.158  11.197 -0.3946  0.1660 -0.5827
13368TIP3    H161519   5.074   4.076  11.180 -0.2107 -0.6315  2.2506
13368TIP3    H261520   5.053   4.225  11.200 -0.9078 -0.3607 -0.1968
13369TIP3   OH261521   5.057   5.323  15.661 -0.3243 -0.1423 -0.0581
13369TIP3    H161522   5.094   5.235  15.652 -0.6291 -0.4581  1.4857
13369TIP3    H261523   5.031   5.328  15.753 -0.7941  1.3811 -0.2600
13370TIP3   OH261524   1.482   5.877   4.205 -0.0166 -0.6414 -0.6594
13370TIP3    H161525   1.494   5.786   4.235  0.5178 -0.3985 -0.1027
13370TIP3    H261526   1.402   5.906   4.248 -0.9548 -1.2728 -1.9136
13371TIP3   OH261527   1.823   6.682  12.581  0.3605  0.2479 -0.4858
13371TIP3    H161528   1.905   6.725  12.554  0.0959  2.1889  1.4914
13371TIP3    H261529   1.842   6.649  12.669 -1.3961  2.2424  0.7399
13372TIP3   OH261530   2.922   1.013  11.680  0.0089 -0.3543 -0.4411
13372TIP3    H161531   2.873   0.938  11.716  0.2673 -0.7915 -0.9872
13372TIP3    H261532   2.989   0.973  11.625  1.5417  0.1988  0.9373
13373TIP3   OH261533   2.424   5.337  16.619  0.1461 -0.4809 -0.0197
13373TIP3    H161534   2.417   5.430  16.639 -2.0209 -0.1268 -1.9760
13373TIP3    H261535   2.334   5.304  16.624  0.4415 -1.8227 -2.0328
13374TIP3   OH261536   5.615   4.127  14.419  0.3539 -0.6168  0.0378
13374TIP3    H161537   5.670   4.060  14.460 -1.1253 -1.0541  1.4238
13374TIP3    H261538   5.527   4.090  14.421  0.0097 -0.1150 -2.4892
13375TIP3   OH261539   5.216   4.226  16.098  0.1812 -0.2671  0.0186
13375TIP3    H161540   5.268   4.175  16.035  0.2448  0.2429 -0.3502
13375TIP3    H261541   5.232   4.317  16.073  2.1468  0.1143  2.2749
13376TIP3   OH261542   4.124   1.513   5.444 -0.5955 -0.1442 -0.5040
13376TIP3    H161543   4.130   1.596   5.398  1.0668 -0.2511 -0.5438
13376TIP3    H261544   4.069   1.531   5.521 -0.7024  0.8312 -0.8051
13377TIP3   OH261545   6.680   2.890   2.946  0.6595  0.0147  0.8845
13377TIP3    H161546   6.670   2.820   3.010  0.9246  1.0983  2.1485
13377TIP3    H261547   6.767   2.876   2.908  1.1133  0.2075  1.8328
13378TIP3   OH261548   3.693   1.536   1.544  0.5632  0.2497  0.1875
13378TIP3    H161549   3.762   1.601   1.547  0.4598  0.5608 -2.1774
13378TIP3    H261550   3.622   1.579   1.497  0.5583 -1.5825 -1.6115
13379TIP3   OH261551   2.387   1.014  15.832 -0.1587 -0.7184 -0.0861
13379TIP3    H161552   2.400   0.933  15.783 -0.3997 -3.0078  3.2524
13379TIP3    H261553   2.306   1.000  15.881 -1.7163  2.7525 -1.3617
13380TIP3   OH261554   4.217   3.905  12.030  0.2999 -0.2468  0.0822
13380TIP3    H161555   4.296   3.939  11.988 -0.2194 -1.0184 -1.6038
13380TIP3    H261556   4.188   3.976  12.087  1.5235  0.5099 -0.1924
13381TIP3   OH261557   4.030   5.319  11.657  0.1970  0.0268  0.2217
13381TIP3    H161558   4.125   5.332  11.647  0.3880  2.7843  3.5628
13381TIP3    H261559   4.022   5.236  11.703  0.9098 -0.5791 -0.7127
13382TIP3   OH261560   6.532   4.902   3.921  0.0107 -0.2477  0.8543
13382TIP3    H161561   6.578   4.883   3.839 -1.2834  0.8879 -0.1569
13382TIP3    H261562   6.542   4.996   3.933  1.6644 -0.5982  2.9644
13383TIP3   OH261563   4.843   5.603   3.485 -0.1463  0.2764  0.2453
13383TIP3    H161564   4.793   5.567   3.412  0.7777  0.7480 -0.6523
13383TIP3    H261565   4.815   5.552   3.561 -0.5004 -0.8190 -0.5874
13384TIP3   OH261566   0.594   1.392  16.186  0.3065 -0.2935 -0.5270
13384TIP3    H161567   0.517   1.395  16.243  0.5795 -0.7033 -0.1275
13384TIP3    H261568   0.562   1.424  16.102  0.5271  2.9134  0.5071
13385TIP3   OH261569   4.568   5.274  12.022  0.3548  0.1777 -0.2234
13385TIP3    H161570   4.543   5.221  12.097 -0.0797 -0.0146 -0.5045
13385TIP3    H261571   4.486   5.291  11.975  0.3544  1.8081  0.3190
13386TIP3   OH261572   3.712   6.223   3.751 -0.5855  0.5683  0.5010
13386TIP3    H161573   3.718   6.129   3.767 -0.7750  0.1733 -1.5229
13386TIP3    H261574   3.619   6.238   3.732 -0.0870  0.5699 -2.2493
13387TIP3   OH261575   6.082   3.086   2.523 -0.0475  0.4978  0.0182
13387TIP3    H161576   6.128   3.027   2.463 -1.5764  1.6824 -2.4789
13387TIP3    H261577   6.001   3.108   2.477 -0.4141  2.9924  1.6913
13388TIP3   OH261578   5.930   3.326   6.039 -0.1181  0.5441 -0.2600
13388TIP3    H161579   5.959   3.369   6.120  2.2672  0.3815 -0.9412
13388TIP3    H261580   5.865   3.386   6.002 -3.0576 -0.4222  2.7889
13389TIP3   OH261581   4.672   0.853   2.910 -0.0678 -0.2698 -0.3355
13389TIP3    H161582   4.670   0.875   2.817 -0.5282 -0.7838 -0.4553
13389TIP3    H261583   4.754   0.805   2.922  1.2587  1.9633  0.0559
13390TIP3   OH261584   5.464   5.236   5.240 -0.5942  0.2246 -0.1235
13390TIP3    H161585   5.422   5.299   5.182 -1.9859 -0.0665  0.5100
13390TIP3    H261586   5.417   5.246   5.323  0.4958 -0.2604  0.5710
13391TIP3   OH261587   2.239   0.397   0.581  0.6704 -0.1789  0.3673
13391TIP3    H161588   2.308   0.365   0.523  0.8328  1.2884 -0.3173
13391TIP3    H261589   2.263   0.367   0.668 -0.2065 -3.4783 -0.4084
13392TIP3   OH261590   0.128   0.555  10.601  0.4419 -0.3963  0.7185
13392TIP3    H161591   0.103   0.478  10.651  1.0005 -0.0535  1.5497
13392TIP3    H261592   0.223   0.560  10.611  0.6210 -0.5148 -0.6821
13393TIP3   OH261593   1.865   1.855  12.161  0.2558 -0.0970  0.2988
13393TIP3    H161594   1.872   1.876  12.068 -4.1919  4.0908  0.4675
13393TIP3    H261595   1.951   1.875  12.197  1.6919 -0.4457 -2.6007
13394TIP3   OH261596   0.147   5.910  14.298 -0.0660 -0.3675 -0.0538
13394TIP3    H161597   0.104   5.990  14.330 -0.5217  0.4226 -2.3614
13394TIP3    H261598   0.078   5.844  14.299  0.1215 -0.5531  1.2089
13395TIP3   OH261599   0.448   4.776  13.033 -0.1408  0.6708 -0.3589
13395TIP3    H161600   0.529   4.734  13.001  0.4856  1.5384  0.0525
13395TIP3    H261601   0.402   4.802  12.953 -0.3271 -0.3695 -0.6167
13396TIP3   OH261602   6.190   1.448   3.090  0.1658  0.4491 -0.4780
13396TIP3    H161603   6.169   1.355   3.075  1.8818  0.2700 -2.1337
13396TIP3    H261604   6.112   1.495   3.059 -0.4030 -0.4065 -0.3823
13397TIP3   OH261605   6.345   4.812  16.627 -0.0145  0.3977  0.3070
13397TIP3    H161606   6.398   4.831  16.704  2.3307 -1.2948 -0.7931
13397TIP3    H261607   6.360   4.885  16.568  1.9013 -0.4556 -0.3436
13398TIP3   OH261608   1.197   2.719   2.359  0.0371 -0.0651  0.3284
13398TIP3    H161609   1.278   2.746   2.401  0.1389 -0.5945  0.4887
13398TIP3    H261610   1.218   2.633   2.321 -0.9120 -1.0209  1.8520
13399TIP3   OH261611   0.714   5.713   6.275  0.0249  0.2532  0.6189
13399TIP3    H161612   0.651   5.664   6.223  0.6422  1.4046 -1.3163
13399TIP3    H261613   0.669   5.794   6.298  0.5696  0.8349 -0.2947
13400TIP3   OH261614   0.939   0.028   0.809  0.1291  0.0779  0.0160
13400TIP3    H161615   0.939   0.117   0.774 -1.1943 -0.1187 -0.5319
13400TIP3    H261616   0.956  -0.028   0.733  0.5922 -0.1733  0.2968
13401TIP3   OH261617   2.167   2.551   5.221  0.0371 -0.0329 -0.1188
13401TIP3    H161618   2.112   2.579   5.293 -1.7283  0.9463 -1.7395
13401TIP3    H261619   2.109   2.501   5.164  0.5513  1.6005 -2.2301
13402TIP3   OH261620   3.268   1.054   3.809 -0.0428  0.4270  0.2898
13402TIP3    H161621   3.331   1.012   3.750  0.9066  0.7171  1.0681
13402TIP3    H261622   3.182   1.029   3.774  0.4938  0.3566 -1.0346
13403TIP3   OH261623   6.262   3.698  14.046  0.7240  0.3463  0.1559
13403TIP3    H161624   6.308   3.622  14.081  1.2413 -0.3383 -1.8688
13403TIP3    H261625   6.178   3.664  14.015  1.3296  0.3555 -1.6088
13404TIP3   OH261626   3.745   3.192  16.132 -0.4760 -0.8197  0.2143
13404TIP3    H161627   3.730   3.211  16.225  2.5987  0.5552  0.5536
13404TIP3    H261628   3.705   3.265  16.086 -1.7311 -1.3376  0.4595
13405TIP3   OH261629   3.187   1.524  15.323  0.2029 -0.0323  0.1755
13405TIP3    H161630   3.231   1.560  15.246 -0.0650  0.9926  0.4893
13405TIP3    H261631   3.102   1.494  15.290 -1.6311  4.0324  0.6802
13406TIP3   OH261632   2.456   5.600  13.504 -0.2248 -0.6202 -0.2592
13406TIP3    H161633   2.544   5.564  13.502  0.2834  0.4811  1.0751
13406TIP3    H261634   2.465   5.687  13.465 -0.3629  0.1732  1.4205
13407TIP3   OH261635   0.924   3.688   4.749 -0.2408  0.1311  0.5440
13407TIP3    H161636   0.854   3.664   4.688  2.0381 -0.0327 -2.2508
13407TIP3    H261637   0.921   3.784   4.752 -0.2072  0.1582 -0.0859
13408TIP3   OH261638   3.922   4.343   6.469 -0.3659  0.2173 -0.2440
13408TIP3    H161639   3.933   4.336   6.564 -0.3812  0.1076 -0.2502
13408TIP3    H261640   3.894   4.256   6.441 -0.0282  0.1507 -0.3925
13409TIP3   OH261641   6.102   4.612  14.678 -0.0449 -0.1463 -0.7797
13409TIP3    H161642   6.051   4.672  14.624 -1.4232 -1.0105 -0.4922
13409TIP3    H261643   6.062   4.526  14.663 -0.4040 -0.4353  1.4896
13410TIP3   OH261644   5.420   0.105  14.570  0.7261  0.0051 -0.5755
13410TIP3    H161645   5.506   0.064  14.582 -0.3870 -2.3221 -0.0656
13410TIP3    H261646   5.434   0.197  14.595  2.4738 -0.8623  2.0827
13411TIP3   OH261647   5.689   4.905   3.223  0.3099 -0.5000 -0.2781
13411TIP3    H161648   5.708   4.996   3.200 -1.8251  0.2002  0.4701
13411TIP3    H261649   5.639   4.871   3.148  0.6869 -0.9132 -0.3463
13412TIP3   OH261650   1.833   1.700   3.797 -0.0567 -0.5119  0.8075
13412TIP3    H161651   1.850   1.793   3.785  3.2031 -1.0600  0.3550
13412TIP3    H261652   1.807   1.668   3.711  0.8665 -0.3563  0.4599
13413TIP3   OH261653   4.598   0.653  14.538  0.1091 -0.2394  0.0361
13413TIP3    H161654   4.504   0.634  14.538  0.1840 -0.6514  0.7514
13413TIP3    H261655   4.628   0.629  14.450 -0.4016 -0.3731 -0.1031
13414TIP3   OH261656   3.608   3.832  16.442  0.2885  0.1498  0.1565
13414TIP3    H161657   3.571   3.846  16.530  0.0524  0.4380  0.0163
13414TIP3    H261658   3.556   3.889  16.386 -0.0997 -0.6464 -0.3003
13415TIP3   OH261659   1.467   2.993  12.987 -0.0446 -0.2203 -0.4105
13415TIP3    H161660   1.460   2.904  13.021  0.1787 -0.0219  0.1581
13415TIP3    H261661   1.395   3.041  13.029  1.4427  0.5397  1.4300
13416TIP3   OH261662   3.354   3.348  12.771 -0.3600  0.5954  0.2438
13416TIP3    H161663   3.270   3.312  12.741  0.0800 -0.3564  0.0932
13416TIP3    H261664   3.397   3.274  12.815  0.2078  1.1942  0.7125
13417TIP3   OH261665   1.454   3.373   3.672  0.7403  0.8176 -0.6255
13417TIP3    H161666   1.406   3.293   3.694  2.3733  0.4430  2.0752
13417TIP3    H261667   1.424   3.437   3.737  0.8419  1.8483 -1.5653
13418TIP3   OH261668   5.173   5.160   2.559  0.0762 -0.0001  0.1600
13418TIP3    H161669   5.200   5.128   2.473 -1.9765  2.1774 -1.4318
13418TIP3    H261670   5.080   5.137   2.565  0.4026 -1.0246  2.3101
13419TIP3   OH261671   6.439   5.868   0.746 -0.4459  0.4468 -0.2480
13419TIP3    H161672   6.497   5.793   0.734 -0.2391  0.7007 -0.8592
13419TIP3    H261673   6.353   5.836   0.718 -0.3358  0.4678 -0.6190
13420TIP3   OH261674   5.040   6.046  10.234 -0.2365  0.5133  0.1114
13420TIP3    H161675   5.046   6.141  10.240 -0.0983  0.4241  2.4447
13420TIP3    H261676   5.018   6.018  10.323  1.9144 -1.7788  0.0313
13421TIP3   OH261677   4.588   2.538  14.617  0.3333  0.4061 -0.1335
13421TIP3    H161678   4.541   2.586  14.549  1.8342  0.4140 -1.2229
13421TIP3    H261679   4.659   2.494  14.570 -0.9237 -2.9028  0.7950
13422TIP3   OH261680   1.166   3.705   0.150 -0.0274 -0.0805  0.4798
13422TIP3    H161681   1.138   3.633   0.206 -0.9634  1.7417  2.4731
13422TIP3    H261682   1.251   3.731   0.185  0.4102 -0.3288 -0.3706
13423TIP3   OH261683   4.715   5.999  12.888  0.2299  0.5072 -0.0153
13423TIP3    H161684   4.762   5.927  12.845 -0.4694  0.5195 -0.8208
13423TIP3    H261685   4.784   6.062  12.910  0.6393  0.4012 -0.9351
13424TIP3   OH261686   2.197   5.256   5.429 -0.5077  0.1757 -0.2255
13424TIP3    H161687   2.287   5.246   5.396 -0.0154  2.1438  0.3930
13424TIP3    H261688   2.147   5.286   5.353 -0.5680 -0.5471 -0.4770
13425TIP3   OH261689   1.132   4.018  11.181  0.1620 -0.2494  0.2997
13425TIP3    H161690   1.146   4.087  11.116  0.6941  1.4842  2.1347
13425TIP3    H261691   1.202   4.031  11.245 -0.3766 -1.8330  1.2647
13426TIP3   OH261692   1.996   2.960  13.904  0.5588 -0.6093 -0.3511
13426TIP3    H161693   1.906   2.966  13.874  0.5258  0.3343 -0.0723
13426TIP3    H261694   1.991   2.907  13.984 -0.0362  1.1366  0.8057
13427TIP3   OH261695   3.087   6.520   3.233 -0.1935 -0.0499 -0.4478
13427TIP3    H161696   3.168   6.536   3.185 -1.4975 -0.2947 -2.8568
13427TIP3    H261697   3.029   6.592   3.207 -0.7114  0.2922  1.4652
13428TIP3   OH261698   4.915   4.685   6.039 -0.0271  0.1803  0.4738
13428TIP3    H161699   4.921   4.771   6.080  0.3688  0.1853  0.4140
13428TIP3    H261700   4.835   4.689   5.986  0.3879  0.7851 -0.1343
13429TIP3   OH261701   0.908   0.645  13.393  0.5783 -0.2678 -0.5397
13429TIP3    H161702   0.882   0.723  13.442  2.2532  0.0634 -0.1289
13429TIP3    H261703   0.834   0.585  13.403 -0.1411  0.7216  0.3266
13430TIP3   OH261704   1.454   3.761  14.860  0.1901  0.2340 -0.1469
13430TIP3    H161705   1.496   3.721  14.937  0.4874  2.6929  1.0479
13430TIP3    H261706   1.391   3.695  14.832 -1.1613 -0.1783  3.2918
13431TIP3   OH261707   5.587   4.608  14.212 -0.0799  0.4832  0.8867
13431TIP3    H161708   5.536   4.682  14.245 -1.3286 -0.7565  1.9018
13431TIP3    H261709   5.555   4.533  14.262  2.8089 -0.3895  1.5947
13432TIP3   OH261710   0.374   4.350   4.679 -0.0812  0.3348 -0.2481
13432TIP3    H161711   0.413   4.274   4.722 -0.8279 -0.1123 -0.3396
13432TIP3    H261712   0.306   4.314   4.622 -0.8684  1.0973  0.1589
13433TIP3   OH261713   6.613   6.583  11.152 -0.0020 -0.1747 -0.0701
13433TIP3    H161714   6.648   6.669  11.176 -0.9374  0.2625 -0.2272
13433TIP3    H261715   6.690   6.532  11.128  0.7920 -0.0859  2.1159
13434TIP3   OH261716   1.642   3.725  13.151 -0.0681  0.6738  0.4465
13434TIP3    H161717   1.668   3.752  13.063 -1.7614  1.9105  0.2706
13434TIP3    H261718   1.697   3.778  13.209 -1.1797  2.3098  0.0860
13435TIP3   OH261719   0.838   1.826   6.404 -0.2753  0.6560 -0.4036
13435TIP3    H161720   0.762   1.827   6.345 -0.3344 -1.3102 -0.4387
13435TIP3    H261721   0.805   1.862   6.486 -1.0823  0.4153 -0.6124
13436TIP3   OH261722   3.929   6.596   5.041 -0.1752  0.2444 -0.0487
13436TIP3    H161723   3.930   6.540   4.964  2.1565  0.4068 -0.1969
13436TIP3    H261724   3.860   6.660   5.023  0.4799  0.4305 -2.1284
13437TIP3   OH261725   1.479   0.142   4.506  0.7999 -0.3148 -0.2088
13437TIP3    H161726   1.515   0.059   4.538 -1.5056 -1.3835 -0.2296
13437TIP3    H261727   1.404   0.160   4.562 -0.3880  0.3163 -1.9167
13438TIP3   OH261728   2.678   2.379  15.923 -0.5629  0.1111 -0.8437
13438TIP3    H161729   2.743   2.448  15.933 -2.2996  1.7707 -0.5850
13438TIP3    H261730   2.615   2.414  15.861 -0.0575 -2.3971 -2.9545
13439TIP3   OH261731   2.814   1.114  14.542 -0.1087 -0.2682  0.2397
13439TIP3    H161732   2.858   1.169  14.476 -0.2761 -1.1819 -0.6579
13439TIP3    H261733   2.883   1.056  14.574 -0.1871 -0.2842  0.3771
13440TIP3   OH261734   5.877   2.312  10.984  0.4802  0.1910 -0.3819
13440TIP3    H161735   5.790   2.345  10.958  1.0922  2.4772  0.1945
13440TIP3    H261736   5.926   2.391  11.007  3.1947 -0.9131 -1.9999
13441TIP3   OH261737   1.264   1.171  10.656 -0.1102  0.2979  0.2355
13441TIP3    H161738   1.188   1.226  10.638 -0.0669  0.1132 -0.5682
13441TIP3    H261739   1.265   1.108  10.584 -0.3676 -0.9950  1.3166
13442TIP3   OH261740   2.611   1.833  15.709 -0.3138  0.2569 -0.4983
13442TIP3    H161741   2.693   1.860  15.750  0.9106 -4.2402  0.5846
13442TIP3    H261742   2.633   1.817  15.618 -0.7832  1.6580 -0.8895
13443TIP3   OH261743   6.121   3.761   5.598  0.0485  0.6797  0.2002
13443TIP3    H161744   6.110   3.743   5.504 -1.2557  1.3204  0.2044
13443TIP3    H261745   6.134   3.856   5.603  1.0431  0.5336  0.6144
13444TIP3   OH261746   3.903   3.501   3.695 -0.0689  0.3927 -0.1058
13444TIP3    H161747   3.848   3.431   3.730  1.3104  0.5757  2.8236
13444TIP3    H261748   3.948   3.536   3.773  1.5607  2.5088 -1.8725
13445TIP3   OH261749   1.191   6.058  12.664  0.4673  0.0839  0.4625
13445TIP3    H161750   1.152   5.983  12.707  0.7440 -0.2501  0.1402
13445TIP3    H261751   1.170   6.132  12.721  2.5043 -0.6141  2.2573
13446TIP3   OH261752   0.278   0.528   0.960 -0.3155 -0.4700 -0.4933
13446TIP3    H161753   0.293   0.473   0.882  1.8881 -0.9049  0.1717
13446TIP3    H261754   0.200   0.579   0.938 -0.3814 -1.3434 -2.5620
13447TIP3   OH261755   0.517   3.090  17.319 -0.6502 -0.3834  0.2447
13447TIP3    H161756   0.431   3.056  17.346  0.2141 -1.2181  2.1909
13447TIP3    H261757   0.566   3.012  17.294  0.1478 -0.1473  1.0439
13448TIP3   OH261758   3.787   0.625   0.678  0.8537 -0.0303 -0.3809
13448TIP3    H161759   3.765   0.617   0.585  3.3392  1.1432 -1.1659
13448TIP3    H261760   3.858   0.562   0.691  3.6859  2.8447 -0.5426
13449TIP3   OH261761   1.478   2.735   2.433 -0.0755 -0.4166  0.3079
13449TIP3    H161762   1.525   2.663   2.474 -0.1417  0.4360  1.9701
13449TIP3    H261763   1.541   2.807   2.430 -1.0452  0.5767  2.0869
13450TIP3   OH261764   4.050   4.247  15.492 -0.3612  0.0546  0.2562
13450TIP3    H161765   3.974   4.202  15.529  0.2432  0.1004  1.6267
13450TIP3    H261766   4.120   4.182  15.496  0.2207  0.7134  1.1312
13451TIP3   OH261767   6.468   6.538   3.979 -0.7134 -0.1503 -0.2381
13451TIP3    H161768   6.508   6.560   3.895 -0.2923  2.1682  0.5130
13451TIP3    H261769   6.501   6.450   3.998  0.5504 -0.0417 -1.6868
13452TIP3   OH261770   0.425   5.601  13.937  0.0068  0.2134  0.4735
13452TIP3    H161771   0.403   5.657  14.012  2.0187  1.8457 -0.0863
13452TIP3    H261772   0.512   5.566  13.958 -0.8239 -2.0809  0.3928
13453TIP3   OH261773   4.724   6.510   5.210  0.0999  0.1892  0.4049
13453TIP3    H161774   4.765   6.591   5.179 -0.3972  0.9367  1.6170
13453TIP3    H261775   4.752   6.502   5.301 -0.0373 -0.8932  0.3601
13454TIP3   OH261776   6.244   3.190  16.892 -0.0330  0.0503 -0.0804
13454TIP3    H161777   6.288   3.138  16.824 -1.5328 -0.5119 -0.6582
13454TIP3    H261778   6.244   3.280  16.857  1.9938  0.3897  0.6345
13455TIP3   OH261779   4.356   5.540  12.848 -0.0735  0.0597 -0.6822
13455TIP3    H161780   4.260   5.538  12.847 -0.0664 -0.4902 -0.5387
13455TIP3    H261781   4.381   5.493  12.768  0.0737  0.8565 -1.1169
13456TIP3   OH261782   0.982   4.759  15.989 -0.1783  0.7931 -0.4161
13456TIP3    H161783   1.028   4.769  15.906 -0.6243 -3.1152 -1.3369
13456TIP3    H261784   0.889   4.763  15.965 -0.3047  0.1447 -0.0619
13457TIP3   OH261785   3.619   0.772  12.123 -0.7891  0.0251 -1.0987
13457TIP3    H161786   3.668   0.743  12.200 -0.8126 -0.1690 -1.1568
13457TIP3    H261787   3.545   0.820  12.158 -0.9220 -0.2562 -0.9941
13458TIP3   OH261788   4.864   5.425  10.844  0.7809  0.0100  0.3204
13458TIP3    H161789   4.835   5.381  10.765  0.3450 -2.3460  1.7000
13458TIP3    H261790   4.892   5.512  10.815  1.5697 -1.1107 -2.5320
13459TIP3   OH261791   0.145   0.895  10.769 -0.0558 -0.3351  0.5971
13459TIP3    H161792   0.178   0.976  10.731 -0.4105 -0.1171  0.7552
13459TIP3    H261793   0.083   0.861  10.705  0.2427 -0.5929  0.4362
13460TIP3   OH261794   3.532   0.434  11.769  0.5707 -0.0403 -0.8225
13460TIP3    H161795   3.468   0.390  11.712 -2.3874 -0.2806  2.3308
13460TIP3    H261796   3.593   0.365  11.795  1.7728 -0.0022 -3.2181
13461TIP3   OH261797   5.437   5.471  14.206 -0.2149 -0.3578 -0.6255
13461TIP3    H161798   5.388   5.553  14.203  0.7608  0.2411 -4.0698
13461TIP3    H261799   5.525   5.496  14.235  0.2177 -0.0451 -2.1342
13462TIP3   OH261800   2.913   4.326   5.123 -0.2246  0.2199  0.3144
13462TIP3    H161801   2.933   4.402   5.178 -0.3148 -0.0572  0.7340
13462TIP3    H261802   2.823   4.340   5.094 -0.1238  0.4448  0.1039
13463TIP3   OH261803   4.637   4.771   1.362 -0.5508  0.0754 -0.1294
13463TIP3    H161804   4.607   4.861   1.351 -2.0331  0.0076  2.4456
13463TIP3    H261805   4.637   4.734   1.274 -3.5294  1.5210 -0.8525
13464TIP3   OH261806   1.527   5.130  15.280 -0.1650 -0.0485  0.3366
13464TIP3    H161807   1.447   5.103  15.325  0.0390 -1.3408 -0.0483
13464TIP3    H261808   1.566   5.196  15.338 -0.4802 -0.8694  1.5074
13465TIP3   OH261809   0.524   4.782   6.320  0.7700  0.3173  0.0403
13465TIP3    H161810   0.592   4.850   6.323  0.5765  0.5425 -0.5557
13465TIP3    H261811   0.449   4.822   6.366 -0.2291  1.5366 -2.4654
13466TIP3   OH261812   5.615   5.733  14.264 -0.0809  0.4336  0.1651
13466TIP3    H161813   5.568   5.736  14.348 -0.1149  0.5217  0.1425
13466TIP3    H261814   5.666   5.813  14.263 -0.2026  0.5095  0.0294
13467TIP3   OH261815   1.352   2.405  17.252  0.6958 -0.9864  0.5869
13467TIP3    H161816   1.293   2.412  17.327 -0.4580 -0.8159 -0.3204
13467TIP3    H261817   1.413   2.478  17.263  0.7153 -1.1276  1.4988
13468TIP3   OH261818   3.612   0.254  12.517  0.2157 -0.1274 -0.0168
13468TIP3    H161819   3.595   0.162  12.498 -1.8255  0.1974 -0.0008
13468TIP3    H261820   3.707   0.262  12.514  0.3507 -1.6757 -2.6259
13469TIP3   OH261821   6.022   2.753  11.766 -0.3484 -0.2028 -0.6182
13469TIP3    H161822   6.000   2.736  11.674  0.1924  1.6673 -1.1387
13469TIP3    H261823   6.070   2.836  11.764  0.5161 -0.6066  1.2624
13470TIP3   OH261824   3.556   2.074  14.849  0.9169 -0.0814  0.1118
13470TIP3    H161825   3.546   2.169  14.841 -1.7519 -0.4078 -1.9159
13470TIP3    H261826   3.528   2.054  14.938 -1.3705  0.8377 -0.3223
13471TIP3   OH261827   4.692   4.554   2.155 -0.4879  0.4394 -0.4991
13471TIP3    H161828   4.728   4.614   2.090  1.1952 -1.0476 -1.0210
13471TIP3    H261829   4.754   4.481   2.158 -2.5081 -1.3819 -0.0406
13472TIP3   OH261830   5.183   2.948   4.767  0.3370 -0.3408 -0.4434
13472TIP3    H161831   5.117   2.961   4.699 -0.2492 -1.7321 -0.1756
13472TIP3    H261832   5.136   2.959   4.849  0.4425 -1.2433 -0.2516
13473TIP3   OH261833   5.427   0.751  13.366 -0.3960 -0.3398  0.0527
13473TIP3    H161834   5.482   0.812  13.317  0.0371  0.3577  1.3572
13473TIP3    H261835   5.418   0.675  13.309  1.7771 -0.3929 -0.2911
13474TIP3   OH261836   0.489   5.008   2.507 -0.5725  0.2005 -0.7588
13474TIP3    H161837   0.417   5.049   2.556 -1.3478 -1.0065 -0.8516
13474TIP3    H261838   0.495   5.058   2.426 -0.5797  0.9828 -0.2894
13475TIP3   OH261839   3.379   3.596  13.981 -0.0811 -0.4062  0.3070
13475TIP3    H161840   3.399   3.686  13.955 -0.7893 -0.5385 -0.8008
13475TIP3    H261841   3.328   3.605  14.062  0.6201  0.1337  0.6935
13476TIP3   OH261842   2.472   4.702  11.613 -0.2243  0.1021 -0.4132
13476TIP3    H161843   2.533   4.673  11.545 -0.6961 -0.6985 -0.4968
13476TIP3    H261844   2.515   4.779  11.651  1.2700 -0.9218  0.1062
13477TIP3   OH261845   1.179   4.579  17.079 -0.4153  0.1479 -0.4377
13477TIP3    H161846   1.261   4.565  17.126  0.3466  0.0032 -1.7840
13477TIP3    H261847   1.117   4.606  17.147  0.7993  0.5151  0.5540
13478TIP3   OH261848   6.653   5.446   4.714 -0.3523 -0.1147 -0.3800
13478TIP3    H161849   6.735   5.474   4.673 -0.5078 -1.0223 -1.3540
13478TIP3    H261850   6.594   5.430   4.641 -0.9453 -0.8299  0.2402
13479TIP3   OH261851   5.304   3.038  16.515 -0.2639 -0.2763 -0.2036
13479TIP3    H161852   5.393   3.047  16.550  0.5527 -1.1223 -1.8947
13479TIP3    H261853   5.300   2.948  16.482 -2.0465 -0.5051  0.5316
13480TIP3   OH261854   4.870   6.263   4.640  0.2063  0.0921  0.0414
13480TIP3    H161855   4.798   6.324   4.652 -1.5824 -1.5703 -1.5451
13480TIP3    H261856   4.922   6.301   4.569 -0.9717 -0.2157 -1.0289
13481TIP3   OH261857   2.307   3.169   6.925 -0.0737 -0.0786 -0.4944
13481TIP3    H161858   2.272   3.217   6.850  2.3300 -0.4887 -1.9855
13481TIP3    H261859   2.376   3.225   6.960 -0.8788 -0.0794  1.2482
13482TIP3   OH261860   1.355   0.664   3.694 -0.4612 -0.7852  0.5548
13482TIP3    H161861   1.395   0.584   3.727  1.4880  0.5991  1.7515
13482TIP3    H261862   1.377   0.666   3.601  0.0364 -1.3109  0.6579
13483TIP3   OH261863   0.934   1.039  11.012  0.3247 -0.3466 -0.2776
13483TIP3    H161864   0.984   0.964  10.980  0.1693 -0.2253 -0.8229
13483TIP3    H261865   0.932   1.028  11.107 -1.0420 -1.8830 -0.4523
13484TIP3   OH261866   4.026   1.640  14.801 -0.0365  0.3226 -0.2549
13484TIP3    H161867   3.957   1.574  14.793  0.0369  0.1202  0.6707
13484TIP3    H261868   4.013   1.678  14.888  1.1455  0.1224  0.0390
13485TIP3   OH261869   0.518   6.753  16.180 -0.4113 -0.8298 -0.3897
13485TIP3    H161870   0.515   6.843  16.212 -0.6366 -0.3866 -1.6058
13485TIP3    H261871   0.447   6.748  16.115  0.3079 -1.5493 -1.1456
13486TIP3   OH261872   2.002   0.229  11.451  0.4917  0.4642 -0.8405
13486TIP3    H161873   2.004   0.249  11.357  2.1616  2.5518 -0.4384
13486TIP3    H261874   2.063   0.155  11.461  1.6051  1.3060 -1.2229
13487TIP3   OH261875   4.011   4.755  15.424  0.5923  0.2339  0.4764
13487TIP3    H161876   3.929   4.709  15.441  0.0418 -1.0021 -4.1378
13487TIP3    H261877   3.984   4.841  15.393  1.1711  0.5355  0.7914
13488TIP3   OH261878   4.407   0.830   4.561  0.2087  0.5760  0.4797
13488TIP3    H161879   4.446   0.744   4.546 -0.6884  0.3823 -0.8261
13488TIP3    H261880   4.479   0.883   4.596  0.5155 -0.9590  2.3742
13489TIP3   OH261881   1.905   3.087   2.361  0.0587 -0.7225 -0.3548
13489TIP3    H161882   1.930   3.119   2.274 -0.5433 -0.2027 -0.3467
13489TIP3    H261883   1.988   3.073   2.406  0.3865 -1.1708 -1.0703
13490TIP3   OH261884   1.942   3.447   4.067  0.2518 -0.0390 -0.1977
13490TIP3    H161885   1.957   3.397   4.148  0.0453 -0.1728 -0.2405
13490TIP3    H261886   1.878   3.514   4.093  0.2036 -0.0672 -0.2439
13491TIP3   OH261887   4.209   2.294   2.103 -0.2676 -0.0327 -0.2492
13491TIP3    H161888   4.254   2.211   2.087  0.2505 -0.0721  1.2797
13491TIP3    H261889   4.116   2.272   2.093 -0.1459 -0.8268  0.2241
13492TIP3   OH261890   5.578   1.270   2.494 -0.2450  0.4690 -0.2583
13492TIP3    H161891   5.559   1.253   2.402  0.5452  0.7134 -0.4689
13492TIP3    H261892   5.576   1.184   2.535  0.4404  0.2388 -0.7007
13493TIP3   OH261893   2.255   3.649   4.040  0.4732 -0.3197 -0.4064
13493TIP3    H161894   2.273   3.555   4.043 -0.0069 -0.4359 -0.9820
13493TIP3    H261895   2.199   3.665   4.116  1.1021 -0.3737  0.0727
13494TIP3   OH261896   1.991   0.949   5.854  0.2850 -0.0018 -0.0755
13494TIP3    H161897   1.904   0.972   5.886  0.6847  0.1641  0.9192
13494TIP3    H261898   2.000   0.856   5.874  0.1758 -0.1223 -0.5708
13495TIP3   OH261899   0.112   4.770  15.424 -0.4508  0.1419 -1.2145
13495TIP3    H161900   0.127   4.723  15.506  0.9087  2.2653 -0.1395
13495TIP3    H261901   0.171   4.729  15.361  1.2028  0.7197 -0.1270
13496TIP3   OH261902   6.281   0.784   3.647 -0.8157  1.0798 -0.4607
13496TIP3    H161903   6.376   0.783   3.635 -0.8205  0.3227 -0.4846
13496TIP3    H261904   6.250   0.850   3.585 -0.2402  1.9246  0.1261
13497TIP3   OH261905   2.606   5.645  14.081 -0.1585 -0.4527 -0.5292
13497TIP3    H161906   2.608   5.676  13.991  0.1280 -1.6159 -0.9469
13497TIP3    H261907   2.514   5.650  14.107 -0.1790  0.2881 -0.7353
13498TIP3   OH261908   4.336   6.295  10.459  0.1273  0.0918  0.6833
13498TIP3    H161909   4.290   6.365  10.505 -1.2114  0.8976 -1.6712
13498TIP3    H261910   4.429   6.317  10.468 -0.2037  1.3640  1.2072
13499TIP3   OH261911   5.162   6.061   2.573 -0.0193  0.4005  0.1132
13499TIP3    H161912   5.114   5.979   2.561  0.3520  0.0520  0.9521
13499TIP3    H261913   5.124   6.121   2.508 -0.1839 -0.4762 -0.6110
13500TIP3   OH261914   2.429   3.649  12.206 -0.5116 -0.1278  0.2596
13500TIP3    H161915   2.482   3.660  12.128 -0.5537 -0.9575  0.1007
13500TIP3    H261916   2.391   3.735  12.222 -1.3144 -0.1655 -1.2248
13501TIP3   OH261917   4.807   5.491  14.902 -0.1421  0.9032  0.1842
13501TIP3    H161918   4.823   5.566  14.960  0.5024  1.9915 -1.3523
13501TIP3    H261919   4.884   5.486  14.847 -1.0119  0.2902 -1.0260
13502TIP3   OH261920   6.245   2.745   2.903 -0.2235 -0.0928  0.3374
13502TIP3    H161921   6.230   2.827   2.949 -1.4612 -0.1759  0.1202
13502TIP3    H261922   6.283   2.770   2.819 -0.0346  0.2177  0.5167
13503TIP3   OH261923   5.760   4.624   5.409 -0.1598  0.4311  0.1749
13503TIP3    H161924   5.782   4.717   5.413  1.7298 -0.0110  1.7031
13503TIP3    H261925   5.669   4.620   5.437  0.4048  1.6721  2.4968
13504TIP3   OH261926   3.122   3.846  16.249 -0.8590  0.3104 -0.1020
13504TIP3    H161927   3.199   3.880  16.204 -0.6162 -0.8679 -0.6220
13504TIP3    H261928   3.102   3.911  16.316 -0.2023  1.2636 -0.8129
13505TIP3   OH261929   0.850   1.277  12.707 -0.6080 -0.1360  1.0569
13505TIP3    H161930   0.765   1.232  12.706  0.1376 -1.6639 -1.1483
13505TIP3    H261931   0.913   1.207  12.721  0.5186  0.3380 -1.1854
13506TIP3   OH261932   0.833   5.474  16.257 -0.6257  0.4207  0.1971
13506TIP3    H161933   0.782   5.402  16.221  0.1717  0.5052 -1.1911
13506TIP3    H261934   0.890   5.501  16.185  0.1034  1.4975  1.1392
13507TIP3   OH261935   4.485   6.107   5.365  0.0737 -0.1362  0.1304
13507TIP3    H161936   4.537   6.057   5.302 -2.9043 -0.1325 -2.5672
13507TIP3    H261937   4.510   6.198   5.350 -0.1444 -0.1928 -0.6177
13508TIP3   OH261938   3.462   2.058  16.966 -0.2634  0.2636  0.2454
13508TIP3    H161939   3.429   2.069  17.055  0.3771  1.3470  0.3631
13508TIP3    H261940   3.429   1.972  16.939 -0.7280  0.0575  1.4040
13509TIP3   OH261941   3.034   0.921   2.198  0.1213 -0.3307 -0.0604
13509TIP3    H161942   2.968   0.866   2.242 -0.0885 -0.5913 -0.6903
13509TIP3    H261943   2.996   0.939   2.112  0.4097  0.4061 -0.0342
13510TIP3   OH261944   4.727   3.495   3.871  0.4068  0.2565 -0.3255
13510TIP3    H161945   4.657   3.430   3.872 -1.4008  2.0268 -2.0147
13510TIP3    H261946   4.728   3.528   3.781  0.7156  3.0457  0.6069
13511TIP3   OH261947   0.825   1.578  17.236  0.3735  0.4337  0.2863
13511TIP3    H161948   0.867   1.535  17.310 -0.1896 -1.1673 -0.2821
13511TIP3    H261949   0.736   1.542  17.234  0.2701  0.7126 -0.9427
13512TIP3   OH261950   4.504   5.670   2.134 -0.0101  0.3089 -0.0975
13512TIP3    H161951   4.488   5.740   2.196  1.7361  1.4317 -0.8509
13512TIP3    H261952   4.571   5.615   2.175 -1.2842 -0.9099  0.4429
13513TIP3   OH261953   2.147   5.300  16.369 -0.1704  0.2441  0.7630
13513TIP3    H161954   2.148   5.392  16.398 -0.4672  0.4387  0.1790
13513TIP3    H261955   2.218   5.295  16.305  0.0346 -0.0091  1.0100
13514TIP3   OH261956   0.717   5.189   4.724 -0.2960 -0.1870  0.1049
13514TIP3    H161957   0.630   5.213   4.757 -1.0221 -0.0330 -1.7897
13514TIP3    H261958   0.777   5.248   4.769 -1.1204 -0.4367  1.6064
13515TIP3   OH261959   2.842   3.346   4.813 -0.0180  0.2938 -0.3900
13515TIP3    H161960   2.831   3.396   4.732  1.2207  0.9870 -0.1694
13515TIP3    H261961   2.934   3.320   4.812 -0.1220 -0.1389  0.5380
13516TIP3   OH261962   6.557   1.356  17.229  0.2027 -0.0397  0.1378
13516TIP3    H161963   6.495   1.373  17.158 -0.7881 -1.4093  0.6293
13516TIP3    H261964   6.609   1.282  17.198  1.4893  0.9559 -0.1746
13517TIP3   OH261965   3.377   3.585   6.142 -0.5817 -0.4999  0.0045
13517TIP3    H161966   3.318   3.650   6.104  0.7638  0.1365 -1.1233
13517TIP3    H261967   3.385   3.610   6.234 -0.8367  0.3614 -0.1992
13518TIP3   OH261968   3.755   3.285   4.848  0.1147  0.3472 -0.7131
13518TIP3    H161969   3.717   3.221   4.909  2.2192 -0.1520  0.1895
13518TIP3    H261970   3.700   3.362   4.856 -1.2916 -0.6647 -0.2863
13519TIP3   OH261971   2.397   4.921  15.363 -0.0362 -0.5621 -0.1080
13519TIP3    H161972   2.411   4.849  15.424 -1.8118 -0.5097  0.4079
13519TIP3    H261973   2.302   4.930  15.358  0.0807  2.9019  1.2480
13520TIP3   OH261974   2.772   3.757  15.945  0.0903 -0.2380  0.2104
13520TIP3    H161975   2.781   3.834  15.888 -1.1448 -0.4921 -0.3483
13520TIP3    H261976   2.693   3.774  15.995  0.8005 -0.3344  1.4001
13521TIP3   OH261977   3.117   0.615  11.368 -0.0050  0.3186  0.2934
13521TIP3    H161978   3.077   0.697  11.399  0.9848  1.0481 -0.2995
13521TIP3    H261979   3.170   0.585  11.442  0.3527  0.7015  0.1940
13522TIP3   OH261980   4.952   5.604  15.848  0.5549  0.7039 -0.5710
13522TIP3    H161981   5.040   5.641  15.856  0.2233  1.7392 -1.3495
13522TIP3    H261982   4.898   5.660  15.904  0.5965 -0.8175  1.0799
13523TIP3   OH261983   6.325   3.700   1.466  0.1921 -0.0846 -0.0741
13523TIP3    H161984   6.280   3.784   1.468  1.2659  0.4974  1.0022
13523TIP3    H261985   6.335   3.676   1.558 -2.1404 -2.5676 -0.3429
13524TIP3   OH261986   0.170   3.475   5.826  0.7892  0.0396  0.0314
13524TIP3    H161987   0.228   3.493   5.900 -1.1378  1.6455  1.2555
13524TIP3    H261988   0.120   3.555   5.815  0.0048 -0.6781 -2.1277
13525TIP3   OH261989   2.210   1.188  12.158  0.2655  0.3949  0.0075
13525TIP3    H161990   2.206   1.272  12.112 -1.2434  0.3311 -0.0351
13525TIP3    H261991   2.265   1.133  12.103 -0.9119  0.5391 -1.3833
13526TIP3   OH261992   1.118   2.020  14.234  0.2396  0.3067  0.0550
13526TIP3    H161993   1.071   1.944  14.200  0.7644  0.1712 -0.3759
13526TIP3    H261994   1.121   2.005  14.328  3.8588 -2.3295 -0.2593
13527TIP3   OH261995   0.516   1.972   4.614  0.4371  0.3589 -0.8119
13527TIP3    H161996   0.588   2.030   4.641  1.2354 -0.9714  0.0361
13527TIP3    H261997   0.533   1.955   4.522  0.6333  0.8594 -0.8744
13528TIP3   OH261998   3.154   1.620   2.840  0.1244  0.6841 -0.0923
13528TIP3    H161999   3.237   1.628   2.886 -0.0243 -0.3435  0.3907
13528TIP3    H262000   3.149   1.698   2.784  0.6685  1.5726  1.0569
13529TIP3   OH262001   6.686   5.289  11.893 -0.2763 -0.5544 -0.6292
13529TIP3    H162002   6.759   5.228  11.900  0.5907  0.3992 -1.1506
13529TIP3    H262003   6.662   5.309  11.984 -0.3132 -1.3475 -0.4592
13530TIP3   OH262004   3.351   2.083  15.047 -0.0047 -0.4446 -0.0180
13530TIP3    H162005   3.280   2.055  14.990  1.1733  3.0342 -3.6936
13530TIP3    H262006   3.329   2.173  15.070  2.4619  0.2882 -0.1579
13531TIP3   OH262007   0.954   0.216  11.804  0.2305 -0.3771 -0.2541
13531TIP3    H162008   0.957   0.157  11.880 -0.0904  2.1935  1.8764
13531TIP3    H262009   1.043   0.213  11.769  0.2571 -1.9769 -0.1290
13532TIP3   OH262010   2.434   2.122   0.362  0.8422 -0.4132 -0.3937
13532TIP3    H162011   2.472   2.045   0.403  1.5034  0.3854  0.5427
13532TIP3    H262012   2.352   2.136   0.408  0.7084 -0.5646 -0.5828
13533TIP3   OH262013   3.018   6.165  11.576 -0.3504 -0.4154  0.1589
13533TIP3    H162014   2.938   6.168  11.524  0.2402  3.1258 -0.7918
13533TIP3    H262015   3.078   6.111  11.524 -1.2747 -0.8855 -0.4465
13534TIP3   OH262016   0.219   4.124  15.924 -0.0065 -0.3826 -0.2068
13534TIP3    H162017   0.181   4.188  15.863  0.7438  0.0558 -0.2329
13534TIP3    H262018   0.310   4.154  15.937  0.1958 -1.1395  0.2064
13535TIP3   OH262019   1.140   5.736  16.153 -0.5428 -0.1701  0.1303
13535TIP3    H162020   1.087   5.753  16.230 -1.9728 -1.2168 -0.5730
13535TIP3    H262021   1.092   5.668  16.105  0.2694  0.4686 -1.7008
13536TIP3   OH262022   2.493   4.205  12.908 -0.0135  0.2822  0.0666
13536TIP3    H162023   2.430   4.276  12.919 -0.0295  0.3398 -0.4016
13536TIP3    H262024   2.503   4.168  12.996  2.2631  2.7831  0.9836
13537TIP3   OH262025   5.749   4.996  16.027 -0.3688  0.7713  0.2975
13537TIP3    H162026   5.705   4.984  15.942  0.1852 -0.4851  0.1537
13537TIP3    H262027   5.782   5.086  16.025  1.5197  0.1410 -1.7833
13538TIP3   OH262028   2.682   3.045  15.246 -0.0703 -0.6447  0.0678
13538TIP3    H162029   2.593   3.065  15.218  0.6523 -0.1876 -2.0908
13538TIP3    H262030   2.734   3.048  15.166  2.3129  1.3606  1.5379
13539TIP3   OH262031   6.464   2.063  13.971 -0.3029  0.5061  0.3808
13539TIP3    H162032   6.556   2.067  13.995 -0.4226 -0.7215  1.1644
13539TIP3    H262033   6.459   2.107  13.886  0.8148  1.4975  0.7999
13540TIP3   OH262034   2.762   1.053   1.074  0.2996  0.4077  0.3425
13540TIP3    H162035   2.722   1.127   1.120 -0.3152  0.0796  0.3504
13540TIP3    H262036   2.797   1.091   0.993 -0.2552  0.6617  0.2165
13541TIP3   OH262037   0.204   3.979   4.278 -0.0316 -0.1215 -0.1468
13541TIP3    H162038   0.147   3.929   4.336  1.1047 -0.5423  0.6520
13541TIP3    H262039   0.216   3.923   4.201 -1.5959  0.4646 -0.8608
13542TIP3   OH262040   2.177   0.028  16.919  0.0302 -0.1332 -0.5972
13542TIP3    H162041   2.104   0.052  16.863  1.8577  2.1019 -2.2044
13542TIP3    H262042   2.252   0.021  16.860  1.1777 -2.3993  0.9647
13543TIP3   OH262043   2.065   6.606   6.786  0.2223 -0.1378  0.8111
13543TIP3    H162044   2.021   6.527   6.815  2.0463 -0.8290  1.8880
13543TIP3    H262045   1.996   6.672   6.779 -1.2727 -1.7018  0.2346
13544TIP3   OH262046   0.310   5.680  12.158 -0.1584 -0.2288 -0.6886
13544TIP3    H162047   0.351   5.713  12.078  1.1475 -0.3341 -0.0927
13544TIP3    H262048   0.356   5.598  12.176  0.2566  0.2784  0.6947
13545TIP3   OH262049   0.292   0.939   0.359 -0.8188 -0.2967 -0.1739
13545TIP3    H162050   0.327   0.891   0.434 -1.4045  0.6011  0.7092
13545TIP3    H262051   0.236   0.875   0.314 -0.3250 -0.8946  0.0489
13546TIP3   OH262052   6.062   1.144   0.832 -0.5127 -0.6366  0.0410
13546TIP3    H162053   6.137   1.172   0.780  0.8957 -2.0162  1.2135
13546TIP3    H262054   5.988   1.192   0.796  0.7458 -0.0057 -1.8472
13547TIP3   OH262055   0.167   3.432   3.007 -0.0689 -0.2536 -0.4290
13547TIP3    H162056   0.236   3.449   2.943  0.8342 -1.9267  0.0324
13547TIP3    H262057   0.213   3.423   3.090 -1.1311  0.9516  0.3116
13548TIP3   OH262058   3.059   3.773   1.342  0.6259 -0.4230  0.0341
13548TIP3    H162059   3.052   3.762   1.437 -2.4582 -1.7411 -0.2218
13548TIP3    H262060   3.151   3.757   1.323  1.3213 -0.2347  2.7692
13549TIP3   OH262061   2.560   0.538   1.858  0.0326  0.0846  0.2196
13549TIP3    H162062   2.593   0.454   1.827 -0.5858 -0.1924  0.2917
13549TIP3    H262063   2.488   0.515   1.917 -1.6789  0.7039 -1.5284
13550TIP3   OH262064   1.768   2.110  14.573 -0.2888  0.6421 -0.0770
13550TIP3    H162065   1.763   2.017  14.593 -0.6654  0.4320 -1.0936
13550TIP3    H262066   1.676   2.138  14.566 -0.1749  0.9737 -0.2794
13551TIP3   OH262067   5.686   4.273   5.226 -0.5191  0.0899 -0.0377
13551TIP3    H162068   5.619   4.332   5.192  0.5187  0.8898 -0.7998
13551TIP3    H262069   5.693   4.205   5.159  0.5961  0.9453 -0.8402
13552TIP3   OH262070   6.386   0.838  13.593 -0.7320 -0.9338  0.4097
13552TIP3    H162071   6.386   0.873  13.682  0.9989 -0.8034  0.3862
13552TIP3    H262072   6.408   0.912  13.537  0.7373 -1.5298  0.1477
13553TIP3   OH262073   3.230   3.372  15.654  0.6202  0.0824  0.2617
13553TIP3    H162074   3.135   3.373  15.657  0.5456 -1.7590 -0.2650
13553TIP3    H262075   3.251   3.320  15.576  2.0614  0.4370  0.3826
13554TIP3   OH262076   4.005   3.405   4.955 -0.3440  0.2583  0.3814
13554TIP3    H162077   3.924   3.386   4.909 -0.7636  2.1166  0.2911
13554TIP3    H262078   4.057   3.457   4.892 -0.0425  1.0097  1.2286
13555TIP3   OH262079   2.250   5.893   5.218  0.0429  0.0425 -0.4718
13555TIP3    H162080   2.336   5.884   5.260  0.3008  2.2383 -0.4147
13555TIP3    H262081   2.227   5.804   5.192  1.9074 -0.7398  0.3466
13556TIP3   OH262082   4.618   1.072   1.083  0.2600  0.4449 -0.0198
13556TIP3    H162083   4.641   0.979   1.094  1.2206  0.8279  1.4708
13556TIP3    H262084   4.523   1.073   1.083  0.1795 -0.3679  2.2155
13557TIP3   OH262085   2.204   5.161  13.138 -0.5563  0.0604  0.3467
13557TIP3    H162086   2.141   5.175  13.068 -1.0643  0.9112  0.9590
13557TIP3    H262087   2.289   5.167  13.094 -0.8715  0.1656 -0.2675
13558TIP3   OH262088   4.464   5.063   1.284  0.8228  0.0217 -0.5791
13558TIP3    H162089   4.431   5.146   1.319  1.4203  0.3505 -0.7683
13558TIP3    H262090   4.393   5.001   1.298  0.6733  0.3760  0.3052
13559TIP3   OH262091   6.012   4.417  11.800 -0.0003 -0.4182 -0.0085
13559TIP3    H162092   6.053   4.355  11.739  0.1154 -0.3045 -0.0448
13559TIP3    H262093   5.947   4.364  11.846  0.4262 -0.6872  0.2982
13560TIP3   OH262094   6.026   5.012   3.228  0.2000  0.0684 -0.2731
13560TIP3    H162095   5.976   5.054   3.158  1.2275  1.5297 -0.1685
13560TIP3    H262096   6.116   5.011   3.197  0.2318 -2.0876 -0.2490
13561TIP3   OH262097   4.894   3.293   5.429  0.1085 -0.0236  0.4456
13561TIP3    H162098   4.857   3.281   5.516 -0.7197  2.1642  0.4659
13561TIP3    H262099   4.872   3.212   5.382 -0.6255 -0.6720  1.8528
13562TIP3   OH262100   2.440   3.069  11.170  0.3925 -0.0360  0.1052
13562TIP3    H162101   2.534   3.080  11.157  0.6721 -0.2615  1.6746
13562TIP3    H262102   2.402   3.075  11.082  1.8057  0.6096 -0.4852
13563TIP3   OH262103   0.157   4.533  13.774  0.0935 -0.2879 -0.5728
13563TIP3    H162104   0.117   4.570  13.853  0.2986 -1.2657  0.0132
13563TIP3    H262105   0.211   4.461  13.806  0.8442 -0.1788 -1.5370
13564TIP3   OH262106   4.838   2.586  14.498  0.1764  0.6739 -0.0379
13564TIP3    H162107   4.884   2.576  14.582 -1.6584  0.5623  1.0039
13564TIP3    H262108   4.860   2.506  14.450  0.1558  0.0820  0.9007
13565TIP3   OH262109   2.429   0.374  14.608  0.2159 -0.3244  0.1880
13565TIP3    H162110   2.441   0.279  14.610  1.2766 -0.2578 -1.2605
13565TIP3    H262111   2.518   0.409  14.609 -0.1076  0.5875 -0.9234
13566TIP3   OH262112   3.582   6.255   0.657  0.2286  0.7129  0.0392
13566TIP3    H162113   3.513   6.289   0.714  1.1119 -0.1728  1.7251
13566TIP3    H262114   3.583   6.161   0.674  1.8141  0.6989  0.0315
13567TIP3   OH262115   4.664   5.225   2.254 -0.7130 -0.1346  0.3692
13567TIP3    H162116   4.626   5.146   2.293 -0.9733 -0.3620 -0.3333
13567TIP3    H262117   4.701   5.195   2.171 -0.7408  0.4685  0.1363
13568TIP3   OH262118   2.914   6.400   3.439 -0.6291  0.0312  0.1971
13568TIP3    H162119   2.980   6.450   3.391 -1.4187  0.1539 -0.7869
13568TIP3    H262120   2.964   6.330   3.482  0.0549 -0.3142 -1.1214
13569TIP3   OH262121   6.610   4.449  15.480  0.2452 -0.2029  0.0730
13569TIP3    H162122   6.668   4.493  15.541  2.8990 -0.1306 -2.2773
13569TIP3    H262123   6.663   4.379  15.442 -0.3043  1.2288 -3.8474
13570TIP3   OH262124   5.798   4.667  13.551 -0.3372  0.0489  0.4919
13570TIP3    H162125   5.726   4.660  13.488 -1.5954 -0.6425  1.9653
13570TIP3    H262126   5.829   4.756  13.541 -2.1507  0.7391  0.5846
13571TIP3   OH262127   1.038   5.011   5.454  0.6553 -0.5934  0.1130
13571TIP3    H162128   1.052   5.058   5.536  3.3745 -0.1171 -0.5151
13571TIP3    H262129   1.038   5.080   5.387  0.4452 -1.1388 -0.4593
13572TIP3   OH262130   3.870   6.430  11.876 -0.0114 -0.2774  0.3277
13572TIP3    H162131   3.845   6.508  11.827  0.8153  0.0516  0.4056
13572TIP3    H262132   3.795   6.411  11.932 -0.4656  0.0899 -0.1460
13573TIP3   OH262133   3.415   0.381  12.116  0.5326 -0.1262  0.0072
13573TIP3    H162134   3.367   0.443  12.060 -0.7738  1.0779  2.2942
13573TIP3    H262135   3.396   0.295  12.078 -0.8591  0.5883 -1.0217
13574TIP3   OH262136   5.009   2.966  11.598  0.1894 -0.3833  0.2683
13574TIP3    H162137   5.014   2.968  11.502 -1.6063 -1.5561  0.0973
13574TIP3    H262138   5.065   2.893  11.623 -0.9023 -1.3724 -0.0780
13575TIP3   OH262139   4.548   2.586  16.567  0.2268  0.0964 -0.1901
13575TIP3    H162140   4.527   2.512  16.510 -0.1019 -0.8781  1.1594
13575TIP3    H262141   4.625   2.627  16.526  0.6094 -1.1819 -0.7806
13576TIP3   OH262142   0.294   6.100   0.557 -0.5026 -0.1577 -0.5159
13576TIP3    H162143   0.207   6.077   0.526 -1.2723  1.9412 -0.0721
13576TIP3    H262144   0.342   6.127   0.478 -0.6255 -0.2064 -0.6066
13577TIP3   OH262145   6.416   3.572   3.704  0.4106 -0.0022  0.1513
13577TIP3    H162146   6.423   3.601   3.613  0.8651 -0.9450 -0.1263
13577TIP3    H262147   6.386   3.650   3.752  2.4435  1.2240 -0.4151
13578TIP3   OH262148   2.277   5.203  14.146 -0.1988 -0.8014 -0.1329
13578TIP3    H162149   2.291   5.109  14.136 -1.2366 -1.0150  0.2564
13578TIP3    H262150   2.317   5.242  14.068 -1.2468 -1.7135 -1.1598
13579TIP3   OH262151   0.637   0.888  16.075  0.0092 -0.5677 -0.0406
13579TIP3    H162152   0.624   0.797  16.105  0.2142 -0.0589  1.7246
13579TIP3    H262153   0.555   0.909  16.030 -0.9308 -0.9846  1.3663
13580TIP3   OH262154   1.963   0.575   4.295  0.1967 -0.7646  0.0880
13580TIP3    H162155   2.010   0.547   4.216 -1.7239 -0.9556 -1.0469
13580TIP3    H262156   1.945   0.494   4.342  0.1404 -0.7934  0.0176
13581TIP3   OH262157   1.660   5.326  12.124 -1.0124  0.0585  0.4750
13581TIP3    H162158   1.663   5.343  12.030  0.1277 -0.4460  0.4138
13581TIP3    H262159   1.567   5.309  12.142 -1.0257 -1.4402 -0.8409
13582TIP3   OH262160   2.212   0.422  12.838  0.4117 -0.2416  0.5253
13582TIP3    H162161   2.170   0.338  12.858  1.9132 -0.9325  0.8796
13582TIP3    H262162   2.279   0.401  12.774  1.1464  0.6065  0.9861
13583TIP3   OH262163   1.754   5.118   5.141 -0.6100  0.6183  0.0301
13583TIP3    H162164   1.751   5.149   5.050 -1.3169 -0.1890 -0.2423
13583TIP3    H262165   1.667   5.138   5.175 -0.8550 -0.4192  0.0526
13584TIP3   OH262166   1.741   2.761   2.105  0.0021 -0.1423 -0.9866
13584TIP3    H162167   1.831   2.790   2.120  0.4018 -0.0128 -3.3187
13584TIP3    H262168   1.747   2.666   2.095 -0.2065 -0.1881 -0.7052
13585TIP3   OH262169   2.446   3.290  11.497 -0.3080 -0.1153  0.0209
13585TIP3    H162170   2.370   3.296  11.439 -2.1257 -2.5312  1.9146
13585TIP3    H262171   2.479   3.201  11.485  2.0363  0.7515 -0.4510
13586TIP3   OH262172   4.738   1.210  11.150 -0.5098 -0.4331 -0.0668
13586TIP3    H162173   4.778   1.269  11.214 -1.0667  0.1100 -0.2146
13586TIP3    H262174   4.772   1.239  11.066  2.1277 -2.6338  0.1017
13587TIP3   OH262175   4.568   3.051   1.354 -0.8310 -0.7723  0.5031
13587TIP3    H162176   4.534   3.140   1.345 -0.7533 -0.8489 -0.7744
13587TIP3    H262177   4.493   2.995   1.333 -1.0005 -1.0360  1.7360
13588TIP3   OH262178   0.640   4.595   3.853 -0.2020  0.0751  0.2621
13588TIP3    H162179   0.683   4.515   3.882 -3.4955 -2.4126 -1.1072
13588TIP3    H262180   0.645   4.591   3.757 -1.0542  1.1486  0.1530
13589TIP3   OH262181   6.726   4.940  12.693  0.5828  0.1795  0.5095
13589TIP3    H162182   6.750   4.880  12.763  3.4964  0.9106  0.2596
13589TIP3    H262183   6.736   5.027  12.731  0.5994  0.5624 -0.3493
13590TIP3   OH262184   6.229   2.068   5.768  0.4176 -0.3065  0.7290
13590TIP3    H162185   6.324   2.065   5.758  0.4620 -1.3887  1.3547
13590TIP3    H262186   6.202   1.976   5.778 -0.9039 -0.1985 -1.1829
13591TIP3   OH262187   5.285   0.287  14.080 -0.7533  0.2350 -0.5820
13591TIP3    H162188   5.309   0.207  14.127 -2.3893 -0.6324 -1.1425
13591TIP3    H262189   5.286   0.356  14.146  1.6839  0.0174 -0.2759
13592TIP3   OH262190   4.034   3.339  12.302  0.5704 -0.1028  0.1783
13592TIP3    H162191   4.044   3.412  12.363 -0.6715  1.0150 -0.8961
13592TIP3    H262192   4.057   3.261  12.353  0.6444  0.9117  1.7336
13593TIP3   OH262193   5.632   5.843   6.312 -0.1084  0.0605  0.6045
13593TIP3    H162194   5.720   5.830   6.277 -1.3548  0.6542 -3.2835
13593TIP3    H262195   5.618   5.937   6.308 -1.2527 -0.1067  0.0352
13594TIP3   OH262196   3.635   4.185   4.822  0.2702  0.6825 -0.1349
13594TIP3    H162197   3.703   4.252   4.835  1.0767 -0.0989 -0.2506
13594TIP3    H262198   3.593   4.176   4.908  0.9333  0.5087  0.1742
13595TIP3   OH262199   2.731   3.970  13.865 -0.1365  0.4807  0.3517
13595TIP3    H162200   2.664   3.944  13.802  0.5291 -0.2794 -0.0649
13595TIP3    H262201   2.782   4.037  13.819  0.3642 -0.0914  0.0632
13596TIP3   OH262202   4.244   1.614  16.099  0.6731 -0.5507  0.0155
13596TIP3    H162203   4.176   1.563  16.056  0.5021  1.2813 -2.1080
13596TIP3    H262204   4.201   1.697  16.120  2.3229  0.9265 -2.0165
13597TIP3   OH262205   1.010   5.512   6.647  0.1472 -0.3488  0.1459
13597TIP3    H162206   0.931   5.546   6.688  1.1872  0.3626  1.6272
13597TIP3    H262207   0.982   5.489   6.558 -1.4862  0.8282  0.2988
13598TIP3   OH262208   3.887   3.203  17.364  0.6015  0.3997  0.5847
13598TIP3    H162209   3.838   3.253  17.299 -0.4672 -1.1840  0.1094
13598TIP3    H262210   3.820   3.160  17.417  1.3682 -2.4619 -0.5689
13599TIP3   OH262211   3.190   1.688  15.878  0.2870 -0.0660 -0.5298
13599TIP3    H162212   3.172   1.603  15.838 -1.2031  0.6011 -1.3688
13599TIP3    H262213   3.140   1.686  15.960  1.2598 -0.4531  0.0685
13600TIP3   OH262214   3.823   5.933  15.847 -0.1015  0.4287  0.0110
13600TIP3    H162215   3.801   5.879  15.771 -0.5704  0.1252  0.3571
13600TIP3    H262216   3.773   5.895  15.919  2.0603 -0.7340  1.0070
13601TIP3   OH262217   5.868   6.559  11.116  0.6169  0.5687 -0.3740
13601TIP3    H162218   5.807   6.552  11.042 -1.2374 -2.0189  1.2014
13601TIP3    H262219   5.947   6.513  11.086 -0.1559 -0.5586 -0.7431
13602TIP3   OH262220   2.357   2.134   3.480 -0.5012 -0.4284 -0.1998
13602TIP3    H162221   2.314   2.050   3.498  0.5866 -0.9339  0.1671
13602TIP3    H262222   2.411   2.117   3.402  0.2640 -0.2797  0.2864
13603TIP3   OH262223   4.084   2.243   4.493 -0.3545 -0.5332 -1.0233
13603TIP3    H162224   4.008   2.193   4.465  0.6596 -1.5941 -2.0361
13603TIP3    H262225   4.139   2.180   4.540 -0.4339  0.3981  0.3744
13604TIP3   OH262226   1.667   5.056  12.280 -0.6006  0.8108  0.5197
13604TIP3    H162227   1.672   5.151  12.274 -1.3832  0.8084 -0.4156
13604TIP3    H262228   1.754   5.025  12.255 -1.1581  1.2023 -2.2135
13605TIP3   OH262229   4.485   1.990  11.750 -0.1468  0.0025 -0.1572
13605TIP3    H162230   4.444   1.914  11.793 -1.5618 -0.1861 -1.7384
13605TIP3    H262231   4.550   2.020  11.813 -1.0509 -1.1974  1.4446
13606TIP3   OH262232   0.541   4.592  15.456  0.0086 -0.2532  0.1778
13606TIP3    H162233   0.515   4.676  15.419 -0.6591  0.0032  1.1914
13606TIP3    H262234   0.585   4.614  15.538 -0.4019 -0.8962  0.5769
13607TIP3   OH262235   4.551   6.424  12.485  0.3462 -0.8798  0.1094
13607TIP3    H162236   4.460   6.445  12.506  0.4450 -0.3405  0.0033
13607TIP3    H262237   4.547   6.388  12.397  0.2010 -1.1488  0.2219
13608TIP3   OH262238   0.687   1.503   4.520 -0.6007 -0.0285  0.1625
13608TIP3    H162239   0.611   1.551   4.554  0.9247  3.0469 -0.3925
13608TIP3    H262240   0.752   1.571   4.502  1.7463 -2.3680 -0.8637
13609TIP3   OH262241   5.892   0.458   4.490 -0.2581  0.6082  0.0569
13609TIP3    H162242   5.799   0.475   4.474  0.2460  1.2175 -2.7495
13609TIP3    H262243   5.916   0.519   4.559 -1.4219  2.2227 -0.9067
13610TIP3   OH262244   4.666   2.468  16.903 -0.3557  0.1690 -0.4456
13610TIP3    H162245   4.644   2.455  16.810 -1.1110 -0.0185 -0.2417
13610TIP3    H262246   4.747   2.418  16.915 -0.3003  0.1213 -0.9817
13611TIP3   OH262247   5.966   1.452  13.826  0.1236  0.2545 -0.4447
13611TIP3    H162248   6.039   1.466  13.765 -0.0075  1.8543 -0.2734
13611TIP3    H262249   5.888   1.449  13.770 -0.2784  3.9606 -0.3325
13612TIP3   OH262250   5.409   3.778  10.547 -0.3952  0.0100  0.2770
13612TIP3    H162251   5.366   3.693  10.548  1.0208 -0.7433  0.3739
13612TIP3    H262252   5.500   3.758  10.570 -0.7293  1.9658  4.0472
13613TIP3   OH262253   1.965   5.863   4.778 -0.2956 -0.7994 -0.0423
13613TIP3    H162254   1.897   5.804   4.810 -0.0405 -0.8539  0.4244
13613TIP3    H262255   1.922   5.948   4.770 -0.3822 -0.7943  0.4188
13614TIP3   OH262256   1.668   5.639   1.846  0.4529  0.5214  0.5048
13614TIP3    H162257   1.742   5.698   1.840  0.5045  0.3943 -0.3387
13614TIP3    H262258   1.702   5.561   1.889  0.9774  0.2245 -0.4268
13615TIP3   OH262259   5.322   4.738  15.062 -0.3750  0.6152  1.1162
13615TIP3    H162260   5.290   4.658  15.019  1.3191  0.8007 -0.6507
13615TIP3    H262261   5.406   4.756  15.020 -0.3641  2.9481  1.9627
13616TIP3   OH262262   0.410   5.281   3.646  0.2469  0.4885 -0.3726
13616TIP3    H162263   0.349   5.221   3.688 -0.6602  1.0645 -0.8106
13616TIP3    H262264   0.494   5.267   3.690 -0.2755 -0.1115  0.4474
13617TIP3   OH262265   2.155   3.881  13.500 -0.5040 -0.2588 -0.6433
13617TIP3    H162266   2.136   3.973  13.520 -1.5817 -0.6978  0.4759
13617TIP3    H262267   2.136   3.872  13.407 -4.1334 -0.1955 -0.0429
13618TIP3   OH262268   3.755   2.850   3.500  0.0131  0.6078 -0.1072
13618TIP3    H162269   3.773   2.879   3.590 -0.9483 -1.9677  1.0382
13618TIP3    H262270   3.713   2.925   3.458 -2.5127  0.9315  2.6337
13619TIP3   OH262271   3.530   3.592   0.619 -0.1873  0.7152  0.1835
13619TIP3    H162272   3.597   3.625   0.679 -1.3258  0.5228  1.6239
13619TIP3    H262273   3.450   3.589   0.672 -0.8207 -1.3276 -0.7853
13620TIP3   OH262274   4.323   0.982   3.585 -0.5365  0.2217 -0.4182
13620TIP3    H162275   4.302   1.033   3.507 -0.7277  1.4728  0.4286
13620TIP3    H262276   4.239   0.945   3.612 -0.3037 -1.0567 -1.3593
13621TIP3   OH262277   3.584   5.141   5.293 -0.0136  0.3915 -0.4694
13621TIP3    H162278   3.669   5.164   5.332  0.0110 -1.8788  1.0340
13621TIP3    H262279   3.521   5.155   5.364 -0.3382 -1.3631 -0.3633
13622TIP3   OH262280   2.930   5.802   3.719  0.3140 -0.7009  0.3580
13622TIP3    H162281   2.976   5.756   3.650  0.0404 -0.2978 -0.1001
13622TIP3    H262282   2.897   5.881   3.678  0.6406 -0.1656  1.0951
13623TIP3   OH262283   0.917   0.947  14.690 -0.0793 -0.2425 -0.1427
13623TIP3    H162284   1.005   0.947  14.729  0.5153 -0.3038 -1.4178
13623TIP3    H262285   0.859   0.921  14.762  0.4090  3.3252  1.7587
13624TIP3   OH262286   5.563   4.211  14.974  0.4066 -0.3514  0.0003
13624TIP3    H162287   5.598   4.161  15.048  0.0298 -0.1105  0.3452
13624TIP3    H262288   5.561   4.302  15.005  0.5579 -0.2009 -0.4224
13625TIP3   OH262289   0.803   4.249   6.255 -0.4126 -0.0489 -0.1794
13625TIP3    H162290   0.724   4.237   6.308  0.2437  0.4282  0.9494
13625TIP3    H262291   0.862   4.299   6.311  1.8218 -2.8062  0.1840
13626TIP3   OH262292   5.248   3.462  13.797 -0.0770  0.6054  0.6502
13626TIP3    H162293   5.153   3.476  13.790  0.3314  3.7812  0.1408
13626TIP3    H262294   5.268   3.481  13.889 -0.0004 -0.9176  0.9709
13627TIP3   OH262295   1.163   0.904  13.260  0.0925 -0.4448 -0.3029
13627TIP3    H162296   1.229   0.835  13.265 -1.3956 -2.2552 -3.2418
13627TIP3    H262297   1.195   0.972  13.320  2.7212 -2.7319  1.1016
13628TIP3   OH262298   6.396   4.095   1.766 -0.2295  0.4736 -0.0811
13628TIP3    H162299   6.386   4.185   1.797  0.9920  0.1098  1.4763
13628TIP3    H262300   6.365   4.041   1.838  0.0159 -0.3865 -0.6018
13629TIP3   OH262301   5.270   0.841  11.427  0.2427 -0.3949 -0.1104
13629TIP3    H162302   5.206   0.801  11.368  1.0273 -3.6591  1.0439
13629TIP3    H262303   5.218   0.874  11.500 -0.4252  0.6876 -1.0413
13630TIP3   OH262304   2.064   0.885   1.989  0.0739 -0.2360  0.0846
13630TIP3    H162305   2.075   0.808   2.044  0.5880 -0.6251 -0.5479
13630TIP3    H262306   2.121   0.869   1.913 -1.0965 -0.0202 -0.8750
13631TIP3   OH262307   3.853   0.939  14.113  0.6035  0.1135 -0.0084
13631TIP3    H162308   3.839   0.926  14.019 -0.8877 -0.7372  0.3146
13631TIP3    H262309   3.774   0.983  14.144  0.9723  0.1597  0.9130
13632TIP3   OH262310   4.987   0.278   3.724 -0.8266 -0.3614 -0.4814
13632TIP3    H162311   5.049   0.205   3.731  1.7877  1.8652  3.3313
13632TIP3    H262312   4.920   0.247   3.663  1.9834 -4.4597 -1.9135
13633TIP3   OH262313   2.100   6.098  13.762 -0.0053 -0.3145  0.1373
13633TIP3    H162314   2.121   6.191  13.759 -0.0132 -0.3482 -1.3835
13633TIP3    H262315   2.067   6.084  13.851 -0.7345  1.2847  0.1418
13634TIP3   OH262316   5.166   6.424   5.303 -0.5022  0.5821 -0.0588
13634TIP3    H162317   5.204   6.425   5.391  0.5678 -0.7018 -0.4685
13634TIP3    H262318   5.084   6.376   5.312 -0.9231  1.3645  0.4100
13635TIP3   OH262319   2.933   2.748   3.433 -0.3765  0.3932  0.2404
13635TIP3    H162320   2.839   2.733   3.418 -0.0995 -0.2941 -0.9936
13635TIP3    H262321   2.946   2.841   3.414 -0.5955  0.2079 -0.9055
13636TIP3   OH262322   1.591   0.261   1.774 -0.2673 -0.2159  0.1399
13636TIP3    H162323   1.514   0.316   1.784 -0.0804 -0.0799  0.9129
13636TIP3    H262324   1.598   0.214   1.858  0.8738  0.2778  0.3352
13637TIP3   OH262325   2.868   5.202   4.928 -0.2470 -0.4793 -0.3056
13637TIP3    H162326   2.843   5.280   4.880 -1.7541 -1.1244 -0.6343
13637TIP3    H262327   2.862   5.227   5.020 -0.2325 -0.0747 -0.4126
13638TIP3   OH262328   2.190   3.701  12.544  0.2965  0.1353  0.8039
13638TIP3    H162329   2.262   3.640  12.559  0.7540 -0.2077 -2.1917
13638TIP3    H262330   2.111   3.648  12.559  0.6581 -0.2903  1.2689
13639TIP3   OH262331   1.361   4.822  12.187 -0.8298  0.1127  0.3390
13639TIP3    H162332   1.286   4.776  12.149 -0.5963  0.1576 -0.1871
13639TIP3    H262333   1.335   4.915  12.185 -0.6127  0.1671 -0.2006
13640TIP3   OH262334   4.383   0.285  10.988  0.3985  0.4616 -0.3252
13640TIP3    H162335   4.390   0.379  10.973 -2.8399  0.6306 -1.3965
13640TIP3    H262336   4.291   0.264  10.972  0.6161 -2.6168  1.5651
13641TIP3   OH262337   3.926   2.698   2.621 -0.4534 -0.3429  0.6058
13641TIP3    H162338   3.890   2.780   2.655 -2.1479 -0.8401  0.0942
13641TIP3    H262339   3.950   2.648   2.700 -2.1035 -0.5056  1.0439
13642TIP3   OH262340   0.143   1.087  17.135 -0.3774  0.2554 -0.3171
13642TIP3    H162341   0.213   1.116  17.077 -1.4396  1.3571 -1.1042
13642TIP3    H262342   0.153   1.140  17.214  0.5520 -0.6434  0.1911
13643TIP3   OH262343   1.593   4.118  16.278  0.0253 -0.0198  0.2868
13643TIP3    H162344   1.537   4.188  16.245  1.7749  0.3332 -2.1140
13643TIP3    H262345   1.601   4.137  16.372 -0.8341  2.0404  0.0019
13644TIP3   OH262346   6.076   4.445  13.939 -0.9034  0.3599  0.1066
13644TIP3    H162347   6.163   4.464  13.973 -0.1189  0.2287 -1.7432
13644TIP3    H262348   6.086   4.364  13.889 -2.3853 -0.3588  0.8733
13645TIP3   OH262349   0.429   3.304  11.772  0.2776  0.0258  0.3855
13645TIP3    H162350   0.439   3.226  11.827  1.0463 -0.9023 -0.9851
13645TIP3    H262351   0.509   3.306  11.719 -0.8015  0.3137 -1.3274
13646TIP3   OH262352   5.106   5.755   4.888  0.2127 -0.0761  0.3967
13646TIP3    H162353   5.128   5.846   4.869 -2.7154  0.5482 -0.6134
13646TIP3    H262354   5.145   5.738   4.973  0.2133  2.4095  0.9643
13647TIP3   OH262355   2.906   6.142  13.636 -0.3467 -0.1327  0.4043
13647TIP3    H162356   2.983   6.180  13.679 -0.2465  0.3375 -0.1741
13647TIP3    H262357   2.839   6.139  13.705  0.4311 -1.3365  1.1400
13648TIP3   OH262358   3.906   1.450   6.158  0.2565 -0.4715  0.6748
13648TIP3    H162359   3.988   1.403   6.177  0.8420 -0.2871 -1.1828
13648TIP3    H262360   3.837   1.391   6.187  0.9957 -1.9968 -0.5678
13649TIP3   OH262361   2.395   5.079   6.379 -0.2191  0.5374  0.5478
13649TIP3    H162362   2.370   5.161   6.336 -0.4998 -0.3190 -0.9881
13649TIP3    H262363   2.384   5.012   6.312 -2.6436 -1.2050  2.4824
13650TIP3   OH262364   5.335   2.791   1.594  0.3172  0.1472  0.2223
13650TIP3    H162365   5.306   2.861   1.535  0.5809  1.2380  1.3587
13650TIP3    H262366   5.420   2.821   1.627 -0.0204 -0.2418  1.4771
13651TIP3   OH262367   3.072   1.255  15.013  0.1694 -0.2955 -0.0182
13651TIP3    H162368   3.081   1.160  15.013 -1.2781 -0.4843 -1.6124
13651TIP3    H262369   2.978   1.271  15.013  0.3228  1.2394  3.0910
13652TIP3   OH262370   3.610   0.838   2.438  0.2660 -0.0586  0.0123
13652TIP3    H162371   3.608   0.891   2.358 -0.3433  0.1215  0.1408
13652TIP3    H262372   3.519   0.812   2.452  0.6518 -1.8687 -0.5152
13653TIP3   OH262373   3.380   3.397  13.393  0.6112 -0.1185 -0.6542
13653TIP3    H162374   3.464   3.444  13.390  0.9034 -0.6069 -0.2716
13653TIP3    H262375   3.367   3.366  13.304  0.5479  0.4579 -0.8501
13654TIP3   OH262376   1.837   6.719  11.755  0.3234  0.4980  0.5906
13654TIP3    H162377   1.918   6.670  11.770 -0.4217 -1.0282 -0.1272
13654TIP3    H262378   1.772   6.651  11.738 -0.6070  1.7804 -1.1931
13655TIP3   OH262379   5.610   3.002  16.589  0.0035 -0.1136  0.1992
13655TIP3    H162380   5.612   2.933  16.656 -0.4638 -1.4645 -1.1056
13655TIP3    H262381   5.650   3.078  16.631  1.6147 -1.5108  1.3386
13656TIP3   OH262382   1.417   5.924  13.300 -0.0089  0.1820 -0.4426
13656TIP3    H162383   1.352   5.862  13.332 -0.7796  0.2493 -1.7909
13656TIP3    H262384   1.377   5.962  13.221  1.7622  0.0405 -1.4609
13657TIP3   OH262385   4.385   1.156   3.777 -0.2850 -0.1187  0.0353
13657TIP3    H162386   4.430   1.101   3.840 -0.6718 -0.5285 -0.0410
13657TIP3    H262387   4.374   1.101   3.699 -0.8733 -0.0134  0.0399
13658TIP3   OH262388   0.483   2.952   3.536  0.1163 -0.2230  0.2036
13658TIP3    H162389   0.463   2.878   3.593 -0.2013 -0.3500 -0.0667
13658TIP3    H262390   0.473   2.917   3.447  1.0582 -0.1523  0.0631
13659TIP3   OH262391   2.360   0.473  14.230  0.3964 -0.6107  0.0683
13659TIP3    H162392   2.313   0.527  14.294  0.3155  0.3576 -0.7740
13659TIP3    H262393   2.316   0.388  14.233  1.1218 -0.9628  2.0876
13660TIP3   OH262394   5.916   3.994  11.591 -0.1246  0.2191 -0.0974
13660TIP3    H162395   5.890   3.914  11.637  1.7139 -0.0607  0.5772
13660TIP3    H262396   5.957   4.048  11.659  1.0633  0.5681 -1.0592
13661TIP3   OH262397   1.739   5.919  11.784  0.2695 -0.0994 -0.1821
13661TIP3    H162398   1.719   5.918  11.691 -0.3074 -1.1017 -0.0586
13661TIP3    H262399   1.702   5.838  11.818  0.8110  0.0650  0.8545
13662TIP3   OH262400   0.042   1.236  15.363  0.3708  0.0684  0.0321
13662TIP3    H162401  -0.049   1.253  15.386  0.3726  0.4653 -0.2397
13662TIP3    H262402   0.084   1.212  15.445  0.1888  0.6378  0.2962
13663TIP3   OH262403   4.719   3.505  13.816  0.1241 -0.4028  0.1897
13663TIP3    H162404   4.671   3.432  13.855 -0.9099  0.0532 -0.1970
13663TIP3    H262405   4.754   3.469  13.734  0.4095 -0.7285  0.4524
13664TIP3   OH262406   0.821   0.725   3.184 -0.8281  0.3503 -0.2321
13664TIP3    H162407   0.774   0.658   3.136 -1.9998  0.6217  0.5072
13664TIP3    H262408   0.757   0.762   3.244  0.7805 -0.6895  2.3189
13665TIP3   OH262409   5.981   6.668   3.216 -0.0280  0.1291  0.8199
13665TIP3    H162410   5.989   6.642   3.307  0.0612 -1.7983  0.3193
13665TIP3    H262411   6.068   6.699   3.192 -0.1124  0.8509  1.4395
13666TIP3   OH262412   3.309   5.856   4.571 -0.0784 -0.0731 -0.1371
13666TIP3    H162413   3.220   5.828   4.548 -0.4106  0.5184  0.4016
13666TIP3    H262414   3.301   5.889   4.660  0.8394 -0.7104  0.1978
13667TIP3   OH262415   6.236   6.591  12.710 -0.4123  0.0367 -0.0843
13667TIP3    H162416   6.205   6.556  12.793  0.2541 -0.5218 -0.0564
13667TIP3    H262417   6.316   6.639  12.732 -0.8786  0.9079 -0.2426
13668TIP3   OH262418   0.092   0.863   4.417 -0.1152  0.0544  0.3163
13668TIP3    H162419   0.092   0.768   4.428  0.3835  0.0887  0.6670
13668TIP3    H262420   0.130   0.896   4.498  1.3925  0.4536 -0.5095
13669TIP3   OH262421   3.377   0.320   5.532  1.0508  0.0676  0.0626
13669TIP3    H162422   3.415   0.401   5.498  1.0565  0.2384  0.4713
13669TIP3    H262423   3.361   0.267   5.454  2.2445 -0.0592 -0.1225
13670TIP3   OH262424   5.155   4.409  10.522 -0.6374  0.2480 -0.1395
13670TIP3    H162425   5.233   4.407  10.578 -0.1675  0.9708 -0.7494
13670TIP3    H262426   5.104   4.483  10.555 -1.4679 -0.6872  0.7561
13671TIP3   OH262427   5.562   5.878   0.473  0.5985 -0.2375  0.4970
13671TIP3    H162428   5.534   5.911   0.559 -0.9296  2.2916 -0.8484
13671TIP3    H262429   5.657   5.879   0.477  0.6136  2.1766  1.4561
13672TIP3   OH262430   4.273   3.318  14.229  0.7024 -0.0412  0.2866
13672TIP3    H162431   4.230   3.327  14.314  1.3583 -1.5197  0.8120
13672TIP3    H262432   4.348   3.260  14.246  2.3111  1.6002 -0.7928
13673TIP3   OH262433   2.841   2.565  15.226  0.1323 -0.4401 -0.4832
13673TIP3    H162434   2.780   2.635  15.202  1.0687  0.9178  0.9332
13673TIP3    H262435   2.923   2.589  15.183  0.6419 -0.2855  0.5590
13674TIP3   OH262436   5.656   6.104  16.912  0.6606  0.6787 -0.1446
13674TIP3    H162437   5.748   6.104  16.938  0.3450  1.2036  1.0462
13674TIP3    H262438   5.621   6.186  16.947 -0.6432 -0.2847  0.9310
13675TIP3   OH262439   3.718   5.449   3.625 -0.0304  0.5781  0.2227
13675TIP3    H162440   3.762   5.439   3.710  1.4126  1.7006 -0.3422
13675TIP3    H262441   3.679   5.364   3.607  1.5413 -0.3476  0.9915
13676TIP3   OH262442   5.344   2.616   5.465  0.5176  0.1316 -0.0512
13676TIP3    H162443   5.276   2.639   5.402 -0.4844 -0.1249  0.9104
13676TIP3    H262444   5.400   2.555   5.418  1.0126  1.5334 -1.3780
13677TIP3   OH262445   5.553   0.451  16.564  0.2939 -0.1188  0.2375
13677TIP3    H162446   5.593   0.365  16.573  2.5187  0.7924 -0.4180
13677TIP3    H262447   5.548   0.466  16.470  1.3241  1.0580  0.3487
13678TIP3   OH262448   5.988   5.561   0.828  0.4607 -0.4395  0.3221
13678TIP3    H162449   5.914   5.566   0.888  0.4238  1.0835  0.1952
13678TIP3    H262450   6.048   5.498   0.867  0.0726 -0.0627  1.5579
13679TIP3   OH262451   2.559   5.827   3.086 -0.4136  0.0683 -0.4042
13679TIP3    H162452   2.485   5.888   3.093  0.2562  0.7169  2.1838
13679TIP3    H262453   2.635   5.884   3.076  0.2191 -0.2369  1.9903
13680TIP3   OH262454   5.093   2.289  12.267  0.6262 -0.1688  0.0229
13680TIP3    H162455   5.170   2.248  12.227  1.5840  1.1561  0.4546
13680TIP3    H262456   5.027   2.290  12.197  1.1404 -0.8812 -0.4950
13681TIP3   OH262457   2.826   4.205  13.734  0.6745  0.0283 -0.5448
13681TIP3    H162458   2.857   4.276  13.678 -0.3146  0.3685 -0.6922
13681TIP3    H262459   2.739   4.184  13.699 -0.0294  0.3367  0.9201
13682TIP3   OH262460   5.874   5.652   2.886  0.5426 -0.1555  0.1117
13682TIP3    H162461   5.865   5.648   2.791 -0.5585  0.5956  0.1677
13682TIP3    H262462   5.943   5.588   2.906 -2.4526 -4.0084 -0.7272
13683TIP3   OH262463   2.588   0.979   2.402  0.3519  0.0701 -0.0389
13683TIP3    H162464   2.675   0.962   2.366  1.6350  1.7769  2.0229
13683TIP3    H262465   2.604   1.016   2.489 -2.4898 -0.8533  1.0097
13684TIP3   OH262466   5.240   4.017   4.793  0.0461  0.6029 -0.6051
13684TIP3    H162467   5.170   4.016   4.858  0.7424  1.2133  0.1701
13684TIP3    H262468   5.313   3.971   4.835  0.8803  1.9776 -0.5046
13685TIP3   OH262469   1.705   3.281  17.392 -0.1586 -0.0984  0.1378
13685TIP3    H162470   1.611   3.263  17.397 -0.2963  0.5899  0.1193
13685TIP3    H262471   1.720   3.351  17.455  0.0831  0.8062 -0.9087
13686TIP3   OH262472   6.481   6.044  17.195 -0.4780 -0.1603 -0.2753
13686TIP3    H162473   6.455   5.958  17.228 -0.2507 -0.2635 -0.3665
13686TIP3    H262474   6.446   6.047  17.106  0.6235 -0.6745 -0.7390
13687TIP3   OH262475   1.310   0.790  16.350 -0.5964 -0.1182 -0.3704
13687TIP3    H162476   1.348   0.835  16.425 -1.7168 -1.6640  1.1963
13687TIP3    H262477   1.228   0.836  16.332 -0.4951  0.0377 -0.4355
13688TIP3   OH262478   4.165   1.066  12.158  0.7790  0.1450  0.4466
13688TIP3    H162479   4.094   1.121  12.125  0.0847 -1.4658 -0.9498
13688TIP3    H262480   4.210   1.120  12.223 -1.6521  1.2736  1.3129
13689TIP3   OH262481   1.417   5.111   5.471  0.0115 -0.2206 -0.8576
13689TIP3    H162482   1.432   5.205   5.484 -0.8764  0.1808 -2.4710
13689TIP3    H262483   1.351   5.088   5.536  0.8874  0.0327  0.1634
13690TIP3   OH262484   4.329   1.898  14.108  0.7966 -0.2279 -0.0450
13690TIP3    H162485   4.324   1.864  14.019 -0.7112 -1.5874  0.5079
13690TIP3    H262486   4.354   1.822  14.161  0.5819  0.2925  0.8280
13691TIP3   OH262487   4.591   5.095  15.592 -0.1900 -0.1453 -0.3744
13691TIP3    H162488   4.499   5.093  15.619 -0.6307  0.2240 -1.7963
13691TIP3    H262489   4.616   5.187  15.595 -0.0573 -0.1723 -0.6011
13692TIP3   OH262490   1.029   2.982   5.512 -0.1206  0.2302  0.0518
13692TIP3    H162491   1.003   2.891   5.501 -0.6018 -0.0253  2.6502
13692TIP3    H262492   0.964   3.032   5.463 -0.9490 -0.7604  0.1054
13693TIP3   OH262493   6.423   2.283   6.402 -0.0264  0.3689 -0.1811
13693TIP3    H162494   6.459   2.366   6.435  0.1527  1.5016 -2.9595
13693TIP3    H262495   6.330   2.302   6.387 -0.5523 -0.7401  1.4386
13694TIP3   OH262496   0.132   5.774   1.202  0.2159  0.3084  0.6168
13694TIP3    H162497   0.063   5.790   1.138 -0.7459 -1.6817  1.0769
13694TIP3    H262498   0.124   5.845   1.266  0.6450  1.8360 -0.9616
13695TIP3   OH262499   1.080   1.565   5.901  0.1910 -0.2481  0.3269
13695TIP3    H162500   1.070   1.506   5.976 -0.1048 -0.3290  0.2232
13695TIP3    H262501   1.153   1.622   5.926  0.4050 -0.5831  0.4729
13696TIP3   OH262502   6.415   2.964   0.433 -0.0266  0.3356  0.0847
13696TIP3    H162503   6.416   2.870   0.415 -1.2554  0.2350  0.4648
13696TIP3    H262504   6.341   2.997   0.382  1.3496  1.3888 -1.3353
13697TIP3   OH262505   4.758   4.680   1.820  0.7238 -0.7662 -0.2147
13697TIP3    H162506   4.692   4.737   1.859 -0.6737 -1.5273 -1.3309
13697TIP3    H262507   4.842   4.720   1.842 -0.1619  0.9799  0.1198
13698TIP3   OH262508   2.822   4.706   3.231  0.3281 -0.2358  0.2185
13698TIP3    H162509   2.848   4.634   3.289  0.3302 -0.7213 -0.3788
13698TIP3    H262510   2.737   4.735   3.266  0.3627 -0.4790  0.5085
13699TIP3   OH262511   5.401   1.883  11.545  0.3436  0.4753  0.4735
13699TIP3    H162512   5.459   1.853  11.615 -0.8856  0.1185  1.3691
13699TIP3    H262513   5.453   1.875  11.466  0.6753 -2.4000  0.8926
13700TIP3   OH262514   1.931   5.626  15.209 -0.5581  0.0814 -0.7586
13700TIP3    H162515   1.966   5.564  15.146  2.0852  0.3158  0.3520
13700TIP3    H262516   1.950   5.712  15.171 -1.6459  0.2370 -0.9803
13701TIP3   OH262517   2.677   5.018  11.889  0.0488 -0.3158  0.5631
13701TIP3    H162518   2.706   4.957  11.957  1.1461 -1.8495 -1.1878
13701TIP3    H262519   2.757   5.061  11.860  0.2157 -2.1412 -2.0069
13702TIP3   OH262520   0.948   3.426  15.142 -0.2142  0.2925  0.1606
13702TIP3    H162521   0.875   3.365  15.154 -1.4505  1.7528  0.4155
13702TIP3    H262522   0.908   3.513  15.151  1.6855  1.1359  1.0151
13703TIP3   OH262523   4.982   1.446   0.608 -0.3205  0.1828 -0.2311
13703TIP3    H162524   4.980   1.358   0.644 -0.7201 -0.2084 -1.1703
13703TIP3    H262525   5.075   1.468   0.604 -0.0328 -1.1151 -2.0833
13704TIP3   OH262526   3.999   5.408   0.915  0.6308 -0.0589 -0.0319
13704TIP3    H162527   3.982   5.390   0.822  1.5006  0.4024 -0.2881
13704TIP3    H262528   3.919   5.381   0.959  0.2005 -0.2791 -0.9210
13705TIP3   OH262529   0.562   5.418  12.974 -0.4368  0.3925 -0.1559
13705TIP3    H162530   0.553   5.395  12.881 -3.3081  0.5826 -0.0188
13705TIP3    H262531   0.623   5.353  13.008  2.4440  1.6094 -2.5147
13706TIP3   OH262532   4.751   1.832   6.376 -0.3436  0.4944  0.1178
13706TIP3    H162533   4.800   1.908   6.343 -0.4143  1.6075  2.3891
13706TIP3    H262534   4.802   1.801   6.451 -0.0737 -2.0573 -1.0081
13707TIP3   OH262535   1.674   1.833  16.744 -0.2435 -0.0076  0.0642
13707TIP3    H162536   1.759   1.794  16.722 -0.8415 -1.2434 -0.1179
13707TIP3    H262537   1.671   1.832  16.840 -0.2202 -0.3368  0.0615
13708TIP3   OH262538   6.648   1.884   5.434  0.0426  0.3822 -0.4004
13708TIP3    H162539   6.729   1.886   5.485 -0.7144 -2.2879  1.1046
13708TIP3    H262540   6.677   1.872   5.343  1.3422  0.8465 -0.0654
13709TIP3   OH262541   3.958   2.964  13.473 -0.4522 -0.2024  0.4796
13709TIP3    H162542   3.948   2.873  13.502 -0.6280 -0.0586  0.8696
13709TIP3    H262543   3.940   2.961  13.379 -0.6455 -0.5391  0.5261
13710TIP3   OH262544   1.868   6.129   4.817 -0.3881  0.3589 -0.3609
13710TIP3    H162545   1.797   6.143   4.879  0.6863  2.1117  0.5449
13710TIP3    H262546   1.935   6.193   4.841  0.6012  0.2559 -2.5534
13711TIP3   OH262547   5.376   6.327   2.441  0.2054 -1.0377  0.2046
13711TIP3    H162548   5.390   6.271   2.364  0.4849  1.3229 -1.5550
13711TIP3    H262549   5.298   6.378   2.419  0.6633  0.1350  1.2196
13712TIP3   OH262550   0.751   0.809  11.383 -0.0649 -0.4251 -0.0593
13712TIP3    H162551   0.714   0.755  11.313 -0.7620  0.0204 -0.0455
13712TIP3    H262552   0.844   0.814  11.362 -0.0135 -1.4801 -0.1569
13713TIP3   OH262553   5.052   2.383  11.001 -0.8376 -0.2512 -0.3958
13713TIP3    H162554   4.980   2.320  11.010 -2.4375  1.4468 -0.7950
13713TIP3    H262555   5.010   2.463  10.971  1.4013  0.4799 -1.7774
13714TIP3   OH262556   1.626   5.135   0.609  0.3206  0.0336  0.5372
13714TIP3    H162557   1.546   5.185   0.621 -0.0492 -0.2827 -0.4522
13714TIP3    H262558   1.620   5.102   0.519  1.0376 -0.9087  0.8161
13715TIP3   OH262559   5.120   4.132  10.825 -0.3273  0.5600  0.1315
13715TIP3    H162560   5.033   4.149  10.861 -0.8480  0.5753 -1.0849
13715TIP3    H262561   5.177   4.196  10.869 -1.3673  2.1591 -0.7459
13716TIP3   OH262562   6.133   5.812   0.404 -0.0731  0.6176  0.0968
13716TIP3    H162563   6.110   5.828   0.495 -0.7035 -0.1873  0.0868
13716TIP3    H262564   6.109   5.892   0.358 -1.2310  0.4526  0.3837
13717TIP3   OH262565   5.443   4.238  15.267  0.0612 -0.0644 -0.3439
13717TIP3    H162566   5.459   4.331  15.254  1.6331 -0.1167  0.9468
13717TIP3    H262567   5.519   4.206  15.315 -0.6828 -1.9140 -0.2862
13718TIP3   OH262568   0.975   6.383   0.832  0.4735 -0.8027  0.2224
13718TIP3    H162569   1.061   6.344   0.845  0.8754  0.8225  3.4513
13718TIP3    H262570   0.917   6.330   0.888 -0.1517 -0.4862 -0.1155
13719TIP3   OH262571   4.316   3.067  13.790  0.3503 -0.6459 -0.1832
13719TIP3    H162572   4.278   3.099  13.872 -2.8300 -1.1947 -1.3165
13719TIP3    H262573   4.346   3.147  13.746 -0.9444  0.0265  0.1078
13720TIP3   OH262574   3.131   1.112   0.437 -0.0685  0.0924 -0.0959
13720TIP3    H162575   3.148   1.185   0.377 -0.8719 -0.2573 -0.7867
13720TIP3    H262576   3.203   1.051   0.423  0.7917  0.8867  0.7327
13721TIP3   OH262577   1.888   3.787   5.284  0.2822  0.4522 -0.3491
13721TIP3    H162578   1.974   3.747   5.271 -0.3130 -0.7864 -0.6315
13721TIP3    H262579   1.845   3.779   5.198 -0.9986 -1.1506  0.4043
13722TIP3   OH262580   2.581   2.472   3.675 -0.2692  0.3113 -0.7938
13722TIP3    H162581   2.536   2.556   3.686  1.3365  1.1708 -0.3383
13722TIP3    H262582   2.557   2.443   3.588 -0.7489  1.3315 -1.0158
13723TIP3   OH262583   0.370   0.555   4.072  0.0429  0.4425  0.1839
13723TIP3    H162584   0.463   0.575   4.079  0.0355  0.2270  0.9914
13723TIP3    H262585   0.366   0.466   4.040  0.1226  0.3644  0.3890
13724TIP3   OH262586   4.800   0.766  13.885 -0.9831 -0.3810 -0.4607
13724TIP3    H162587   4.875   0.729  13.931 -0.5166 -1.3258 -1.8957
13724TIP3    H262588   4.740   0.692  13.874  0.2264 -1.0322 -3.9241
13725TIP3   OH262589   0.748   1.095   6.673  0.0830  0.1437 -0.1753
13725TIP3    H162590   0.706   1.014   6.641 -0.7575  0.2629  0.5880
13725TIP3    H262591   0.717   1.104   6.763 -0.5527  1.7822 -0.5145
13726TIP3   OH262592   1.494   2.178  14.606 -0.6090  0.3119 -0.0452
13726TIP3    H162593   1.434   2.233  14.556  0.0427  0.4798 -0.6507
13726TIP3    H262594   1.441   2.146  14.680 -1.8874 -0.7065 -1.3279
13727TIP3   OH262595   4.117   3.346  17.321  0.0795  0.2769  0.1525
13727TIP3    H162596   4.157   3.299  17.247  0.3492  2.6630 -1.3389
13727TIP3    H262597   4.035   3.300  17.337 -0.6224  0.3684 -2.5642
13728TIP3   OH262598   4.515   4.450   0.800  0.4028  0.5908 -0.3052
13728TIP3    H162599   4.590   4.498   0.765  2.0398 -1.8314 -0.3847
13728TIP3    H262600   4.446   4.463   0.736  1.3057  1.5020 -1.1275
13729TIP3   OH262601   3.693   0.464  16.413 -0.3943  0.0549 -0.0243
13729TIP3    H162602   3.674   0.537  16.472 -0.5313 -1.1712  1.5184
13729TIP3    H262603   3.653   0.490  16.330  1.4931  2.7254 -0.2479
13730TIP3   OH262604   0.086   1.983   0.553 -0.2900  0.5292 -0.3236
13730TIP3    H162605   0.113   1.956   0.465 -0.1037  3.0885 -1.1228
13730TIP3    H262606   0.156   1.951   0.610 -2.1447 -4.4834 -0.3791
13731TIP3   OH262607   3.385   1.145   2.238  0.1374  0.6637 -0.1619
13731TIP3    H162608   3.477   1.173   2.230  0.4519 -0.5921 -1.1706
13731TIP3    H262609   3.389   1.056   2.272 -0.6812  0.3745 -0.7818
13732TIP3   OH262610   6.506   1.795   6.420  0.0939 -0.7609  0.6093
13732TIP3    H162611   6.440   1.846   6.372  0.5010  0.2930  1.1295
13732TIP3    H262612   6.460   1.715   6.446 -0.9954 -0.0669  0.9333
13733TIP3   OH262613   0.677   4.515   5.272  0.7263  0.2434  0.0501
13733TIP3    H162614   0.680   4.522   5.367 -0.3051 -0.5592  0.1567
13733TIP3    H262615   0.596   4.559   5.247  1.5540  1.4950 -0.5952
13734TIP3   OH262616   3.354   3.031   3.596 -0.4162  0.0384 -0.2016
13734TIP3    H162617   3.378   3.053   3.686 -2.3037 -1.7459  0.8142
13734TIP3    H262618   3.416   3.081   3.542  2.0130 -0.2878  2.0805
13735TIP3   OH262619   0.071   3.694  13.002 -0.3674  0.6058  1.0437
13735TIP3    H162620   0.081   3.608  12.960  0.3700  1.1801 -0.0202
13735TIP3    H262621  -0.006   3.684  13.058  0.2072 -1.0009  1.6149
13736TIP3   OH262622   2.836   4.127   3.710  0.3331  0.6949 -0.2277
13736TIP3    H162623   2.814   4.167   3.795  0.4384 -1.6382  0.9808
13736TIP3    H262624   2.931   4.117   3.712  0.3009  0.3246 -0.4659
13737TIP3   OH262625   1.384   1.856  14.490  0.8681  0.6023 -0.4267
13737TIP3    H162626   1.294   1.857  14.522  1.1310  2.7594  0.4343
13737TIP3    H262627   1.376   1.839  14.396 -0.3638  0.1449 -0.2632
13738TIP3   OH262628   3.615   1.609   2.289 -0.1036 -0.0401 -0.3599
13738TIP3    H162629   3.543   1.584   2.347  0.5732 -1.4579 -0.0936
13738TIP3    H262630   3.618   1.705   2.295 -1.4429 -0.0103  0.2368
13739TIP3   OH262631   4.018   5.901  17.346 -0.7536 -1.2556  0.0166
13739TIP3    H162632   4.044   5.988  17.316 -1.3021 -0.5700  1.4280
13739TIP3    H262633   4.017   5.908  17.441 -0.8893 -2.7992  0.1517
13740TIP3   OH262634   2.167   4.704  13.928 -0.0788 -0.2635  0.1366
13740TIP3    H162635   2.199   4.757  13.855 -0.4946  1.8101  1.3697
13740TIP3    H262636   2.076   4.683  13.905 -0.4076  0.9103  0.2943
13741TIP3   OH262637   5.233   4.510  13.993  0.6363 -0.7617  0.7930
13741TIP3    H162638   5.236   4.582  13.930 -0.6515 -1.1420  0.2800
13741TIP3    H262639   5.309   4.457  13.972 -0.6350 -1.7767 -1.5500
13742TIP3   OH262640   1.580   5.482   4.599  0.1401  0.1594 -0.4651
13742TIP3    H162641   1.546   5.513   4.683 -1.5237 -0.6378 -0.7996
13742TIP3    H262642   1.661   5.436   4.622  0.1672  0.6848  0.5824
13743TIP3   OH262643   6.672   3.978  12.037  0.0444  0.1480  0.7704
13743TIP3    H162644   6.664   4.012  11.948  0.1565  0.0290  0.7143
13743TIP3    H262645   6.720   4.045  12.084 -0.1387  0.2743  0.7757
13744TIP3   OH262646   2.049   3.243   5.397 -0.2789 -0.4364 -0.0510
13744TIP3    H162647   2.133   3.230   5.353 -0.3492 -2.2393  0.2517
13744TIP3    H262648   2.065   3.217   5.488 -0.4562  2.0153  0.7527
13745TIP3   OH262649   4.026   3.215   2.147 -0.2282 -0.0946  0.1732
13745TIP3    H162650   3.934   3.199   2.125 -0.5558  0.9100  0.7733
13745TIP3    H262651   4.055   3.279   2.082  0.3376 -1.1100 -0.6070
13746TIP3   OH262652   1.179   5.401  11.243  0.9787  0.0085 -0.1228
13746TIP3    H162653   1.234   5.473  11.212  1.7770 -0.5700 -0.0966
13746TIP3    H262654   1.146   5.360  11.163  1.9910 -0.6921 -0.1991
13747TIP3   OH262655   6.259   5.795   3.810 -0.2156 -0.3735  0.0442
13747TIP3    H162656   6.258   5.699   3.809  1.0572 -0.4154 -0.7639
13747TIP3    H262657   6.334   5.818   3.865 -1.1629  0.1928  1.1246
13748TIP3   OH262658   4.183   4.935  15.599 -0.7408  0.3192  0.2424
13748TIP3    H162659   4.227   4.871  15.543  2.5850  1.0156  1.8247
13748TIP3    H262660   4.119   4.885  15.648 -2.1510 -0.6980 -2.4249
13749TIP3   OH262661   2.532   3.348  11.105  0.3464  0.2620  0.3765
13749TIP3    H162662   2.559   3.396  11.027 -0.9568 -1.7615 -1.4252
13749TIP3    H262663   2.568   3.260  11.093 -1.1511 -0.5189  1.2764
13750TIP3   OH262664   1.502   4.336   4.676 -0.1876 -0.1039 -0.6307
13750TIP3    H162665   1.412   4.368   4.686 -0.2482  0.3686 -2.3598
13750TIP3    H262666   1.557   4.411   4.695  0.0433 -0.9602  2.8570
13751TIP3   OH262667   2.657   5.794  16.063  0.5488 -0.0121  0.4272
13751TIP3    H162668   2.735   5.849  16.059  0.8598 -0.4515  0.2820
13751TIP3    H262669   2.613   5.809  15.979  0.4750  0.2403  0.5118
13752TIP3   OH262670   2.812   0.348   4.945  0.1024 -0.0924 -0.8615
13752TIP3    H162671   2.890   0.342   4.889  0.5120 -0.7226 -0.2383
13752TIP3    H262672   2.832   0.417   5.008  0.1124 -0.1769 -0.7716
13753TIP3   OH262673   1.057   2.607   3.084  0.5700 -0.0104 -0.2897
13753TIP3    H162674   1.056   2.659   3.165 -0.8912  1.3379 -1.1173
13753TIP3    H262675   1.072   2.517   3.113 -0.6900  0.3207  1.5613
13754TIP3   OH262676   6.088   1.763  11.242 -0.2622  0.5661  0.0833
13754TIP3    H162677   6.018   1.717  11.288 -1.2659  2.2090  0.2893
13754TIP3    H262678   6.136   1.695  11.195 -0.4039 -0.9156  2.0005
13755TIP3   OH262679   5.582   0.695  12.483  0.5346 -0.3610  0.0648
13755TIP3    H162680   5.559   0.614  12.528  2.1954 -2.1315 -2.1055
13755TIP3    H262681   5.509   0.711  12.423 -0.5455  0.7224  1.5571
13756TIP3   OH262682   4.884   2.980  14.240 -0.1030  0.3125  0.2491
13756TIP3    H162683   4.852   2.954  14.154  0.7096 -0.2204  0.0947
13756TIP3    H262684   4.964   2.929  14.252  0.2267  0.9736  0.9781
13757TIP3   OH262685   0.188   6.128   2.845 -0.0728  0.1758 -0.5552
13757TIP3    H162686   0.150   6.213   2.820 -0.4504  0.6042  1.3448
13757TIP3    H262687   0.112   6.072   2.863  0.1502  0.4612  1.4130
13758TIP3   OH262688   6.035   3.186  12.859  0.0333  0.4529  0.6084
13758TIP3    H162689   5.997   3.273  12.873 -2.8191 -0.7314  1.0360
13758TIP3    H262690   6.068   3.161  12.945  0.1408  0.8083  0.6715
13759TIP3   OH262691   4.532   6.458   5.902 -0.3132 -0.3047 -1.0209
13759TIP3    H162692   4.509   6.393   5.969  0.4268  1.0927  0.6673
13759TIP3    H262693   4.452   6.508   5.889  0.5452  2.2978  2.2620
13760TIP3   OH262694   3.258   6.470   2.048 -0.3061 -0.0494 -0.6771
13760TIP3    H162695   3.280   6.558   2.077 -1.0367  0.0585 -0.4358
13760TIP3    H262696   3.186   6.482   1.987 -0.3438 -0.4747 -0.7183
13761TIP3   OH262697   6.003   0.196  15.191  0.1768  0.2346  1.0232
13761TIP3    H162698   5.969   0.207  15.280  0.1283 -0.6524  1.1289
13761TIP3    H262699   5.926   0.173  15.139  0.2062  0.7511  0.7494
13762TIP3   OH262700   4.638   0.696  17.148 -0.0937 -0.4151 -0.5862
13762TIP3    H162701   4.642   0.771  17.207 -0.1933 -2.3546  2.0431
13762TIP3    H262702   4.726   0.659  17.149 -0.2470 -0.8245 -1.1808
13763TIP3   OH262703   2.769   0.136   2.328 -0.3083  0.2092 -0.1038
13763TIP3    H162704   2.848   0.130   2.381 -0.4174 -0.5089 -0.0187
13763TIP3    H262705   2.795   0.187   2.251  0.4358 -0.6374 -0.4309
13764TIP3   OH262706   6.472   5.471   5.791 -0.2205  0.3671 -0.0652
13764TIP3    H162707   6.513   5.503   5.872 -0.4863 -0.5595  0.4478
13764TIP3    H262708   6.466   5.548   5.735  0.9264  0.8170  0.3967
13765TIP3   OH262709   5.592   1.713   0.741 -0.2669 -0.2754  0.0829
13765TIP3    H162710   5.546   1.788   0.779  0.5184 -0.8423  2.3422
13765TIP3    H262711   5.648   1.751   0.673 -2.4203  0.6724 -1.2587
13766TIP3   OH262712   5.952   2.524  15.516  0.4840  0.2727 -0.1914
13766TIP3    H162713   6.032   2.560  15.554  0.8656 -0.3681 -0.3805
13766TIP3    H262714   5.969   2.430  15.507  0.6137  0.4403 -2.3924
13767TIP3   OH262715   2.385   1.447   0.908  0.0636 -0.1901 -0.1551
13767TIP3    H162716   2.480   1.453   0.907  0.2727 -2.5768  0.4435
13767TIP3    H262717   2.365   1.380   0.973 -2.1304  1.3100  0.8529
13768TIP3   OH262718   2.325   3.071  12.884 -0.8379 -0.8439 -0.1842
13768TIP3    H162719   2.360   3.155  12.914  0.9797 -1.7177  0.2650
13768TIP3    H262720   2.339   3.071  12.790 -2.2274 -0.0544 -0.4205
13769TIP3   OH262721   1.900   6.308  14.023 -0.7242  0.2001  0.4752
13769TIP3    H162722   1.970   6.370  14.047 -0.0226 -0.3140 -0.1911
13769TIP3    H262723   1.855   6.351  13.951 -0.7996  0.3201  0.5921
13770TIP3   OH262724   6.106   6.137   5.438 -0.0603 -0.0030  0.2372
13770TIP3    H162725   6.116   6.132   5.343 -1.4120  0.1292  0.0644
13770TIP3    H262726   6.013   6.157   5.451 -0.0610 -0.7798  1.6032
13771TIP3   OH262727   0.492   4.732  13.882  0.2268  0.1330 -0.2718
13771TIP3    H162728   0.512   4.692  13.797  1.3675 -1.0188  0.4952
13771TIP3    H262729   0.502   4.660  13.945 -1.7816  0.6723  0.7287
13772TIP3   OH262730   6.502   3.319  12.835  0.1340  0.1341  0.4575
13772TIP3    H162731   6.543   3.392  12.789  1.0098  0.1865  1.2680
13772TIP3    H262732   6.411   3.345  12.847  0.1208  0.5044 -0.4373
13773TIP3   OH262733   1.607   1.910   5.768 -0.1358 -0.2384  0.0732
13773TIP3    H162734   1.556   1.932   5.846 -1.0476 -0.5094 -0.4390
13773TIP3    H262735   1.627   1.995   5.728  0.8173 -0.0591  0.8836
13774TIP3   OH262736   5.022   1.973  13.855  0.1855  0.2358 -0.5172
13774TIP3    H162737   5.020   1.949  13.762  0.5658 -1.3391 -0.1549
13774TIP3    H262738   5.100   1.930  13.888 -0.6084 -0.2501  0.7880
13775TIP3   OH262739   2.255   0.966   2.870 -0.3680 -0.4784 -0.1033
13775TIP3    H162740   2.185   0.976   2.935 -0.1653  2.5805 -0.1971
13775TIP3    H262741   2.291   0.879   2.887 -1.2345 -0.3772  2.9459
13776TIP3   OH262742   3.633   3.683  13.713  0.0574  0.1398 -0.1461
13776TIP3    H162743   3.710   3.706  13.660  0.8323  0.5575  1.1264
13776TIP3    H262744   3.654   3.598  13.750 -0.5928 -0.2650 -0.6711
13777TIP3   OH262745   5.298   2.305  15.663  0.2491 -0.6119 -0.0947
13777TIP3    H162746   5.316   2.337  15.574 -0.5931  0.0738 -0.0287
13777TIP3    H262747   5.385   2.299  15.703  0.6225 -0.7284 -0.8926
13778TIP3   OH262748   2.685   2.452  16.679  0.0669 -0.0413  0.1672
13778TIP3    H162749   2.608   2.447  16.621 -0.0519 -1.4672  0.4327
13778TIP3    H262750   2.720   2.363  16.681  0.7465  0.2321  1.3880
13779TIP3   OH262751   3.190   6.032   2.288 -0.0998 -0.3438 -0.3345
13779TIP3    H162752   3.245   5.954   2.299 -0.2223 -0.2687  0.9635
13779TIP3    H262753   3.242   6.103   2.326  0.1681  0.3065 -1.8227
13780TIP3   OH262754   4.914   4.708  15.480 -0.1329 -0.0751 -0.2585
13780TIP3    H162755   4.914   4.751  15.394  0.9568  0.6062  0.0661
13780TIP3    H262756   4.845   4.752  15.529 -1.0140 -0.7180 -0.8859
13781TIP3   OH262757   2.673   2.470   3.353 -0.4181  0.2633  0.0492
13781TIP3    H162758   2.680   2.499   3.444  0.4205  0.2311  0.0054
13781TIP3    H262759   2.656   2.551   3.304 -1.7637  0.1620  0.3203
13782TIP3   OH262760   3.330   0.790  12.610 -0.1451  0.3806 -0.2785
13782TIP3    H162761   3.319   0.698  12.636 -1.3624 -0.0223 -2.0160
13782TIP3    H262762   3.272   0.800  12.535  1.5054  2.0213 -1.4191
13783TIP3   OH262763   0.170   2.504  11.792 -0.1348  0.0097  0.5432
13783TIP3    H162764   0.140   2.499  11.883 -1.8899  0.7561  0.0350
13783TIP3    H262765   0.134   2.585  11.759  0.1432 -0.4502 -0.9559
13784TIP3   OH262766   6.696   3.210   3.835 -0.3115  0.4498 -0.2542
13784TIP3    H162767   6.700   3.251   3.922  1.1248 -1.0074  0.4205
13784TIP3    H262768   6.787   3.196   3.810 -0.7102  0.6350 -1.9223
13785TIP3   OH262769   2.962   1.567  14.536  0.4101  0.1129  0.4797
13785TIP3    H162770   2.870   1.593  14.541  0.3835  0.2047 -0.3089
13785TIP3    H262771   3.007   1.646  14.504  0.5451 -0.3532 -0.5127
13786TIP3   OH262772   0.076   4.398   0.119 -0.4324 -0.3957 -0.0269
13786TIP3    H162773   0.018   4.468   0.149  1.0611 -0.0614  2.3298
13786TIP3    H262774   0.147   4.396   0.183 -0.5496 -4.3213  0.2199
13787TIP3   OH262775   6.639   6.594   5.623  0.6061  0.5589 -0.4028
13787TIP3    H162776   6.673   6.682   5.606 -1.6371  1.4436 -0.6521
13787TIP3    H262777   6.622   6.558   5.536  0.2201  0.4258 -0.2726
13788TIP3   OH262778   0.211   2.613   0.451 -0.1211 -0.2680 -0.1229
13788TIP3    H162779   0.230   2.693   0.402 -0.8375 -0.1129 -0.1614
13788TIP3    H262780   0.116   2.617   0.467  0.0768 -0.3528  1.1876
13789TIP3   OH262781   5.043   5.089   1.106  0.3106 -0.3665 -0.3849
13789TIP3    H162782   4.988   5.155   1.147  0.9039 -0.3167  0.3433
13789TIP3    H262783   4.986   5.046   1.042  0.2562  1.7577 -1.8904
13790TIP3   OH262784   5.751   1.519   5.010  0.1380  0.0322  0.3036
13790TIP3    H162785   5.798   1.487   4.933 -0.7064 -0.2970 -0.0872
13790TIP3    H262786   5.771   1.456   5.079 -0.7251 -0.8148 -0.1975
13791TIP3   OH262787   0.395   2.041   2.721  0.0554 -0.4737 -0.4071
13791TIP3    H162788   0.417   1.954   2.756  0.5296 -0.1043  0.2428
13791TIP3    H262789   0.355   2.086   2.795  1.6085  0.5290 -0.1351
13792TIP3   OH262790   5.520   2.330   1.237  0.2238 -0.7990  0.0705
13792TIP3    H162791   5.441   2.364   1.194  2.4554  0.8816 -3.0865
13792TIP3    H262792   5.538   2.392   1.307  1.2223  1.5995 -2.1763
13793TIP3   OH262793   2.891   4.430   3.051  0.0191 -0.5389  0.2146
13793TIP3    H162794   2.814   4.402   3.100  0.7713 -1.0259  1.1458
13793TIP3    H262795   2.965   4.401   3.104  0.8973 -2.0267 -1.6735
13794TIP3   OH262796   4.806   1.072   5.165 -0.0928  0.5367  0.2796
13794TIP3    H162797   4.895   1.065   5.200  0.8634 -0.6388 -2.2059
13794TIP3    H262798   4.760   1.126   5.230  2.5386  1.6633  1.3807
13795TIP3   OH262799   2.001   5.858  15.008  0.1192  0.3149 -0.2365
13795TIP3    H162800   2.090   5.822  15.012 -0.1220 -0.2699 -0.0418
13795TIP3    H262801   2.014   5.953  15.000  0.7662  0.1676 -1.0468
13796TIP3   OH262802   5.769   5.131  14.292  0.4598 -0.0544  0.0785
13796TIP3    H162803   5.765   5.049  14.341  0.4535 -0.8865 -1.2518
13796TIP3    H262804   5.842   5.118  14.231  1.0067  1.2710  0.4159
13797TIP3   OH262805   3.812   2.888  12.287 -0.5262 -0.3633 -0.2471
13797TIP3    H162806   3.906   2.898  12.269 -0.6412  0.9748 -0.2405
13797TIP3    H262807   3.806   2.809  12.341  0.2554 -2.2004 -2.7045
13798TIP3   OH262808   4.152   4.958  14.612 -0.2309  0.3008 -0.5419
13798TIP3    H162809   4.193   4.965  14.526 -1.6343  1.0408 -1.1768
13798TIP3    H262810   4.134   4.864  14.623 -2.2513  0.4406 -2.1565
13799TIP3   OH262811   2.685   5.038  16.388 -0.0034 -0.4414  0.7003
13799TIP3    H162812   2.765   5.079  16.356 -0.5907 -0.3318 -0.7116
13799TIP3    H262813   2.711   4.992  16.467  1.4007 -0.2148  0.3890
13800TIP3   OH262814   2.013   5.197   2.564 -0.2022 -0.0241 -0.1442
13800TIP3    H162815   2.082   5.178   2.500  1.2810  0.1560  1.3257
13800TIP3    H262816   1.998   5.291   2.556  1.1698  0.3070  0.8584
13801TIP3   OH262817   0.403   0.169   0.497 -0.5962  0.4710 -0.0233
13801TIP3    H162818   0.377   0.131   0.413  0.7345 -1.2811  0.2965
13801TIP3    H262819   0.497   0.152   0.503 -0.3525  1.9998  1.1149
13802TIP3   OH262820   5.302   6.642  15.160 -1.1224 -0.3309  0.2516
13802TIP3    H162821   5.272   6.551  15.167 -0.6783 -0.4583  0.5605
13802TIP3    H262822   5.253   6.689  15.227 -1.1501 -0.3968  0.2770
13803TIP3   OH262823   5.443   0.860   2.132 -0.2569  0.2155 -0.1571
13803TIP3    H162824   5.495   0.863   2.052  0.8474 -0.6376  0.4887
13803TIP3    H262825   5.475   0.782   2.178 -0.6263  0.8752  1.2683
13804TIP3   OH262826   1.694   5.802  13.000  0.1439 -0.2357 -0.4426
13804TIP3    H162827   1.742   5.751  12.934 -1.0318 -2.0655  0.0183
13804TIP3    H262828   1.698   5.747  13.079  0.2235  1.2035  0.5839
13805TIP3   OH262829   5.658   3.951   0.188 -0.5068 -0.7771 -0.1639
13805TIP3    H162830   5.606   4.022   0.224 -1.4018 -0.7169 -1.5068
13805TIP3    H262831   5.725   3.994   0.134 -0.1720 -0.9141  0.1367
13806TIP3   OH262832   2.166   1.383   6.414  1.1166 -0.4123 -0.9935
13806TIP3    H162833   2.129   1.339   6.491 -1.0622  1.6464 -0.7336
13806TIP3    H262834   2.243   1.429   6.447 -0.8509  2.0097  0.5430
13807TIP3   OH262835   6.118   3.111  13.924 -0.4103 -0.2498  0.1405
13807TIP3    H162836   6.067   3.146  13.851 -1.2625  1.5152  1.5052
13807TIP3    H262837   6.136   3.021  13.899 -2.6100 -0.3870 -1.2496
13808TIP3   OH262838   1.733   1.637   3.546  0.8460 -0.3413  0.0819
13808TIP3    H162839   1.683   1.719   3.543  1.7453  0.2990  1.4536
13808TIP3    H262840   1.698   1.585   3.473  0.6391  1.4892 -1.2092
13809TIP3   OH262841   4.264   4.712  11.870  0.4957 -0.2225 -0.4208
13809TIP3    H162842   4.251   4.754  11.955 -2.7288 -0.3261 -0.7473
13809TIP3    H262843   4.291   4.784  11.812  0.5873  0.2823  0.2410
13810TIP3   OH262844   6.469   2.447   0.583  0.4991  0.5254 -0.4176
13810TIP3    H162845   6.380   2.448   0.546  0.8577  1.3170 -1.3243
13810TIP3    H262846   6.463   2.502   0.661 -0.0622 -0.4078  0.2244
13811TIP3   OH262847   5.070   2.571  15.323 -0.0027 -0.2989 -0.3258
13811TIP3    H162848   5.032   2.602  15.240  1.4104 -1.0304 -1.2986
13811TIP3    H262849   5.164   2.573  15.308  0.2896 -0.3525  1.3300
13812TIP3   OH262850   5.363   2.105  12.656 -0.4143 -0.5716  0.2812
13812TIP3    H162851   5.352   2.030  12.715  1.8670 -0.5498  0.8323
13812TIP3    H262852   5.457   2.111  12.641 -0.6100  1.5878 -0.5652
13813TIP3   OH262853   3.559   3.502  11.287  0.1101  0.0007 -0.2344
13813TIP3    H162854   3.629   3.543  11.236  1.0169  0.0931  1.0317
13813TIP3    H262855   3.503   3.459  11.222  1.4466 -0.2348 -1.2676
13814TIP3   OH262856   3.733   6.300  14.476 -0.6422 -0.2926 -0.2367
13814TIP3    H162857   3.639   6.310  14.495 -0.7037  0.2866 -0.8338
13814TIP3    H262858   3.749   6.356  14.400  0.3577  0.2278  0.3350
13815TIP3   OH262859   2.575   6.077   6.323  0.3440 -0.0543  0.2561
13815TIP3    H162860   2.582   5.990   6.363 -1.0877 -0.4275 -0.2296
13815TIP3    H262861   2.529   6.130   6.388 -0.3762 -0.1685 -0.1463
13816TIP3   OH262862   0.577   3.973   0.818 -0.1485 -0.4384  0.2891
13816TIP3    H162863   0.553   3.952   0.908 -0.2211  0.1520  0.4106
13816TIP3    H262864   0.554   4.066   0.808  1.0334 -0.1656  0.0510
13817TIP3   OH262865   5.133   3.810   0.857 -0.6129 -0.7651 -0.5132
13817TIP3    H162866   5.063   3.748   0.837 -1.3302  0.3717 -1.6681
13817TIP3    H262867   5.091   3.896   0.855  0.5679 -0.1514  0.0182
13818TIP3   OH262868   5.291   2.139   4.186 -0.0496 -0.0583 -0.1684
13818TIP3    H162869   5.294   2.046   4.163  0.9251 -0.1652  0.3430
13818TIP3    H262870   5.227   2.144   4.257  2.2338 -0.9102  2.1124
13819TIP3   OH262871   0.662   6.511  10.361  0.2582  0.8169 -0.4942
13819TIP3    H162872   0.647   6.598  10.399  0.6318  0.5451  0.2940
13819TIP3    H262873   0.701   6.460  10.432 -0.4416 -0.1607 -0.7936
13820TIP3   OH262874   5.897   1.414  16.313 -0.5005 -0.1023 -0.7044
13820TIP3    H162875   5.826   1.370  16.360 -1.4549 -0.2039 -2.1797
13820TIP3    H262876   5.910   1.495  16.361 -0.8319 -0.5966  0.2495
13821TIP3   OH262877   3.482   6.021   3.600 -0.0367  0.0656  0.3264
13821TIP3    H162878   3.437   6.097   3.563  0.2686  0.6267  1.0816
13821TIP3    H262879   3.464   5.950   3.539 -0.2120  0.7822 -0.4670
13822TIP3   OH262880   5.502   3.802  15.025 -0.0899 -0.0694 -0.1979
13822TIP3    H162881   5.555   3.798  15.104  0.8229  3.3914 -0.4772
13822TIP3    H262882   5.433   3.865  15.044 -1.7956 -1.5382 -1.1756
13823TIP3   OH262883   3.975   4.148   2.105  0.0114 -0.0287  0.1347
13823TIP3    H162884   3.916   4.177   2.036 -2.1119  1.2807  2.3542
13823TIP3    H262885   3.918   4.133   2.180  2.2499 -1.1237  1.7035
13824TIP3   OH262886   2.980   3.885   6.134  0.0199 -0.3019  0.0509
13824TIP3    H162887   2.889   3.911   6.120  0.7984  1.8670 -1.5197
13824TIP3    H262888   3.001   3.828   6.061  0.6457  1.4134 -1.1761
13825TIP3   OH262889   6.677   5.095   4.757 -0.1395 -0.2142 -0.5788
13825TIP3    H162890   6.695   5.157   4.828 -3.0250 -0.7998  0.8179
13825TIP3    H262891   6.736   5.022   4.773  0.2261  0.2842  0.3948
13826TIP3   OH262892   3.653   6.552  14.927 -0.0468  0.1196 -0.1291
13826TIP3    H162893   3.681   6.509  15.008 -0.5363  2.1179  1.1665
13826TIP3    H262894   3.634   6.642  14.952  1.4136  1.2970 -2.8153
13827TIP3   OH262895   4.137   0.073   5.773 -0.6150  0.0546 -0.0867
13827TIP3    H162896   4.043   0.084   5.756 -0.9089 -0.6520  0.9566
13827TIP3    H262897   4.148   0.099   5.864 -0.5415 -3.4640  1.0463
13828TIP3   OH262898   1.770   0.949   0.408  0.3110  0.9657 -0.1545
13828TIP3    H162899   1.700   0.916   0.464  0.8317  0.7709  0.3883
13828TIP3    H262900   1.737   1.033   0.375 -0.8102  0.1774 -1.1376
13829TIP3   OH262901   5.062   5.295  13.274  0.0498 -0.2269 -0.0759
13829TIP3    H162902   4.984   5.264  13.321  0.7747 -1.6796  0.2354
13829TIP3    H262903   5.135   5.267  13.329  0.8093  1.9661  0.1303
13830TIP3   OH262904   5.279   0.988   3.296  0.0257  0.1137 -0.3292
13830TIP3    H162905   5.290   1.065   3.351 -0.1465 -0.7525  0.9413
13830TIP3    H262906   5.273   1.023   3.207  0.3495  1.5278  0.1856
13831TIP3   OH262907   3.368   3.021   0.831 -0.2650  0.4864  0.0796
13831TIP3    H162908   3.284   2.980   0.852 -0.0021 -0.0186  0.1505
13831TIP3    H262909   3.351   3.070   0.751 -0.4880 -0.0792 -0.2251
13832TIP3   OH262910   5.044   0.752  12.888  0.1524 -0.5026  0.1072
13832TIP3    H162911   5.010   0.770  12.800  0.3771 -0.6637 -0.0155
13832TIP3    H262912   5.113   0.687  12.873  2.0882  1.4322  0.0544
13833TIP3   OH262913   3.755   4.996   0.041  0.2931 -0.1000  0.2714
13833TIP3    H162914   3.776   5.022   0.131  0.5372 -2.6045  1.0113
13833TIP3    H262915   3.816   5.046  -0.013 -0.6087  2.3258  1.3423
13834TIP3   OH262916   2.595   4.766   0.110  0.1469 -0.5036 -0.6309
13834TIP3    H162917   2.599   4.810   0.195  1.4775 -0.0073 -0.9169
13834TIP3    H262918   2.515   4.798   0.070 -1.6061 -2.2842  1.2146
13835TIP3   OH262919   6.566   4.310   0.671 -0.5215  0.0473 -0.8072
13835TIP3    H162920   6.580   4.385   0.730 -1.0939 -1.0329  0.7577
13835TIP3    H262921   6.638   4.316   0.608  0.1455  1.2347  0.0175
13836TIP3   OH262922   4.567   5.593  16.619 -0.4492  0.3818 -0.0931
13836TIP3    H162923   4.631   5.528  16.591 -1.4755  0.0558 -1.8700
13836TIP3    H262924   4.524   5.554  16.695 -1.2594 -1.2298 -1.3080
13837TIP3   OH262925   1.986   3.117  11.929  0.1597  0.6182  0.3692
13837TIP3    H162926   1.987   3.205  11.966  1.0176  0.6743  0.2383
13837TIP3    H262927   2.074   3.106  11.892  0.4907 -0.7612  1.5084
13838TIP3   OH262928   4.481   4.917  12.752  0.1970 -0.2589  0.4258
13838TIP3    H162929   4.413   4.903  12.818 -1.2693 -0.1965 -1.0143
13838TIP3    H262930   4.445   4.880  12.671  1.7672  0.0344 -0.4590
13839TIP3   OH262931   1.261   1.259   0.416  0.0358 -0.3822  0.2321
13839TIP3    H162932   1.281   1.191   0.351  0.0307 -0.2991  0.1442
13839TIP3    H262933   1.201   1.216   0.477 -0.9614 -0.0740 -0.5209
13840TIP3   OH262934   5.947   0.310  12.308 -0.5703 -0.5318  0.1292
13840TIP3    H162935   5.997   0.299  12.390 -0.3538  0.8315  0.2013
13840TIP3    H262936   5.856   0.305  12.335 -0.4983 -0.3499  0.4138
13841TIP3   OH262937   2.463   2.256   3.794 -0.5162  0.0503 -0.2926
13841TIP3    H162938   2.468   2.188   3.726 -0.4362  1.3035 -1.5657
13841TIP3    H262939   2.484   2.337   3.749  0.8180  0.7682  1.5019
13842TIP3   OH262940   2.250   2.428  16.340  0.2809 -0.3239 -0.4192
13842TIP3    H162941   2.181   2.424  16.407  0.9138 -0.2212  0.2458
13842TIP3    H262942   2.205   2.461  16.262 -0.5883 -0.9958 -0.2117
13843TIP3   OH262943   5.017   2.366  12.515  0.2626  0.1095  0.4392
13843TIP3    H162944   5.050   2.317  12.439  1.4152  0.1672  0.8764
13843TIP3    H262945   5.066   2.449  12.513 -0.5506  0.6045  0.5872
13844TIP3   OH262946   1.960   2.187  12.717 -0.1283 -0.1967  0.6447
13844TIP3    H162947   1.943   2.281  12.715  1.0741  0.0784 -2.5173
13844TIP3    H262948   2.056   2.180  12.725 -0.0366 -1.0469 -0.7806
13845TIP3   OH262949   4.371   2.399   0.558 -0.2420  0.6357  0.0982
13845TIP3    H162950   4.354   2.474   0.614 -0.1938 -0.3397  1.4589
13845TIP3    H262951   4.371   2.324   0.617 -1.1421 -0.5565 -1.3346
13846TIP3   OH262952   3.881   3.965   4.271 -0.3244 -0.2334 -0.1118
13846TIP3    H162953   3.881   3.992   4.179  2.0505 -0.2288 -0.1532
13846TIP3    H262954   3.861   3.872   4.269  1.6647 -0.6894 -0.8471
13847TIP3   OH262955   1.005   6.455   6.332  0.9753 -0.5761  0.4624
13847TIP3    H162956   0.959   6.455   6.416  1.9325 -2.6064  1.0492
13847TIP3    H262957   1.020   6.362   6.313  2.7980 -0.0744 -0.8180
13848TIP3   OH262958   0.767   4.903  14.949 -0.7719  0.9344  0.5682
13848TIP3    H162959   0.698   4.846  14.915  1.3416 -0.3367 -1.9761
13848TIP3    H262960   0.799   4.857  15.027 -0.0059 -0.7816 -0.6821
13849TIP3   OH262961   2.089   2.740   2.424 -0.4766  0.0388 -0.1653
13849TIP3    H162962   2.150   2.740   2.350 -1.5202  1.1299 -1.0549
13849TIP3    H262963   2.050   2.827   2.424 -1.6909 -0.4698  0.6841
13850TIP3   OH262964   4.783   0.001  14.172 -0.3349 -0.2080 -0.4234
13850TIP3    H162965   4.787   0.027  14.080  2.8007  2.0288  0.1777
13850TIP3    H262966   4.711   0.053  14.208  0.1625  0.9725 -1.0909
13851TIP3   OH262967   2.847   4.278  13.295 -0.4358  0.0844 -0.0136
13851TIP3    H162968   2.901   4.357  13.290 -0.8543  0.3034 -1.1497
13851TIP3    H262969   2.850   4.241  13.207 -0.3480 -1.1135  0.4719
13852TIP3   OH262970   1.745   1.862  13.897 -0.2002  0.0279  0.2309
13852TIP3    H162971   1.710   1.871  13.986  0.0279 -0.0830  0.3320
13852TIP3    H262972   1.807   1.934  13.888  0.1020 -0.2166  0.3180
13853TIP3   OH262973   4.951   6.291   2.737 -0.1829  0.6353  0.1596
13853TIP3    H162974   5.005   6.219   2.768 -3.3032 -0.6258  3.3505
13853TIP3    H262975   5.007   6.369   2.744  2.4153 -1.0069 -0.8278
13854TIP3   OH262976   5.270   1.904   2.708 -0.1139  0.1378 -0.0506
13854TIP3    H162977   5.202   1.888   2.774 -1.0554  1.8537 -0.5498
13854TIP3    H262978   5.221   1.920   2.627  0.7496  2.7899 -0.1415
13855TIP3   OH262979   4.732   6.423  13.939 -0.5757  0.3066 -0.0252
13855TIP3    H162980   4.769   6.394  14.023  1.3701 -1.4729 -1.4056
13855TIP3    H262981   4.637   6.420  13.953 -0.3187 -0.0201  2.0593
13856TIP3   OH262982   3.868   1.656   4.537  0.6602 -0.1590 -0.0800
13856TIP3    H162983   3.934   1.723   4.519 -0.0633  0.4823 -0.4330
13856TIP3    H262984   3.855   1.612   4.453 -0.0956  0.4120 -0.2756
13857TIP3   OH262985   6.292   3.185  12.454  0.4406  0.1050  0.1969
13857TIP3    H162986   6.357   3.192  12.384  1.0352  1.1546  0.8331
13857TIP3    H262987   6.329   3.123  12.516 -1.4175 -3.2582 -1.7654
13858TIP3   OH262988   1.895   1.832   2.226 -0.1773 -0.5883  0.1905
13858TIP3    H162989   1.860   1.804   2.141  0.1019 -1.3631  0.3209
13858TIP3    H262990   1.990   1.829   2.214 -0.1296  0.2896  0.2277
13859TIP3   OH262991   1.353   6.034  16.012  0.1254 -0.5538  0.4986
13859TIP3    H162992   1.302   6.105  15.973  0.0877 -0.4317  0.7658
13859TIP3    H262993   1.292   5.993  16.074  0.2138 -0.6893  0.4951
13860TIP3   OH262994   5.436   3.058   4.665  0.3487 -0.2389  0.7122
13860TIP3    H162995   5.495   2.986   4.686  1.0284 -0.0013 -0.2995
13860TIP3    H262996   5.405   3.089   4.750  2.3076  0.1355  1.3465
13861TIP3   OH262997   0.349   2.555  16.916  0.5904  0.7594 -0.2566
13861TIP3    H162998   0.292   2.611  16.969 -0.1736 -1.1120  1.0641
13861TIP3    H262999   0.292   2.520  16.848 -0.1935 -1.6137  1.4385
13862TIP3   OH263000   0.993   5.303  14.638 -0.3935  0.4039 -0.1779
13862TIP3    H163001   1.017   5.213  14.659  2.6297  1.2826  0.6414
13862TIP3    H263002   0.916   5.320  14.692  0.4173 -0.9886  1.5405
13863TIP3   OH263003   0.642   2.419  17.338  0.4426 -0.3475 -0.0498
13863TIP3    H163004   0.561   2.369  17.325 -1.1482  2.1703 -0.5663
13863TIP3    H263005   0.635   2.454  17.427  1.9809 -1.7043  0.6562
13864TIP3   OH263006   1.203   4.920   3.582 -0.1977  0.3486  0.2885
13864TIP3    H163007   1.171   4.835   3.613  1.0263 -0.5713 -0.8564
13864TIP3    H263008   1.283   4.936   3.632 -0.4431  0.8627  0.5267
13865TIP3   OH263009   3.091   3.045   5.698 -0.1378  0.5018 -0.5113
13865TIP3    H163010   3.137   2.999   5.628 -1.6414 -0.9436 -0.6237
13865TIP3    H263011   3.122   3.135   5.693  2.6545 -0.3643 -0.5429
13866TIP3   OH263012   3.213   1.499   3.497 -0.8592 -0.2134 -0.0089
13866TIP3    H163013   3.204   1.564   3.566 -0.8963 -0.8593  0.6075
13866TIP3    H263014   3.277   1.436   3.530 -1.1836 -0.7566 -0.3797
13867TIP3   OH263015   1.125   2.969  16.404 -0.2553 -0.0886 -0.1400
13867TIP3    H163016   1.093   2.887  16.365  0.6970 -0.8776  0.7012
13867TIP3    H263017   1.220   2.960  16.403 -0.1775  0.4803  1.0686
13868TIP3   OH263018   5.982   1.071   5.798  0.0306  1.2491  0.3486
13868TIP3    H163019   6.040   0.996   5.810 -0.3812  1.0420  1.1062
13868TIP3    H263020   5.938   1.055   5.715  1.3348  1.5992 -0.4374
13869TIP3   OH263021   5.707   2.590  17.405 -0.3318  0.0892  0.0870
13869TIP3    H163022   5.803   2.581  17.407 -0.2495 -0.9216 -2.6746
13869TIP3    H263023   5.679   2.521  17.344 -3.1603 -1.6134  3.0418
13870TIP3   OH263024   3.748   3.616  15.171 -0.0363 -0.4821 -0.3172
13870TIP3    H163025   3.838   3.628  15.142 -0.3451  1.1576 -0.6635
13870TIP3    H263026   3.695   3.658  15.104 -0.9334  0.4938  0.9591
13871TIP3   OH263027   3.726   5.483  16.712 -0.7800  0.6318 -0.0857
13871TIP3    H163028   3.767   5.548  16.654  1.7265  1.0467  2.0006
13871TIP3    H263029   3.686   5.535  16.781  0.0037  0.0355  0.8328
13872TIP3   OH263030   4.318   5.414  16.445  0.6108 -0.3387 -0.4458
13872TIP3    H163031   4.346   5.501  16.415  0.9526  0.1367  1.1146
13872TIP3    H263032   4.355   5.353  16.382  2.5849  0.4925 -0.1765
13873TIP3   OH263033   3.472   1.101  15.272  0.3652 -0.0119 -0.2528
13873TIP3    H163034   3.499   1.076  15.183  1.7721 -0.7601  0.3513
13873TIP3    H263035   3.462   1.018  15.318 -3.4538  0.1427 -0.4561
13874TIP3   OH263036   0.705   6.672   6.163  0.4703  0.0619  0.0660
13874TIP3    H163037   0.778   6.730   6.183  1.6046 -1.5750  0.8948
13874TIP3    H263038   0.714   6.653   6.070 -0.3650  1.7532 -0.4025
13875TIP3   OH263039   1.825   2.234   3.579  0.0868 -0.4950  0.5746
13875TIP3    H163040   1.865   2.286   3.509  0.5107 -0.7727  0.6062
13875TIP3    H263041   1.843   2.143   3.554  0.2430 -0.5951  1.0440
13876TIP3   OH263042   0.961   2.300   2.754  0.1646 -0.0247  0.2621
13876TIP3    H163043   0.962   2.337   2.666 -0.1148 -0.2723  0.1527
13876TIP3    H263044   1.053   2.289   2.777  0.2668  0.9985  0.4098
13877TIP3   OH263045   3.323   4.166  13.414  0.2174  0.2520 -0.2367
13877TIP3    H163046   3.235   4.183  13.379  0.0694  0.0358  0.0247
13877TIP3    H263047   3.307   4.133  13.503  0.5610  0.1616 -0.2087
13878TIP3   OH263048   1.065   3.787   6.221 -0.1456  0.6993  0.3723
13878TIP3    H163049   1.057   3.807   6.314 -0.4515  0.3248  0.4270
13878TIP3    H263050   1.089   3.695   6.219 -2.0894  0.1721  0.0263
13879TIP3   OH263051   1.291   3.452   3.059 -0.6524  0.3487  0.4683
13879TIP3    H163052   1.365   3.416   3.010 -2.1049 -1.5394 -0.4490
13879TIP3    H263053   1.331   3.511   3.123  1.7367 -1.6615  0.9471
13880TIP3   OH263054   5.583   0.085   5.595 -0.6011  0.0620 -0.2737
13880TIP3    H163055   5.558   0.091   5.687 -0.2074  1.1261 -0.2215
13880TIP3    H263056   5.516   0.135   5.549 -1.1442 -0.9804 -0.6500
13881TIP3   OH263057   2.606   4.393  14.430 -0.1801 -0.0651 -0.5690
13881TIP3    H163058   2.527   4.344  14.410 -1.0873  1.4319 -0.7969
13881TIP3    H263059   2.671   4.359  14.368 -0.3544 -1.9048  0.1833
13882TIP3   OH263060   5.654   3.437   0.586 -0.3335  0.1722 -0.2074
13882TIP3    H163061   5.562   3.463   0.591 -0.5691 -0.8856  2.3242
13882TIP3    H263062   5.701   3.514   0.618 -0.4492  0.1961 -0.0911
13883TIP3   OH263063   3.616   6.654   1.897  0.0931 -0.5579 -0.3320
13883TIP3    H163064   3.563   6.728   1.869  1.9238  1.3062  0.7558
13883TIP3    H263065   3.628   6.668   1.991  1.3683 -1.6491 -0.2976
13884TIP3   OH263066   3.417   0.249  14.995  0.2396  0.5456 -0.8874
13884TIP3    H163067   3.333   0.226  15.036  1.8550 -2.7640  0.9998
13884TIP3    H263068   3.435   0.338  15.026 -1.2037  0.2077  1.1582
13885TIP3   OH263069   4.397   2.997  13.067 -0.8418 -0.3943 -0.4414
13885TIP3    H163070   4.341   3.072  13.088 -0.9078 -0.3770 -0.6721
13885TIP3    H263071   4.464   2.997  13.135 -2.1971 -1.5326  0.9461
13886TIP3   OH263072   3.831   3.617   2.428 -0.2685 -0.5133 -0.0041
13886TIP3    H163073   3.916   3.647   2.396  0.4818 -3.5022 -1.1139
13886TIP3    H263074   3.828   3.524   2.407 -2.5289 -1.2495  2.8302
13887TIP3   OH263075   2.383   0.745  17.258 -0.9527 -0.1478  1.0310
13887TIP3    H163076   2.367   0.680  17.326 -2.8868 -0.6459  0.1668
13887TIP3    H263077   2.340   0.710  17.180  0.7770  0.6253 -0.3606
13888TIP3   OH263078   5.448   2.836   0.234 -0.3420 -0.2836  0.3807
13888TIP3    H163079   5.407   2.762   0.189  0.1950  0.3641 -1.2268
13888TIP3    H263080   5.542   2.817   0.230 -0.1593  0.7398 -0.5359
13889TIP3   OH263081   1.837   0.245  14.024 -0.4773 -0.4782  0.0405
13889TIP3    H163082   1.795   0.266  14.107 -0.2978 -0.6442  0.1774
13889TIP3    H263083   1.854   0.150  14.030  0.8389 -0.2462  0.4305
13890TIP3   OH263084   0.618   2.307   1.827  0.6557  0.4022 -0.0361
13890TIP3    H163085   0.580   2.220   1.813  0.5344  0.2710  1.0161
13890TIP3    H263086   0.545   2.361   1.855  0.7168  0.8728 -0.7675
13891TIP3   OH263087   5.750   2.810  15.158 -0.0705  0.5982 -0.2070
13891TIP3    H163088   5.821   2.774  15.211  0.2210  3.3012  1.4635
13891TIP3    H263089   5.670   2.780  15.201  0.0244 -1.0243 -1.0744
13892TIP3   OH263090   2.581   2.008   1.304  0.5472  0.4308  0.0470
13892TIP3    H163091   2.636   2.026   1.228 -1.2168  1.6831 -1.0188
13892TIP3    H263092   2.531   2.089   1.317 -1.0968 -0.6662  0.8818
13893TIP3   OH263093   1.738   6.101   2.388  0.5460  0.2198 -0.1804
13893TIP3    H163094   1.795   6.131   2.318 -2.1383  1.0243 -2.1999
13893TIP3    H263095   1.650   6.101   2.349 -0.9755 -0.2138  2.9235
13894TIP3   OH263096   5.411   5.161  16.910 -0.1208  0.6679  0.3010
13894TIP3    H163097   5.317   5.149  16.916 -0.1002 -0.7081 -1.2809
13894TIP3    H263098   5.425   5.203  16.825  0.8133 -2.0109 -0.9768
13895TIP3   OH263099   3.236   6.447  15.386  0.0419 -0.5727 -0.3594
13895TIP3    H163100   3.254   6.427  15.294  0.7727 -0.0088 -0.3464
13895TIP3    H263101   3.191   6.369  15.419 -1.9367 -0.0354 -1.6545
13896TIP3   OH263102   0.652   1.874  12.770 -0.4859 -0.2377 -0.5213
13896TIP3    H163103   0.667   1.968  12.778 -1.7502 -0.0438 -0.2656
13896TIP3    H263104   0.644   1.858  12.676 -0.7326 -0.0156 -0.5362
13897TIP3   OH263105   0.899   6.544   1.506 -1.0647 -0.5544 -0.3295
13897TIP3    H163106   0.945   6.466   1.538 -2.7642 -1.2542  0.4934
13897TIP3    H263107   0.828   6.510   1.451 -2.0947  0.3739  0.3787
13898TIP3   OH263108   2.971   6.402   5.720 -1.0389  0.1063 -0.4255
13898TIP3    H163109   3.038   6.441   5.664 -0.5154 -0.2403 -0.0460
13898TIP3    H263110   3.009   6.319   5.750 -0.7574  0.8799  1.5122
13899TIP3   OH263111   6.566   3.665  15.486 -0.4380 -0.0726 -0.1606
13899TIP3    H163112   6.614   3.623  15.557  0.1647  0.5792 -0.1738
13899TIP3    H263113   6.487   3.613  15.476 -0.0532 -0.7554  0.3228
13900TIP3   OH263114   6.202   4.752   1.180 -0.5171  0.3170  0.2326
13900TIP3    H163115   6.153   4.802   1.246 -1.3498 -0.6798  0.3933
13900TIP3    H263116   6.134   4.711   1.126  0.0642 -2.1757  1.2610
13901TIP3   OH263117   5.324   4.929   2.736  0.5506  0.2096 -0.1974
13901TIP3    H163118   5.302   5.011   2.692  0.9655 -0.5853 -1.9528
13901TIP3    H263119   5.287   4.861   2.681  2.6337 -0.9105 -0.3160
13902TIP3   OH263120   1.414   5.925  15.130  0.0394 -0.1900 -0.2411
13902TIP3    H163121   1.377   5.986  15.193 -0.3038 -0.7821  0.1477
13902TIP3    H263122   1.384   5.956  15.045  3.4408  2.7564 -0.5713
13903TIP3   OH263123   5.803   6.455   3.199 -0.4189  0.3275 -0.1345
13903TIP3    H163124   5.816   6.392   3.127 -1.2047 -0.2994  0.2560
13903TIP3    H263125   5.876   6.516   3.190  1.1175 -1.3470  0.2205
13904TIP3   OH263126   0.365   2.995   4.402  0.3063 -0.4783 -0.1686
13904TIP3    H163127   0.381   2.962   4.490 -1.2498 -1.4985 -0.2219
13904TIP3    H263128   0.400   2.928   4.344  3.5017  1.2603 -0.4466
13905TIP3   OH263129   2.761   5.264  15.346  0.3945  0.1268 -0.0371
13905TIP3    H163130   2.746   5.193  15.283  0.6028  0.0200  0.0340
13905TIP3    H263131   2.698   5.332  15.320 -1.2047 -0.8419  1.0803
13906TIP3   OH263132   1.870   6.435   5.049 -0.4219  0.0012  0.0871
13906TIP3    H163133   1.885   6.435   5.143  1.0471 -0.8946 -0.0987
13906TIP3    H263134   1.956   6.414   5.012 -1.5899 -2.9331 -1.2929
13907TIP3   OH263135   4.034   2.548  16.277  0.5594 -0.1305 -0.0289
13907TIP3    H163136   3.976   2.476  16.250  0.0204  0.5508 -0.7202
13907TIP3    H263137   4.043   2.536  16.372 -1.6026  0.3668  0.2980
13908TIP3   OH263138   6.650   0.240   1.710  0.2965 -0.2948 -0.1438
13908TIP3    H163139   6.622   0.331   1.701  2.2402  0.7095  2.7219
13908TIP3    H263140   6.615   0.212   1.795  0.9203 -1.7517 -0.3382
13909TIP3   OH263141   1.385   5.309  12.135  0.1514  0.0488 -0.5235
13909TIP3    H163142   1.314   5.267  12.087 -0.3056  0.2371 -0.0237
13909TIP3    H263143   1.345   5.386  12.176  0.9194  0.8280 -1.2101
13910TIP3   OH263144   3.802   6.066   2.000 -0.0949 -0.3192  0.0110
13910TIP3    H163145   3.801   6.117   2.081 -1.7703 -1.4770  0.7618
13910TIP3    H263146   3.895   6.050   1.983  0.3980  1.7775  0.4798
13911TIP3   OH263147   4.206   3.704   5.178 -0.3259 -0.2675  0.1259
13911TIP3    H163148   4.142   3.637   5.204  0.1473 -0.7317  0.1192
13911TIP3    H263149   4.171   3.742   5.098 -1.4557  0.6876  1.0422
13912TIP3   OH263150   4.397   4.108   6.676  0.2400 -0.7651 -0.2801
13912TIP3    H163151   4.309   4.121   6.641  0.0270 -2.9352 -0.6744
13912TIP3    H263152   4.413   4.186   6.730 -1.1493  0.5655 -1.6780
13913TIP3   OH263153   5.203   3.403  12.590 -0.5874 -0.3752  0.9767
13913TIP3    H163154   5.158   3.484  12.565  0.2518  0.0782  0.8912
13913TIP3    H263155   5.202   3.405  12.686  1.1397  0.7496  1.0152
13914TIP3   OH263156   3.698   6.477   4.226 -0.3474  0.2210 -0.2541
13914TIP3    H163157   3.659   6.541   4.165  0.0492  1.2361  0.5218
13914TIP3    H263158   3.792   6.495   4.222 -0.4482  1.8729  2.2773
13915TIP3   OH263159   2.083   4.547  13.167 -0.0816 -0.2268  0.2893
13915TIP3    H163160   2.139   4.474  13.141  1.7999  0.5893  1.8393
13915TIP3    H263161   2.061   4.591  13.085  0.9453 -0.9886 -0.4174
13916TIP3   OH263162   1.056   4.491  13.874 -0.4446 -0.2069 -0.3334
13916TIP3    H163163   1.106   4.427  13.924  0.6964 -0.2950 -1.5385
13916TIP3    H263164   1.024   4.553  13.940 -1.7439 -2.0596  0.8867
13917TIP3   OH263165   0.130   1.468  12.889 -0.6459 -0.4385 -0.0471
13917TIP3    H163166   0.158   1.558  12.874 -0.6902 -0.5252 -0.6801
13917TIP3    H263167   0.039   1.466  12.860 -1.6038  0.0275  2.6804
13918TIP3   OH263168   1.928   0.977  16.091 -0.2875  0.7043  0.0401
13918TIP3    H163169   1.844   1.005  16.054 -0.9447 -3.0846 -1.8213
13918TIP3    H263170   1.908   0.898  16.141  2.1030 -0.4359 -0.6113
13919TIP3   OH263171   6.268   2.526  12.990  0.0971 -0.1310  0.7653
13919TIP3    H163172   6.296   2.612  13.022 -1.3782  0.6874 -0.0157
13919TIP3    H263173   6.249   2.476  13.069 -1.3991  1.1194  1.2581
13920TIP3   OH263174   1.093   3.353   0.068 -0.9752  0.3742 -0.4045
13920TIP3    H163175   1.067   3.420   0.130 -1.2626 -1.0912  1.1254
13920TIP3    H263176   1.044   3.275   0.094  0.0026 -0.6818 -1.5611
13921TIP3   OH263177   0.395   1.966   4.850  0.5098  0.0682 -0.2161
13921TIP3    H163178   0.437   1.976   4.765 -0.1190 -0.9827 -0.6639
13921TIP3    H263179   0.306   2.000   4.837  0.2360 -0.6021 -0.1446
13922TIP3   OH263180   2.483   6.253   2.444 -0.0162 -0.2427 -0.3197
13922TIP3    H163181   2.549   6.298   2.390  0.2961  1.3586  1.3134
13922TIP3    H263182   2.416   6.319   2.461 -1.2461 -1.3726 -0.5660
13923TIP3   OH263183   1.604   2.142   3.758  0.3702 -0.3036 -0.2017
13923TIP3    H163184   1.565   2.095   3.683  2.6071  0.6401 -2.0690
13923TIP3    H263185   1.680   2.187   3.721  1.7462 -0.0077  2.7440
13924TIP3   OH263186   5.959   0.534  15.384  0.2724  0.1332 -0.4992
13924TIP3    H163187   5.912   0.475  15.325  0.1051 -1.2062  0.8903
13924TIP3    H263188   5.891   0.564  15.445  0.8144 -0.1911  0.2765
13925TIP3   OH263189   0.424   4.517  13.093  0.0776  0.0649 -0.1450
13925TIP3    H163190   0.361   4.474  13.036 -0.5363 -0.6130  1.0108
13925TIP3    H263191   0.416   4.610  13.072 -0.9326 -0.0704 -0.3941
13926TIP3   OH263192   0.231   0.489  11.320  0.0430 -0.1768 -0.1766
13926TIP3    H163193   0.325   0.468  11.316 -0.2731 -2.1999  1.3302
13926TIP3    H263194   0.207   0.508  11.230  2.2086  2.0504 -0.3935
13927TIP3   OH263195   1.091   5.890  17.323 -0.4074  0.4235  0.4155
13927TIP3    H163196   1.164   5.831  17.304  0.1680  1.3570 -0.3455
13927TIP3    H263197   1.120   5.975  17.292 -1.4743  0.9966  0.9280
13928TIP3   OH263198   5.212   6.321   5.838 -0.2849 -0.6353  0.2932
13928TIP3    H163199   5.228   6.291   5.927 -1.7386 -0.8115  0.5156
13928TIP3    H263200   5.202   6.416   5.846 -0.2468 -0.6311  0.2918
13929TIP3   OH263201   2.764   2.571   2.763 -0.3345 -0.0479  0.3172
13929TIP3    H163202   2.704   2.627   2.713 -1.5775 -2.0309 -0.5390
13929TIP3    H263203   2.823   2.534   2.697 -0.1321 -0.4637  0.7232
13930TIP3   OH263204   0.626   6.537  13.576 -0.8291 -0.6506  0.3603
13930TIP3    H163205   0.673   6.459  13.544 -1.1495 -0.5658 -0.3533
13930TIP3    H263206   0.660   6.551  13.664  1.7272  0.3918 -0.6897
13931TIP3   OH263207   0.875   3.127  11.846  0.3756  0.3280 -0.7734
13931TIP3    H163208   0.801   3.083  11.804 -0.5610  0.9034  0.2053
13931TIP3    H263209   0.927   3.057  11.884 -0.5577 -0.0107 -0.0833
13932TIP3   OH263210   2.812   0.735   5.467  0.0332 -0.6059 -0.0764
13932TIP3    H163211   2.786   0.803   5.530 -1.5409 -0.7356 -0.5478
13932TIP3    H263212   2.731   0.688   5.449  0.4645 -0.6399 -2.1280
13933TIP3   OH263213   6.376   0.651   5.304  0.4457 -0.4722 -0.0004
13933TIP3    H163214   6.287   0.624   5.328  0.3700  0.1475  0.4424
13933TIP3    H263215   6.424   0.569   5.294 -0.1642 -0.8116 -0.2032
13934TIP3   OH263216   4.909   3.402  11.502  0.0185  0.4463 -0.4949
13934TIP3    H163217   4.916   3.322  11.450 -0.9102  0.4662 -0.6805
13934TIP3    H263218   4.992   3.447  11.490  1.4897 -1.5463  1.4173
13935TIP3   OH263219   5.339   6.085  14.297  0.5078  0.8183 -0.2211
13935TIP3    H163220   5.255   6.119  14.329 -1.2622  0.1365 -3.5838
13935TIP3    H263221   5.364   6.146  14.227  1.6210 -0.2516 -0.8041
13936TIP3   OH263222   1.943   5.273   6.749  0.3544  0.3372  0.4406
13936TIP3    H163223   2.039   5.267   6.741  0.2378 -1.4111 -0.0671
13936TIP3    H263224   1.910   5.222   6.675 -0.9635  0.2219  1.0821
13937TIP3   OH263225   1.560   4.281   1.494 -0.1362  0.2157  0.5404
13937TIP3    H163226   1.589   4.370   1.517 -0.8265  0.5272  0.2416
13937TIP3    H263227   1.602   4.263   1.409 -0.5932  0.5525  0.2421
13938TIP3   OH263228   6.331   5.531   6.847 -0.7409  0.1371  0.0920
13938TIP3    H163229   6.382   5.493   6.919 -0.3428 -0.5575 -0.5365
13938TIP3    H263230   6.242   5.534   6.880 -0.8057 -1.4708  0.1455
13939TIP3   OH263231   2.358   4.483  11.731 -0.3413  0.1617 -0.0762
13939TIP3    H163232   2.397   4.569  11.715  0.7133 -0.0520  1.1671
13939TIP3    H263233   2.370   4.436  11.648 -2.6407  1.7695 -1.4352
13940TIP3   OH263234   1.383   1.262  12.023  0.3575 -0.3272 -0.3593
13940TIP3    H163235   1.340   1.338  12.062 -0.2829 -0.8164 -0.0858
13940TIP3    H263236   1.340   1.186  12.064  0.1178 -0.8512 -1.5282
13941TIP3   OH263237   0.855   1.758  11.767 -0.4262  0.1807 -0.4495
13941TIP3    H163238   0.784   1.791  11.821 -0.5093  1.9750 -1.5819
13941TIP3    H263239   0.933   1.806  11.795  0.1290 -0.8968 -0.0528
13942TIP3   OH263240   6.695   3.575   1.306  0.4208  0.2174  0.5600
13942TIP3    H163241   6.738   3.653   1.271  1.1185 -0.3904  0.0031
13942TIP3    H263242   6.757   3.541   1.371 -0.3455  0.6908  1.5605
13943TIP3   OH263243   6.718   0.330  12.110 -0.7372 -1.5860 -0.0118
13943TIP3    H163244   6.675   0.379  12.180 -0.4289 -0.2067 -0.7509
13943TIP3    H263245   6.790   0.284  12.153 -0.0413 -0.0971  0.4636
13944TIP3   OH263246   5.889   6.459  12.747  0.2774 -0.0098  0.6448
13944TIP3    H163247   5.837   6.511  12.687  0.1990 -0.2580  0.4978
13944TIP3    H263248   5.852   6.371  12.742 -1.3434  0.4528  2.8718
13945TIP3   OH263249   2.409   3.033  15.727  0.5091 -0.4601  0.1608
13945TIP3    H163250   2.333   2.986  15.692 -0.0823  0.2497  0.4497
13945TIP3    H263251   2.372   3.113  15.765  1.4637  0.1381 -0.1345
13946TIP3   OH263252   1.827   3.198   0.229 -0.0737  0.3791  0.0347
13946TIP3    H163253   1.827   3.188   0.134 -0.5649  3.7188 -0.4425
13946TIP3    H263254   1.900   3.258   0.247 -0.5797  0.5612  1.6553
13947TIP3   OH263255   5.977   5.518  10.888  0.0030 -0.1692  0.8041
13947TIP3    H163256   5.929   5.600  10.893  0.4220  0.1713 -0.5703
13947TIP3    H263257   5.910   5.450  10.897 -0.1820  0.2417  3.6704
13948TIP3   OH263258   2.995   0.441  13.491  0.0502 -0.5897 -0.1118
13948TIP3    H163259   2.951   0.359  13.470  1.3188 -1.2011 -0.4270
13948TIP3    H263260   3.078   0.415  13.531  1.2024  0.4799 -1.6713
13949TIP3   OH263261   4.163   4.914   5.208  0.1363 -0.1408 -0.0104
13949TIP3    H163262   4.238   4.971   5.190 -0.0381 -0.3410 -1.4352
13949TIP3    H263263   4.197   4.849   5.269  0.9769  0.0871 -0.2202
13950TIP3   OH263264   1.119   0.419  14.468  0.3779 -0.0965  0.2973
13950TIP3    H163265   1.116   0.414  14.564 -0.4140 -1.3155  0.2239
13950TIP3    H263266   1.210   0.398  14.446  0.5853  0.2629  0.7744
13951TIP3   OH263267   2.177   0.608   6.671 -0.5213  0.4075  0.5894
13951TIP3    H163268   2.202   0.531   6.619  1.0706 -0.7821  2.9122
13951TIP3    H263269   2.225   0.680   6.630  0.3537 -0.3942  0.1492
13952TIP3   OH263270   5.835   2.089  11.968 -0.0708 -0.0195 -0.6137
13952TIP3    H163271   5.822   2.000  12.001  2.2414 -0.8995 -1.8158
13952TIP3    H263272   5.930   2.102  11.971 -0.3919  2.9310  0.7175
13953TIP3   OH263273   6.213   5.304  12.922  0.3110 -0.2902 -0.4864
13953TIP3    H163274   6.272   5.378  12.935  1.2901 -1.2103  0.4215
13953TIP3    H263275   6.191   5.307  12.829  0.9465  0.6880 -0.6135
13954TIP3   OH263276   5.682   0.532   1.553  0.4688 -0.2146 -0.7954
13954TIP3    H163277   5.634   0.462   1.508  1.8858 -2.0562  0.4227
13954TIP3    H263278   5.634   0.612   1.531 -2.0457 -1.7156 -1.1495
13955TIP3   OH263279   5.349   2.795  15.019  0.2469  0.0455 -0.5368
13955TIP3    H163280   5.338   2.744  15.099  0.9148 -1.7585 -1.5280
13955TIP3    H263281   5.270   2.777  14.968 -0.3642  1.5091 -0.1599
13956TIP3   OH263282   5.690   4.081  10.558  0.0829  0.4123 -0.3027
13956TIP3    H163283   5.765   4.029  10.527  2.2490  1.1193  3.1813
13956TIP3    H263284   5.709   4.170  10.529 -1.2597  0.1010 -2.3121
13957TIP3   OH263285   3.097   2.428  16.759  0.4427  0.6424  0.4257
13957TIP3    H163286   3.023   2.461  16.707  1.0076 -0.9425 -1.4957
13957TIP3    H263287   3.063   2.424  16.849 -1.4583  0.9448 -0.2383
13958TIP3   OH263288   2.776   4.084   1.023  0.0154 -0.2225 -0.2155
13958TIP3    H163289   2.865   4.082   1.058 -0.2595  3.6853  1.2191
13958TIP3    H263290   2.726   4.025   1.079  1.4596 -1.9184 -0.5965
13959TIP3   OH263291   6.458   2.117   3.792  0.2034  0.3903 -0.0841
13959TIP3    H163292   6.518   2.045   3.812  0.2808  0.7511  1.0426
13959TIP3    H263293   6.443   2.110   3.698  0.8334 -0.6151 -0.1239
13960TIP3   OH263294   5.470   5.906   2.407  0.0861 -0.4247  0.4817
13960TIP3    H163295   5.418   5.838   2.449 -0.7567  0.9065  1.6788
13960TIP3    H263296   5.419   5.932   2.330 -0.1715 -0.3281  0.6846
13961TIP3   OH263297   0.236   4.974  17.095 -0.2863 -0.3190  0.2169
13961TIP3    H163298   0.156   4.953  17.048 -0.9438  1.6815  0.3546
13961TIP3    H263299   0.293   5.015  17.030  0.1714 -0.6950  0.3757
13962TIP3   OH263300   5.380   2.218   4.534 -0.1576  0.1724  0.4428
13962TIP3    H163301   5.442   2.146   4.543 -0.2955  0.1567  1.4281
13962TIP3    H263302   5.396   2.273   4.611 -0.4784  0.8655  0.0277
13963TIP3   OH263303   4.778   1.927  16.735  0.4442  0.0634  0.1860
13963TIP3    H163304   4.708   1.866  16.714 -0.1443  0.4709  0.9115
13963TIP3    H263305   4.830   1.882  16.802  0.9336 -0.2733 -0.4134
13964TIP3   OH263306   0.464   0.054   6.204  0.1674 -0.5526 -0.4871
13964TIP3    H163307   0.407  -0.001   6.149 -2.4508 -2.3361  3.4783
13964TIP3    H263308   0.546   0.005   6.209 -0.8317 -2.2901 -0.0245
13965TIP3   OH263309   4.405   3.847  11.644  0.9132  0.1561  0.7693
13965TIP3    H163310   4.418   3.906  11.719  2.8094  0.6726  0.1047
13965TIP3    H263311   4.441   3.895  11.570 -1.0865 -0.2797 -0.5431
13966TIP3   OH263312   6.106   0.214  17.318 -0.1575  0.0280  0.2114
13966TIP3    H163313   6.028   0.212  17.374  0.0690  0.0286  0.5236
13966TIP3    H263314   6.092   0.142  17.256 -0.0460 -0.4701  0.7552
13967TIP3   OH263315   2.261   6.300  17.127 -0.2285  0.1565  0.4168
13967TIP3    H163316   2.289   6.390  17.145 -0.4417  0.0370  1.3764
13967TIP3    H263317   2.186   6.310  17.068 -1.9761  0.7772  2.6013
13968TIP3   OH263318   0.482   5.138  11.303 -0.1537 -0.4832 -0.5911
13968TIP3    H163319   0.454   5.069  11.242 -0.7994 -0.1043 -0.7310
13968TIP3    H263320   0.577   5.127  11.308 -0.2553 -1.4542 -0.5237
13969TIP3   OH263321   1.913   5.823   2.242  0.1934  0.1018 -0.1336
13969TIP3    H163322   2.009   5.834   2.241  0.4022 -1.4154 -0.0832
13969TIP3    H263323   1.894   5.793   2.331 -0.1455 -0.8613 -0.5157
13970TIP3   OH263324   3.797   0.975   0.652 -0.3199  0.4086  0.2010
13970TIP3    H163325   3.892   0.981   0.643 -0.3913  0.5258 -0.5538
13970TIP3    H263326   3.780   1.002   0.742  0.5320 -1.6871  1.0529
13971TIP3   OH263327   3.171   4.053   5.868  0.4325 -0.5760  0.0873
13971TIP3    H163328   3.087   4.020   5.835  0.9352 -0.4122 -1.4150
13971TIP3    H263329   3.235   3.987   5.841  0.5763 -1.9782  3.3078
13972TIP3   OH263330   2.397   2.965  13.894  0.2439  0.2635 -0.0358
13972TIP3    H163331   2.305   2.940  13.888  0.6204 -1.5232  1.0469
13972TIP3    H263332   2.417   2.961  13.987  1.4658  0.5181 -0.2712
13973TIP3   OH263333   6.687   2.453  13.620  0.4008  0.1964  0.4114
13973TIP3    H163334   6.634   2.380  13.653 -0.3883  1.8378  3.1074
13973TIP3    H263335   6.777   2.425  13.633  0.1049  0.1297  2.6439
13974TIP3   OH263336   2.174   6.265  14.238  0.0883  0.3841 -0.1075
13974TIP3    H163337   2.248   6.315  14.274 -0.3157  1.3381 -0.5845
13974TIP3    H263338   2.156   6.306  14.154 -0.4422 -0.3963 -0.3822
13975TIP3   OH263339   5.531   6.180  12.259  0.1955 -0.0771 -0.5516
13975TIP3    H163340   5.615   6.144  12.286  0.6963  0.4730 -1.3244
13975TIP3    H263341   5.475   6.171  12.336  0.7762 -0.9919 -0.2120
13976TIP3   OH263342   6.304   2.511   5.713  0.0451 -0.3182 -0.0308
13976TIP3    H163343   6.348   2.595   5.704  0.8818 -0.7110  0.3641
13976TIP3    H263344   6.236   2.527   5.779  1.5422 -0.4627  1.6091
13977TIP3   OH263345   0.934   6.271   5.188  0.2824  0.7952  0.1908
13977TIP3    H163346   0.939   6.246   5.096  1.4618  0.2287  0.3765
13977TIP3    H263347   0.972   6.359   5.192 -0.4852  1.1319  0.0297
13978TIP3   OH263348   2.667   5.946   5.717  0.0118 -0.0623 -0.3135
13978TIP3    H163349   2.700   6.033   5.697  0.8092 -0.7343 -2.1372
13978TIP3    H263350   2.574   5.960   5.737  0.1125  1.1911 -0.6392
13979TIP3   OH263351   6.178   5.414   5.582 -0.5629  0.3609 -0.7886
13979TIP3    H163352   6.177   5.336   5.527 -0.7459 -0.5916  0.5082
13979TIP3    H263353   6.124   5.477   5.535 -0.0195 -0.1123 -2.0904
13980TIP3   OH263354   3.023   4.455  11.963  0.3789 -0.7263 -0.6924
13980TIP3    H163355   3.012   4.369  12.004  1.1688 -1.3844 -1.8028
13980TIP3    H263356   2.935   4.492  11.961  0.3164 -0.5956  1.6683
13981TIP3   OH263357   3.753   6.528  11.209  0.0320  0.0823 -0.0333
13981TIP3    H163358   3.670   6.555  11.170 -0.4738 -1.6326 -0.2182
13981TIP3    H263359   3.777   6.448  11.162  1.1255 -0.1693  0.9132
13982TIP3   OH263360   1.565   0.420   4.037 -0.4406 -0.2036 -0.2525
13982TIP3    H163361   1.540   0.434   4.128  0.5506  0.3715 -0.0612
13982TIP3    H263362   1.659   0.402   4.039 -0.7182 -1.9797 -0.9995
13983TIP3   OH263363   2.805   4.632  11.661  0.6083 -0.5341  0.0180
13983TIP3    H163364   2.771   4.610  11.574 -0.8861  0.7014  0.2474
13983TIP3    H263365   2.882   4.685  11.644  0.5384 -0.6046 -0.5505
13984TIP3   OH263366   1.530   6.642  16.830  0.2567  0.0846  0.0269
13984TIP3    H163367   1.456   6.615  16.775 -1.1183  1.8200  0.8717
13984TIP3    H263368   1.557   6.563  16.875 -1.2202 -0.5928 -0.2034
13985TIP3   OH263369   1.417   0.120  12.578  0.0015  0.2526 -0.1538
13985TIP3    H163370   1.387   0.177  12.507  0.3031 -0.9352 -1.2865
13985TIP3    H263371   1.502   0.088  12.548  0.2072 -0.1450  0.8329
13986TIP3   OH263372   2.527   1.038  16.073  0.4307 -0.5115 -0.3456
13986TIP3    H163373   2.501   1.120  16.115 -2.0035 -0.8250 -1.1174
13986TIP3    H263374   2.502   1.049  15.982  1.6196 -1.5208 -0.8257
13987TIP3   OH263375   0.905   3.141   2.758 -0.2217  0.0964  0.1687
13987TIP3    H163376   0.914   3.054   2.798 -0.3424 -0.1887 -0.4005
13987TIP3    H263377   0.959   3.199   2.812 -1.4536  0.0065  1.5643
13988TIP3   OH263378   6.744   4.905   6.053 -0.2413 -0.3926  0.0595
13988TIP3    H163379   6.712   4.880   6.140 -0.4446  0.2448  0.1695
13988TIP3    H263380   6.825   4.953   6.070 -0.7084  0.4489 -0.0468
13989TIP3   OH263381   3.493   6.016  12.010  0.6814  0.0537 -0.6409
13989TIP3    H163382   3.433   5.990  12.079  1.2982 -0.0511 -0.1379
13989TIP3    H263383   3.497   5.939  11.952 -0.1219  0.2793 -1.0028
13990TIP3   OH263384   6.418   3.672   2.015  0.2363  0.1176  0.1935
13990TIP3    H163385   6.348   3.658   1.951  0.1373 -1.6966  0.6414
13990TIP3    H263386   6.410   3.765   2.039 -2.6721 -0.2013  0.9237
13991TIP3   OH263387   5.095   1.023  10.903 -0.4891  0.3290  0.3677
13991TIP3    H163388   5.170   1.035  10.844 -0.2548  4.0366  1.1449
13991TIP3    H263389   5.023   1.000  10.846  0.5940 -0.2534 -0.8133
13992TIP3   OH263390   5.731   1.542   5.919  0.3296  0.0558  0.6504
13992TIP3    H163391   5.789   1.525   5.844  1.2927  0.7465  1.2211
13992TIP3    H263392   5.671   1.467   5.920  0.0390  0.2286 -1.0435
13993TIP3   OH263393   2.078   3.394  11.782  0.2632  0.2622 -0.4353
13993TIP3    H163394   2.099   3.441  11.701 -0.0566 -0.2439 -0.8178
13993TIP3    H263395   2.162   3.376  11.823  0.3583  2.3278  0.3942
13994TIP3   OH263396   5.765   0.518  11.260  0.0260  0.4805 -0.1818
13994TIP3    H163397   5.828   0.494  11.329  0.6541 -0.6617 -1.1161
13994TIP3    H263398   5.681   0.523  11.305  0.0426 -2.3394  0.3484
13995TIP3   OH263399   0.691   3.614   1.176 -0.0048 -0.2210  0.2237
13995TIP3    H163400   0.644   3.650   1.101  0.7552 -1.7541 -1.0342
13995TIP3    H263401   0.729   3.533   1.144  2.0322  0.0762  1.7004
13996TIP3   OH263402   3.124   2.858  12.044 -0.0052  0.4515 -0.5161
13996TIP3    H163403   3.104   2.770  12.013  1.7767  0.3722 -1.5523
13996TIP3    H263404   3.042   2.889  12.082 -0.8693 -1.3644 -0.8074
13997TIP3   OH263405   1.161   1.702  12.700  0.0842  0.0816  0.2833
13997TIP3    H163406   1.127   1.777  12.651 -0.1493 -0.2090 -0.0084
13997TIP3    H263407   1.099   1.631  12.681  0.2632 -0.1640  0.6119
13998TIP3   OH263408   0.718   1.547  15.740  0.0022  0.3088 -0.1681
13998TIP3    H163409   0.801   1.513  15.772 -0.5178 -0.8734 -0.0295
13998TIP3    H263410   0.654   1.518  15.805 -0.8908 -1.0264 -1.5988
13999TIP3   OH263411   2.639   4.608  13.772 -0.4823 -0.2783 -0.5922
13999TIP3    H163412   2.726   4.635  13.744  0.2620 -2.0435 -0.1308
13999TIP3    H263413   2.628   4.647  13.858  0.0520 -0.4162 -0.4595
14000TIP3   OH263414   4.014   5.846   4.040 -0.2234  0.0205  0.7242
14000TIP3    H163415   3.938   5.810   4.085 -0.7023  0.9558  0.6926
14000TIP3    H263416   4.073   5.875   4.110  0.9251 -2.2728  0.7839
14001TIP3   OH263417   6.678   5.600  12.989 -0.1601 -1.0777 -0.2625
14001TIP3    H163418   6.677   5.629  13.080 -0.0530 -1.4489 -0.1424
14001TIP3    H263419   6.758   5.548  12.982  0.8246  0.4637 -1.0409
14002TIP3   OH263420   4.936   2.937   2.367  0.4058  0.8208  0.3179
14002TIP3    H163421   4.875   2.993   2.320 -1.3748  0.4030  1.9709
14002TIP3    H263422   5.017   2.939   2.316 -0.6960  2.1577 -1.4496
14003TIP3   OH263423   2.243   6.408   2.505 -0.0712  0.2418 -0.1932
14003TIP3    H163424   2.252   6.326   2.554 -1.2633  0.6163  0.7240
14003TIP3    H263425   2.153   6.436   2.523 -0.0086  1.2408 -1.3115
14004TIP3   OH263426   5.071   1.549   3.051  0.8607 -0.1801 -0.4827
14004TIP3    H163427   4.996   1.555   2.992  0.6254  2.2079 -0.0542
14004TIP3    H263428   5.039   1.586   3.133  1.2685 -3.1102  1.1439
14005TIP3   OH263429   6.452   3.027  13.329 -0.2666 -0.0796  0.5985
14005TIP3    H163430   6.529   3.003  13.276 -0.4426  1.0097 -0.1850
14005TIP3    H263431   6.392   2.953  13.319  0.9706 -1.3439  1.8999
14006TIP3   OH263432   6.194   1.320  15.272  0.0629 -0.4396  0.2539
14006TIP3    H163433   6.223   1.254  15.335  0.3885  0.3836  0.9918
14006TIP3    H263434   6.179   1.398  15.325  1.2502  0.5540 -0.8117
14007TIP3   OH263435   1.975   3.176   0.790  0.4413  0.3507 -0.0022
14007TIP3    H163436   1.925   3.099   0.816  2.2757 -0.6788  0.7057
14007TIP3    H263437   1.983   3.169   0.695 -1.5098  1.0608 -0.2537
14008TIP3   OH263438   5.156   2.794  11.848 -0.2853 -0.4613  0.2443
14008TIP3    H163439   5.214   2.764  11.778 -0.2822 -0.1374  0.1064
14008TIP3    H263440   5.195   2.875  11.878  2.1398 -2.5776  3.5059
14009TIP3   OH263441   0.792   2.100   0.658  0.1038 -0.0850  0.0216
14009TIP3    H163442   0.887   2.095   0.668  0.0059 -2.0412  0.3917
14009TIP3    H263443   0.759   2.104   0.748 -0.1878  0.3341 -0.1004
14010TIP3   OH263444   2.866   0.994   1.580  0.4992  0.2918  0.3161
14010TIP3    H163445   2.897   0.975   1.491  0.9475 -0.3274  0.5963
14010TIP3    H263446   2.839   0.909   1.615 -2.0440  0.8731 -0.0824
14011TIP3   OH263447   3.305   0.037  13.381  0.1984  0.4765 -0.2441
14011TIP3    H163448   3.253  -0.022  13.327  0.0886  0.0517  0.3197
14011TIP3    H263449   3.272   0.024  13.469  0.8412  0.6561  0.0269
14012TIP3   OH263450   6.089   2.302  16.372  0.4209  0.8529 -0.6377
14012TIP3    H163451   6.077   2.385  16.419 -1.2726  0.1630  0.2573
14012TIP3    H263452   6.180   2.302  16.344  0.5468  2.8493 -0.3454
14013TIP3   OH263453   1.270   5.525  16.710  0.4462  0.5437 -0.0566
14013TIP3    H163454   1.228   5.603  16.672  0.0720  0.0909 -0.5842
14013TIP3    H263455   1.300   5.475  16.634 -0.2625 -0.3456  0.2417
14014TIP3   OH263456   0.850   4.051   2.144  0.0373 -0.1198  0.0157
14014TIP3    H163457   0.781   4.075   2.081 -0.7978 -1.5041  0.3626
14014TIP3    H263458   0.812   3.979   2.195  1.5203 -0.4946  0.6403
14015TIP3   OH263459   6.111   0.198  15.951 -0.1488  0.1413 -0.5656
14015TIP3    H163460   6.188   0.251  15.967 -0.5201  0.8266 -0.9963
14015TIP3    H263461   6.128   0.156  15.867  1.3238 -2.5973  0.9570
14016TIP3   OH263462   0.226   1.324   5.157 -0.5985 -0.6737  0.6051
14016TIP3    H163463   0.272   1.406   5.173 -2.2701  0.5559 -0.4913
14016TIP3    H263464   0.167   1.314   5.232  1.0632 -2.0455  1.8139
14017TIP3   OH263465   3.596   3.405   3.718  0.2529 -0.0898  0.1519
14017TIP3    H163466   3.620   3.371   3.632  1.0403  0.3970  0.1687
14017TIP3    H263467   3.601   3.329   3.776 -0.6065 -0.4886 -0.2850
14018TIP3   OH263468   6.160   5.602   4.418  0.8001 -0.0366 -0.1556
14018TIP3    H163469   6.100   5.564   4.354  0.2687  0.1406  0.2349
14018TIP3    H263470   6.129   5.692   4.430  0.9840 -0.0231  0.2380
14019TIP3   OH263471   3.765   0.687  17.379  0.0643  0.0900  0.3325
14019TIP3    H163472   3.720   0.709  17.460  0.8912 -1.3196  1.2193
14019TIP3    H263473   3.750   0.593  17.369  0.3104  0.1722 -0.9466
14020TIP3   OH263474   4.836   5.172  13.430  0.4084  0.4137 -0.3558
14020TIP3    H163475   4.849   5.087  13.389  1.6804  0.8495 -0.9170
14020TIP3    H263476   4.749   5.199  13.402  0.3360 -0.3299 -0.8729
14021TIP3   OH263477   5.143   1.537   4.171 -0.0925 -0.4974  0.1837
14021TIP3    H163478   5.104   1.615   4.131  0.7700  0.3967  1.0258
14021TIP3    H263479   5.106   1.535   4.260  1.0398 -0.1581  0.6773
14022TIP3   OH263480   6.028   5.455  13.083 -0.2509  0.5716 -0.1411
14022TIP3    H163481   6.061   5.402  13.011 -0.8844  1.2590 -0.9595
14022TIP3    H263482   6.020   5.394  13.157 -0.8524 -0.4443 -1.0197
14023TIP3   OH263483   5.935   5.485  16.481  0.2255  0.0576 -0.4549
14023TIP3    H163484   6.006   5.549  16.488  0.5072 -0.3711  0.9448
14023TIP3    H263485   5.972   5.405  16.518 -0.7053 -0.4275 -0.5489
14024TIP3   OH263486   5.921   6.268   4.060  0.0266 -0.0185  0.7630
14024TIP3    H163487   5.941   6.260   3.967 -0.7490 -1.8001  0.7124
14024TIP3    H263488   5.994   6.223   4.104 -0.2728 -0.3275  0.9441
14025TIP3   OH263489   3.389   0.582  15.374  0.5239  0.0134  0.1120
14025TIP3    H163490   3.460   0.646  15.372 -0.3445  0.9940 -1.0748
14025TIP3    H263491   3.340   0.603  15.453 -1.0927  2.4388 -1.3765
14026TIP3   OH263492   1.224   2.749  12.510  0.3682 -0.4457  0.0254
14026TIP3    H163493   1.315   2.726  12.532  0.1295 -0.1376  1.3783
14026TIP3    H263494   1.184   2.774  12.593 -1.0227 -0.7533 -0.5188
14027TIP3   OH263495   4.210   2.688  11.698  0.6892  0.0814 -0.4003
14027TIP3    H163496   4.201   2.623  11.768  0.1787  0.4145 -0.1449
14027TIP3    H263497   4.122   2.694  11.661  0.9650 -0.1206 -1.1027
14028TIP3   OH263498   3.868   2.189   5.248  0.2845 -0.0000  0.2824
14028TIP3    H163499   3.858   2.225   5.160  0.7404 -0.2581  0.1242
14028TIP3    H263500   3.800   2.234   5.299 -1.3367 -1.2905 -0.6304
14029TIP3   OH263501   4.881   1.399   5.357  0.1962  0.6002 -0.3601
14029TIP3    H163502   4.809   1.446   5.398 -1.9623 -1.9140 -1.0116
14029TIP3    H263503   4.862   1.404   5.263  1.1181  0.2704 -0.5740
14030TIP3   OH263504   0.962   6.211   5.904 -0.1345  0.0888  0.1519
14030TIP3    H163505   0.893   6.253   5.954 -0.7514  1.3723 -1.6793
14030TIP3    H263506   0.959   6.119   5.931 -2.9317 -0.0192 -0.2369
14031TIP3   OH263507   5.105   3.733  11.771  0.1845 -0.0163 -0.4557
14031TIP3    H163508   5.085   3.641  11.791  0.0298  0.1241  0.0787
14031TIP3    H263509   5.147   3.765  11.851  1.9972 -0.1287 -1.3305
14032TIP3   OH263510   4.847   5.311  13.862  0.0721  0.0304 -0.3877
14032TIP3    H163511   4.760   5.293  13.897  0.2568 -1.2448 -0.5586
14032TIP3    H263512   4.884   5.376  13.922 -0.5161 -0.3564  0.4011
14033TIP3   OH263513   4.362   1.836  12.717 -0.6880  0.4100 -0.4145
14033TIP3    H163514   4.395   1.879  12.796 -0.9898  1.4726 -0.8501
14033TIP3    H263515   4.268   1.823  12.735 -0.2055 -2.2752  0.6765
14034TIP3   OH263516   1.678   6.404  13.494  0.6618 -0.2640 -0.4255
14034TIP3    H163517   1.607   6.417  13.431 -0.2696 -0.5364  0.5148
14034TIP3    H263518   1.741   6.472  13.474  0.3883 -0.3407 -1.6340
14035TIP3   OH263519   2.008   6.143   3.914  0.0593  0.3228  0.1857
14035TIP3    H163520   2.055   6.142   3.998  0.8057 -0.8963 -0.2295
14035TIP3    H263521   1.982   6.052   3.901  0.1683  0.4613 -1.0358
14036TIP3   OH263522   1.864   2.917   0.739  0.8667 -0.9222 -0.3369
14036TIP3    H163523   1.845   2.927   0.646  0.0789  1.5535  0.0225
14036TIP3    H263524   1.828   2.831   0.762 -1.2205 -0.5022 -1.7828
14037TIP3   OH263525   5.465   5.528  13.276 -0.0058 -0.2182 -0.2627
14037TIP3    H163526   5.474   5.435  13.295  0.6268  0.0813  0.9975
14037TIP3    H263527   5.377   5.550  13.307  0.5054 -0.0346  1.1406
14038TIP3   OH263528   3.603   2.763  15.655  0.5114 -0.0666  0.5139
14038TIP3    H163529   3.670   2.747  15.721 -0.6181  1.1912  2.0627
14038TIP3    H263530   3.554   2.681  15.649 -0.3405  0.2435  2.4698
14039TIP3   OH263531   1.374   0.762  11.542 -0.3094 -0.4679  0.3009
14039TIP3    H163532   1.353   0.843  11.495 -1.0431 -0.9459 -0.2023
14039TIP3    H263533   1.318   0.696  11.503 -0.8104 -0.9210  1.7426
14040TIP3   OH263534   1.054   1.071  12.769  0.0463 -0.3244 -0.0150
14040TIP3    H163535   1.052   1.060  12.864  0.9705 -2.5076 -0.1650
14040TIP3    H263536   1.147   1.077  12.748 -0.0448 -1.4710 -0.8712
14041TIP3   OH263537   0.246   5.140  13.164 -0.3209 -0.0726  0.4825
14041TIP3    H163538   0.271   5.232  13.160  0.0810 -0.2083 -0.2263
14041TIP3    H263539   0.265   5.106  13.076 -0.8072 -0.7421  0.6283
14042TIP3   OH263540   3.588   5.447   0.449  0.1306  0.3585  0.1747
14042TIP3    H163541   3.549   5.496   0.377 -0.6219 -0.6139 -0.1047
14042TIP3    H263542   3.570   5.355   0.429 -1.8566  0.1157  2.5479
14043TIP3   OH263543   1.506   2.589  11.601  0.6822 -0.2130 -0.2147
14043TIP3    H163544   1.518   2.495  11.592  0.9772 -0.1754 -0.2318
14043TIP3    H263545   1.415   2.600  11.628  0.7661 -0.5254  0.1906
14044TIP3   OH263546   4.165   5.359   5.077  0.1921  0.3729 -0.1864
14044TIP3    H163547   4.079   5.387   5.108  0.6665  1.2852  0.3419
14044TIP3    H263548   4.178   5.406   4.995 -0.0262 -0.1607 -0.5299
14045TIP3   OH263549   2.021   4.602  12.480 -0.9252 -0.4243 -0.1668
14045TIP3    H163550   2.018   4.698  12.485 -1.2777 -0.4785  1.0177
14045TIP3    H263551   1.932   4.576  12.459 -1.5686 -0.5912  2.4510
14046TIP3   OH263552   6.219   6.125  15.419 -0.3049 -0.5411 -0.2129
14046TIP3    H163553   6.203   6.092  15.507 -0.6113  0.5503  0.1543
14046TIP3    H263554   6.177   6.211  15.417 -0.0613 -0.4297 -1.3332
14047TIP3   OH263555   3.898   4.747  11.324 -0.4347  0.1288  0.4044
14047TIP3    H163556   3.931   4.710  11.242  1.2123 -1.8362  1.8538
14047TIP3    H263557   3.803   4.752  11.312 -0.1519  0.9761 -1.9903
14048TIP3   OH263558   4.100   1.516   3.104 -0.0197 -0.1631 -0.4513
14048TIP3    H163559   4.190   1.545   3.117  0.1749 -0.3563 -1.2621
14048TIP3    H263560   4.100   1.425   3.134 -0.7596  0.7295  2.5952
14049TIP3   OH263561   5.584   2.335  12.805 -0.0286 -0.2349  0.1772
14049TIP3    H163562   5.661   2.389  12.824 -0.3938  0.6609 -0.7662
14049TIP3    H263563   5.589   2.318  12.711  0.3364 -2.3038  0.5273
14050TIP3   OH263564   6.508   1.370   0.084 -0.7438 -0.4184 -0.1000
14050TIP3    H163565   6.526   1.365  -0.009 -1.0045 -0.3304 -0.1559
14050TIP3    H263566   6.550   1.451   0.113 -0.2097 -0.7165 -0.0363
14051TIP3   OH263567   1.126   5.060   1.589  0.2856  0.5106 -0.4685
14051TIP3    H163568   1.184   5.136   1.596  1.1107  0.1730 -2.7587
14051TIP3    H263569   1.177   4.988   1.626  1.7637  0.0611 -3.1351
14052TIP3   OH263570   3.713   1.512   3.397  0.2767  0.4918  0.1632
14052TIP3    H163571   3.780   1.484   3.460  0.9894 -0.8495 -1.1220
14052TIP3    H263572   3.760   1.567   3.335  0.0861 -0.0392 -0.4600
14053TIP3   OH263573   4.873   6.570  13.222 -0.4079 -0.2818 -0.6055
14053TIP3    H163574   4.901   6.649  13.176  0.5190  0.4877  1.1745
14053TIP3    H263575   4.779   6.581  13.236 -0.3026  0.4764 -0.4579
14054TIP3   OH263576   1.045   3.971   0.788  0.2946 -0.1193 -0.1995
14054TIP3    H163577   1.111   3.953   0.854 -0.9349  2.1719  1.8300
14054TIP3    H263578   1.069   4.057   0.752 -1.3926  0.6964  0.4876
14055TIP3   OH263579   4.511   2.047  12.593 -0.0959  0.1170 -0.1511
14055TIP3    H163580   4.494   1.960  12.630 -3.3703 -0.4626 -2.4601
14055TIP3    H263581   4.603   2.045  12.567  0.6469 -1.6049  2.2882
14056TIP3   OH263582   5.270   1.651  15.847  0.1437 -0.4021  0.1722
14056TIP3    H163583   5.312   1.700  15.776 -0.0829 -0.3087  0.1013
14056TIP3    H263584   5.187   1.620  15.809  0.0567 -0.4164  0.3729
14057TIP3   OH263585   4.555   1.775  13.400 -0.2838 -0.4579 -0.3757
14057TIP3    H163586   4.554   1.870  13.390 -1.1080 -0.5777 -1.6562
14057TIP3    H263587   4.503   1.759  13.478  0.1873  0.1621  0.0744
14058TIP3   OH263588   0.388   2.668  16.515  0.2175 -0.0756 -0.4029
14058TIP3    H163589   0.349   2.721  16.585  0.6967  2.5144 -1.9591
14058TIP3    H263590   0.317   2.656  16.452  0.5510  0.1663 -0.8284
14059TIP3   OH263591   2.135   5.034   3.694  0.1127 -0.3785  0.1917
14059TIP3    H163592   2.090   5.058   3.775 -0.1734 -1.0249  0.2310
14059TIP3    H263593   2.071   4.981   3.646  0.1846  0.2039 -0.5740
14060TIP3   OH263594   6.295   0.721  10.527 -0.1627  0.0560 -0.1842
14060TIP3    H163595   6.371   0.730  10.585  0.4578  1.3337 -1.1369
14060TIP3    H263596   6.239   0.796  10.549 -0.1023  0.3381 -0.9567
14061TIP3   OH263597   5.490   5.913   0.761  0.1365 -0.0928 -0.0272
14061TIP3    H163598   5.470   5.976   0.830 -0.1352  0.2554 -0.4136
14061TIP3    H263599   5.411   5.860   0.753  0.0335  0.0973 -0.3072
14062TIP3   OH263600   0.332   6.346   4.114 -0.4389  0.3012 -0.6440
14062TIP3    H163601   0.285   6.422   4.147  1.0527  2.0875 -2.3114
14062TIP3    H263602   0.424   6.363   4.136 -0.2707 -2.2076  0.9936
14063TIP3   OH263603   6.423   0.141   4.688 -0.0953  0.0595  0.6093
14063TIP3    H163604   6.473   0.089   4.751 -1.6185 -0.2687  1.5915
14063TIP3    H263605   6.463   0.119   4.603  1.1263 -0.5202  1.3043
14064TIP3   OH263606   4.166   1.272   3.555  0.2466  0.2954 -0.2368
14064TIP3    H163607   4.202   1.218   3.485 -0.4049 -1.3400  0.6342
14064TIP3    H263608   4.227   1.345   3.562  0.3596  0.5023 -2.4506
14065TIP3   OH263609   3.050   4.806  14.340  0.1046  0.2436  0.3181
14065TIP3    H163610   3.046   4.892  14.297 -1.1054 -0.7824 -1.7357
14065TIP3    H263611   3.114   4.756  14.290 -0.0541 -0.4270  0.7731
14066TIP3   OH263612   3.575   3.616  14.311  0.3976 -0.3530 -0.5916
14066TIP3    H163613   3.492   3.569  14.317  0.0384  0.4276  1.5310
14066TIP3    H263614   3.631   3.571  14.375  1.3864 -0.3948 -1.4609
14067TIP3   OH263615   6.705   6.464   5.055 -0.5673  0.0841  0.5651
14067TIP3    H163616   6.729   6.553   5.081 -0.7230  0.5952 -0.9090
14067TIP3    H263617   6.720   6.410   5.133 -0.3097  1.3701  1.4299
14068TIP3   OH263618   4.418   3.536  12.919  0.0242  0.4248  1.0021
14068TIP3    H163619   4.343   3.595  12.917  0.3418  0.8201 -0.1990
14068TIP3    H263620   4.461   3.554  13.003  0.5598  2.5058  0.3388
14069TIP3   OH263621   1.247   6.189   5.432 -0.0682 -0.2769 -0.4932
14069TIP3    H163622   1.279   6.269   5.391  1.0206 -0.9047 -0.9220
14069TIP3    H263623   1.304   6.177   5.509  0.0597 -0.8485 -0.6700
14070TIP3   OH263624   5.784   0.256   6.160 -0.6497  0.2328 -0.0568
14070TIP3    H163625   5.725   0.330   6.176 -1.5508  0.0992 -2.4616
14070TIP3    H263626   5.857   0.293   6.111 -0.4034 -0.2308 -0.0497
14071TIP3   OH263627   0.521   2.341   3.318  0.1579  0.5631 -0.4700
14071TIP3    H163628   0.594   2.280   3.307 -0.1245 -0.0499  0.8708
14071TIP3    H263629   0.468   2.329   3.240 -0.0181 -1.1072 -0.1253
14072TIP3   OH263630   1.575   0.036   0.610 -0.5605 -0.3697  0.4952
14072TIP3    H163631   1.580   0.005   0.520 -1.6469  0.6778  0.0398
14072TIP3    H263632   1.631  -0.024   0.660  3.2200  1.2225 -1.4009
14073TIP3   OH263633   0.515   5.852  16.612 -0.2610  0.4890 -0.1633
14073TIP3    H163634   0.481   5.838  16.524 -4.4451 -1.6446  1.5362
14073TIP3    H263635   0.548   5.767  16.640 -1.5060  0.3894  1.1723
14074TIP3   OH263636   5.447   2.645   4.525 -0.2639  0.4174  0.0685
14074TIP3    H163637   5.433   2.664   4.617 -0.8154 -1.1848  0.3357
14074TIP3    H263638   5.390   2.707   4.479 -1.0580  0.2765  0.8461
14075TIP3   OH263639   4.931   6.065   4.859 -0.0165 -0.1782  0.0222
14075TIP3    H163640   4.909   6.140   4.803  0.7381 -0.0250 -0.0808
14075TIP3    H263641   4.936   6.103   4.947  2.6106  0.4049 -0.2977
14076TIP3   OH263642   4.494   1.981   5.011  0.4785 -0.2373  0.0374
14076TIP3    H163643   4.438   2.059   5.013  0.4141 -0.2421 -1.2604
14076TIP3    H263644   4.521   1.973   4.920  1.5846 -0.9664  0.4158
14077TIP3   OH263645   6.550   0.891  15.202 -0.2439  0.3124 -0.3582
14077TIP3    H163646   6.587   0.831  15.266 -0.2355 -2.0588 -2.3927
14077TIP3    H263647   6.625   0.924  15.153 -0.3585  0.7569 -0.2384
14078TIP3   OH263648   6.709   0.429   2.546  0.2534 -0.5950 -0.3650
14078TIP3    H163649   6.798   0.436   2.513  0.8493 -1.5394  0.9723
14078TIP3    H263650   6.666   0.366   2.488  0.5040 -0.2605 -0.9135
14079TIP3   OH263651   2.363   1.274  15.725  0.5191  0.0137  0.7816
14079TIP3    H163652   2.386   1.252  15.635 -0.9135  1.9996 -0.1581
14079TIP3    H263653   2.339   1.191  15.765  0.9545 -0.8868 -0.7435
14080TIP3   OH263654   0.523   5.264  15.111 -0.3433  0.0396 -0.3579
14080TIP3    H163655   0.607   5.223  15.134 -1.3495 -1.6058  0.5068
14080TIP3    H263656   0.478   5.199  15.058 -0.0174  1.9801 -3.2461
14081TIP3   OH263657   1.232   4.464   4.704  0.1813 -0.2805  0.0732
14081TIP3    H163658   1.208   4.534   4.643 -1.1536  1.1148  2.0688
14081TIP3    H263659   1.150   4.421   4.725  0.7094 -1.1413  0.4225
14082TIP3   OH263660   3.754   2.689   4.484  0.1633  0.2952 -0.1302
14082TIP3    H163661   3.726   2.750   4.552  0.8739 -0.5387  0.9498
14082TIP3    H263662   3.784   2.745   4.412 -0.5109  1.1954  0.2775
14083TIP3   OH263663   6.518   0.189  17.115 -0.0625  0.0221  0.4253
14083TIP3    H163664   6.475   0.120  17.065 -0.1651 -0.4123  1.1024
14083TIP3    H263665   6.602   0.203  17.070 -0.9539  0.9957 -1.0028
14084TIP3   OH263666   5.434   4.179  13.819  0.3374 -0.2800  0.1290
14084TIP3    H163667   5.442   4.254  13.877  0.4785 -0.4636  0.3459
14084TIP3    H263668   5.395   4.111  13.872 -0.2927 -0.1964 -0.2164
14085TIP3   OH263669   3.624   0.756  12.474  0.0152 -0.4844 -0.2826
14085TIP3    H163670   3.668   0.840  12.463  2.9925 -1.5169  2.3068
14085TIP3    H263671   3.534   0.778  12.499  0.3103  1.8513 -1.1033
14086TIP3   OH263672   6.717   1.921  14.110 -0.1241  0.1322 -0.0796
14086TIP3    H163673   6.665   1.916  14.190 -1.2514  1.3838 -0.6960
14086TIP3    H263674   6.738   2.014  14.101  0.7798 -0.1204 -0.7698
14087TIP3   OH263675   0.899   5.563  17.175  0.2736  0.3082 -0.3821
14087TIP3    H163676   0.950   5.537  17.098  1.1622 -1.3069  0.6808
14087TIP3    H263677   0.964   5.572  17.245 -0.7309 -0.5479  0.7143
14088TIP3   OH263678   0.502   3.260   5.868  0.1044 -0.8601 -0.2383
14088TIP3    H163679   0.550   3.320   5.925 -1.4234  2.2914 -2.0360
14088TIP3    H263680   0.562   3.243   5.795 -0.7323  1.6225 -1.5873
14089TIP3   OH263681   0.245   0.066   3.997 -0.1752  0.1756 -0.4946
14089TIP3    H163682   0.308   0.133   3.971  1.0958 -0.3413  1.0934
14089TIP3    H263683   0.226   0.018   3.917  1.9905 -0.0714 -0.9106
14090TIP3   OH263684   2.557   6.294  13.355 -0.5212  0.0544  0.6125
14090TIP3    H163685   2.562   6.328  13.265 -0.8012 -2.0902 -0.2836
14090TIP3    H263686   2.530   6.369  13.407 -1.8713  1.0258 -1.3473
14091TIP3   OH263687   5.683   3.518  16.629 -0.1488 -0.2048  0.1488
14091TIP3    H163688   5.727   3.494  16.710  1.0220  0.6282 -0.2066
14091TIP3    H263689   5.743   3.489  16.560  0.3160  1.7304 -0.3328
14092TIP3   OH263690   6.513   2.026  17.320 -0.0275 -0.4917 -0.0081
14092TIP3    H163691   6.489   2.119  17.327 -1.0409 -0.5787 -1.6969
14092TIP3    H263692   6.429   1.980  17.329  0.0659 -1.0667 -1.7801
14093TIP3   OH263693   5.576   0.696   5.681  0.4926 -0.2483  0.6816
14093TIP3    H163694   5.569   0.621   5.621  0.8484 -1.2884  1.8866
14093TIP3    H263695   5.496   0.747   5.664  0.2020 -0.9358 -0.1121
14094TIP3   OH263696   1.701   0.316  14.274  0.5052  0.0250  0.3856
14094TIP3    H163697   1.614   0.348  14.250  1.0768  1.6765  0.3958
14094TIP3    H263698   1.715   0.349  14.363  1.2925  0.0893  0.2440
14095TIP3   OH263699   2.451   3.933  16.852 -0.7994  0.3845  0.6573
14095TIP3    H163700   2.433   4.015  16.898 -0.2085 -0.3446  2.2638
14095TIP3    H263701   2.366   3.889  16.848 -1.2710  1.3490 -0.8730
14096TIP3   OH263702   1.724   2.967   5.175  0.6248  0.6237  0.3745
14096TIP3    H163703   1.717   3.041   5.235 -0.2473  0.1422  0.8901
14096TIP3    H263704   1.654   2.981   5.111 -1.4271 -1.1464  2.0843
14097TIP3   OH263705   6.292   1.013  14.185 -0.1865  0.2374 -0.6353
14097TIP3    H163706   6.313   1.025  14.278 -1.7774  0.4332 -0.2698
14097TIP3    H263707   6.247   1.094  14.160  0.8809  0.5132 -1.8091
14098TIP3   OH263708   3.436   4.743  16.580 -0.0797  0.2660 -0.0381
14098TIP3    H163709   3.464   4.829  16.548 -0.7738 -0.2714 -2.3069
14098TIP3    H263710   3.518   4.698  16.602  0.2821  1.5258  1.3496
14099TIP3   OH263711   2.336   5.248   3.550  0.2096 -0.0678 -0.2746
14099TIP3    H163712   2.256   5.197   3.563  0.8656 -0.8330  0.9995
14099TIP3    H263713   2.351   5.245   3.455 -1.3015  0.1636 -0.5457
14100TIP3   OH263714   0.309   6.095   1.691  0.5791  0.0174  0.0592
14100TIP3    H163715   0.301   6.026   1.624 -0.2978 -0.7846  0.9704
14100TIP3    H263716   0.241   6.158   1.668 -0.3198 -0.7015  0.6924
14101TIP3   OH263717   1.258   5.026   1.313 -0.6407  0.0327 -0.6939
14101TIP3    H163718   1.330   5.080   1.281 -0.0670 -0.3261 -0.0286
14101TIP3    H263719   1.231   5.066   1.395  1.6497 -2.1477  1.3224
14102TIP3   OH263720   5.936   1.774  12.433  0.3310  0.2393  0.3750
14102TIP3    H163721   5.866   1.825  12.392  0.5722 -0.4531 -0.9581
14102TIP3    H263722   6.016   1.813  12.399  0.5899  0.6507  1.4353
14103TIP3   OH263723   1.816   2.211  13.361  0.7460 -0.0490  0.1562
14103TIP3    H163724   1.901   2.192  13.323  0.8511  0.5162  0.1008
14103TIP3    H263725   1.807   2.307  13.355 -0.9160 -0.2522 -2.0617
14104TIP3   OH263726   4.756   1.880   5.542 -0.7454  0.4340 -0.1289
14104TIP3    H163727   4.692   1.864   5.612 -0.2021  0.4845  0.3831
14104TIP3    H263728   4.779   1.972   5.552  0.2833  0.1285  0.4371
14105TIP3   OH263729   6.239   0.429  15.354  0.3131  0.3397  0.3142
14105TIP3    H163730   6.267   0.342  15.383  2.5016  0.2461 -1.7764
14105TIP3    H263731   6.238   0.423  15.259  0.5994  2.6217  0.1180
14106TIP3   OH263732   4.568   5.445  15.026 -0.4951  0.1287 -0.5409
14106TIP3    H163733   4.650   5.483  14.995 -0.0475  0.2012  0.6662
14106TIP3    H263734   4.595   5.382  15.093 -1.3889 -0.3446 -0.6124
14107TIP3   OH263735   2.658   0.343   5.687  0.0357 -0.1818  0.6016
14107TIP3    H163736   2.724   0.274   5.690 -0.9154 -1.1622 -0.0103
14107TIP3    H263737   2.641   0.365   5.778  1.0780 -0.0231  0.7688
14108TIP3   OH263738   2.086   2.982  15.858  0.1338  0.1249  0.2355
14108TIP3    H163739   1.995   3.012  15.854  0.1942  0.5235  1.4106
14108TIP3    H263740   2.137   3.060  15.837  0.2184  0.0648  0.2193
14109TIP3   OH263741   6.411   5.605   5.227  0.2101  0.4087  0.2108
14109TIP3    H163742   6.501   5.635   5.243 -0.0759  0.1692  2.6637
14109TIP3    H263743   6.406   5.520   5.271 -1.6347  1.1091  1.4663
14110TIP3   OH263744   1.204   2.593   0.878 -0.1309 -0.1144  0.5142
14110TIP3    H163745   1.272   2.533   0.848 -1.3506 -0.6315 -1.3805
14110TIP3    H263746   1.250   2.654   0.937  2.3091  0.4511 -1.7895
14111TIP3   OH263747   4.397   2.300  15.151 -0.1817 -0.1945 -0.8339
14111TIP3    H163748   4.386   2.386  15.192  2.4707 -0.7019  1.2410
14111TIP3    H263749   4.418   2.319  15.060  2.2174  1.5843 -0.0391
14112TIP3   OH263750   6.131   5.063  13.033 -0.0736  0.5727 -0.0928
14112TIP3    H163751   6.211   5.013  13.014 -0.4020 -0.3489  0.8254
14112TIP3    H263752   6.158   5.155  13.027  0.9289  0.2772 -0.3024
14113TIP3   OH263753   5.066   5.479  16.202  0.3979 -0.2267 -0.2881
14113TIP3    H163754   5.152   5.453  16.235 -0.2039 -1.8817  0.0312
14113TIP3    H263755   5.031   5.537  16.270  0.6041 -0.8435  0.3536
14114TIP3   OH263756   5.614   2.015   0.397  0.3334  0.0583  0.2600
14114TIP3    H163757   5.559   2.034   0.473 -1.4267 -0.6681 -0.7494
14114TIP3    H263758   5.658   2.097   0.377 -1.3237  1.0386  0.4358
14115TIP3   OH263759   0.849   0.688   2.189  0.8780  0.1753  0.4745
14115TIP3    H163760   0.894   0.684   2.273  1.5671  0.6216  0.1348
14115TIP3    H263761   0.890   0.761   2.143  0.7842 -0.3005 -0.3963
14116TIP3   OH263762   0.695   2.631  13.528 -0.9638  0.6682  0.3843
14116TIP3    H163763   0.618   2.648  13.474 -0.8493 -0.1851 -0.0621
14116TIP3    H263764   0.682   2.543  13.562  0.9282 -0.5320 -1.6968
14117TIP3   OH263765   5.664   3.706  10.617 -0.2795 -0.3410  0.5232
14117TIP3    H163766   5.705   3.696  10.703  1.1525 -0.1508 -0.0990
14117TIP3    H263767   5.734   3.742  10.561 -1.1201 -0.6191 -0.7575
14118TIP3   OH263768   1.640   5.144   0.338 -0.0164 -0.2078  0.4150
14118TIP3    H163769   1.546   5.150   0.319 -0.1855  0.7843  1.4638
14118TIP3    H263770   1.674   5.231   0.321  0.8499 -0.7153 -0.5376
14119TIP3   OH263771   1.904   3.439  16.850 -0.0020  0.2323 -0.2557
14119TIP3    H163772   1.831   3.389  16.814  2.0028 -2.1262 -1.2678
14119TIP3    H263773   1.889   3.437  16.945 -0.9708 -0.6705 -0.4043
14120TIP3   OH263774   4.474   0.464   1.073 -0.1914 -0.3146  0.0855
14120TIP3    H163775   4.454   0.371   1.083  0.4405 -0.6574 -1.5148
14120TIP3    H263776   4.407   0.497   1.013  0.8883 -0.2930 -1.1649
14121TIP3   OH263777   6.563   2.650   5.078  0.2321 -0.2270 -0.1996
14121TIP3    H163778   6.536   2.607   4.997  1.5442 -0.8871 -0.3147
14121TIP3    H263779   6.482   2.686   5.115 -0.6565 -1.4347 -0.9140
14122TIP3   OH263780   2.538   2.063  15.573 -0.4322  0.4791 -0.0515
14122TIP3    H163781   2.524   2.016  15.491  0.5121 -0.1932  0.1632
14122TIP3    H263782   2.561   1.995  15.636 -0.4427  1.0714  0.6024
14123TIP3   OH263783   1.636   0.661   0.439 -0.3520 -0.3492 -0.5922
14123TIP3    H163784   1.568   0.657   0.372 -0.4695  0.9661 -0.5662
14123TIP3    H263785   1.716   0.638   0.393 -0.6445 -0.8666 -0.8538
14124TIP3   OH263786   3.750   0.270   2.552 -0.5910 -0.1881 -0.3931
14124TIP3    H163787   3.765   0.350   2.501  0.1719 -0.0797 -0.0090
14124TIP3    H263788   3.693   0.299   2.624 -0.7233 -0.1018 -0.5292
14125TIP3   OH263789   3.148   1.073  11.034  0.4000  0.2173  0.2422
14125TIP3    H163790   3.131   1.038  10.947  0.3018  3.9198 -1.4550
14125TIP3    H263791   3.236   1.110  11.028  0.0559  1.2964  1.3488
14126TIP3   OH263792   0.557   4.595   3.462 -0.1490  0.7258 -0.0462
14126TIP3    H163793   0.476   4.545   3.469 -0.2910  0.8751 -0.5469
14126TIP3    H263794   0.625   4.529   3.448 -0.0992  0.5600  0.9626
14127TIP3   OH263795   0.747   2.998   6.023  0.5011  0.3105 -0.3955
14127TIP3    H163796   0.787   3.046   5.950  1.0853  0.5584  0.0778
14127TIP3    H263797   0.787   3.036   6.101  0.2303 -0.2740  0.0323
14128TIP3   OH263798   3.564   4.098   2.245 -0.7099  0.3230  0.4168
14128TIP3    H163799   3.638   4.100   2.306 -0.9624  1.8490  0.7260
14128TIP3    H263800   3.501   4.039   2.285  0.1212 -0.5776  0.4140
14129TIP3   OH263801   3.112   3.685   5.120 -0.1914 -0.2834 -0.7545
14129TIP3    H163802   3.139   3.755   5.179 -1.2517 -1.5169  1.2901
14129TIP3    H263803   3.062   3.729   5.051  2.0094  1.3189 -1.4347
14130TIP3   OH263804   1.488   4.565   5.874 -0.0636 -0.1610 -0.4704
14130TIP3    H163805   1.503   4.520   5.790  0.8418  0.6329 -0.7610
14130TIP3    H263806   1.466   4.655   5.849 -0.4592 -0.0897  0.1287
14131TIP3   OH263807   6.101   0.784  15.359  0.3582 -0.0303  0.2474
14131TIP3    H163808   6.162   0.858  15.348  1.3067 -0.7634  0.4653
14131TIP3    H263809   6.016   0.826  15.377  0.9911  1.0022  0.9369
14132TIP3   OH263810   3.447   1.128  13.167 -0.0201  0.1053  0.1290
14132TIP3    H163811   3.402   1.052  13.130 -0.7998  0.7720 -0.3200
14132TIP3    H263812   3.540   1.108  13.157 -0.1879  0.3496 -2.4174
14133TIP3   OH263813   3.138   0.563  15.032  0.0273  0.3058  0.8489
14133TIP3    H163814   3.072   0.626  15.063 -2.1753  0.0703 -2.7009
14133TIP3    H263815   3.222   0.601  15.057 -1.3048  3.3389  1.1506
14134TIP3   OH263816   2.459   5.188   5.374 -0.2662 -0.2570 -0.4396
14134TIP3    H163817   2.553   5.207   5.372 -0.0405 -1.1528  0.4786
14134TIP3    H263818   2.453   5.103   5.418 -1.4531 -0.6227 -1.2482
14135TIP3   OH263819   5.384   1.903  10.904 -0.3053  0.4551 -0.6509
14135TIP3    H163820   5.294   1.889  10.874 -0.6265  0.9522  0.0469
14135TIP3    H263821   5.428   1.819  10.888 -0.4721  0.6660 -2.3992
14136TIP3   OH263822   5.395   5.129  10.800  0.0252  0.3743  0.5959
14136TIP3    H163823   5.316   5.109  10.850  1.5581  0.0172  3.1096
14136TIP3    H263824   5.431   5.043  10.777 -0.7165  0.5410 -1.2925
14137TIP3   OH263825   5.999   5.457  13.460 -0.3626  0.6177  0.4186
14137TIP3    H163826   5.936   5.503  13.404 -0.3393 -0.2086 -0.3267
14137TIP3    H263827   6.013   5.373  13.415 -0.9041 -0.3904  2.0442
14138TIP3   OH263828   5.843   6.589   4.018 -0.3224  0.0414  0.8515
14138TIP3    H163829   5.886   6.591   3.932  0.5622  0.3621  1.2893
14138TIP3    H263830   5.914   6.603   4.081 -0.5859 -2.2765  1.7878
14139TIP3   OH263831   5.410   1.408  15.955 -0.2892  0.1462 -0.4260
14139TIP3    H163832   5.322   1.439  15.932 -0.1048  0.5114 -0.6538
14139TIP3    H263833   5.395   1.334  16.014 -0.7986  2.0331  2.0321
14140TIP3   OH263834   2.183   4.724   6.118 -0.0803  0.0927  0.4610
14140TIP3    H163835   2.256   4.771   6.158  0.3733 -0.1943 -0.0237
14140TIP3    H263836   2.127   4.699   6.192 -0.3262  1.3737  0.7256
14141TIP3   OH263837   1.429   3.055   3.192  0.2178  0.1304 -0.3630
14141TIP3    H163838   1.356   3.022   3.139 -1.1387  0.2871  1.3400
14141TIP3    H263839   1.399   3.139   3.225  1.7638  0.8675 -0.7850
14142TIP3   OH263840   6.353   2.266   0.858  0.4649  0.0343  0.2716
14142TIP3    H163841   6.328   2.229   0.773  0.6625  1.6941 -0.5491
14142TIP3    H263842   6.433   2.219   0.881  0.1380 -0.7905 -0.2058
14143TIP3   OH263843   5.599   6.068   5.439  0.1224  0.1502  0.0818
14143TIP3    H163844   5.536   6.140   5.447 -0.8837 -0.7175  0.1629
14143TIP3    H263845   5.559   6.008   5.375  0.7324 -0.5532  0.3465
14144TIP3   OH263846   6.305   5.397   2.248  0.6952  0.2044 -0.7721
14144TIP3    H163847   6.233   5.334   2.244  0.1281  0.7918 -0.2047
14144TIP3    H263848   6.282   5.464   2.183 -0.3738  1.4792  0.8338
14145TIP3   OH263849   4.578   1.386   6.289  0.5321  0.4743  0.8618
14145TIP3    H163850   4.530   1.409   6.369 -0.1398 -1.7006  1.1533
14145TIP3    H263851   4.522   1.416   6.218  0.8289  1.8412  1.1741
14146TIP3   OH263852   2.602   2.224  12.618  0.6385  0.1185  0.1126
14146TIP3    H163853   2.625   2.272  12.698  1.2059  0.3163 -0.1633
14146TIP3    H263854   2.686   2.196  12.582  0.2790 -1.8206  0.7019
14147TIP3   OH263855   5.062   3.362  14.377 -0.4949 -0.3465 -0.0994
14147TIP3    H163856   4.976   3.319  14.382 -0.2403 -1.0802 -1.5173
14147TIP3    H263857   5.042   3.453  14.355 -0.9019 -0.6685 -1.1259
14148TIP3   OH263858   1.528   5.802   0.149 -0.4892  0.0775 -0.5949
14148TIP3    H163859   1.474   5.879   0.133  1.9317  1.5917 -2.1765
14148TIP3    H263860   1.554   5.772   0.062  1.4288 -0.3622  0.0710
14149TIP3   OH263861   1.962   6.029  16.070  0.0299 -0.3231 -0.5618
14149TIP3    H163862   1.951   5.936  16.087 -1.6701  0.1551  1.3366
14149TIP3    H263863   2.057   6.041  16.061  0.3640 -2.0342  0.3309
14150TIP3   OH263864   4.531   6.384  12.230 -0.0301 -0.0573  0.4343
14150TIP3    H163865   4.437   6.384  12.211  0.2686  1.5555 -1.4685
14150TIP3    H263866   4.562   6.300  12.197 -0.2479  0.9863 -2.8952
14151TIP3   OH263867   0.460   5.936   3.154  0.5110  1.1371 -0.0870
14151TIP3    H163868   0.424   5.995   3.088  2.4928  3.4852  0.7682
14151TIP3    H263869   0.402   5.946   3.230 -1.2496 -0.8939 -1.0464
14152TIP3   OH263870   0.974   0.459  11.089  0.2592  0.1315  0.4323
14152TIP3    H163871   0.959   0.384  11.031 -3.0666  1.2034 -0.3512
14152TIP3    H263872   1.044   0.509  11.047  0.3292 -0.9210 -0.7608
14153TIP3   OH263873   0.833   0.298  13.748  0.0993  0.1533  0.5274
14153TIP3    H163874   0.819   0.373  13.806 -1.9304  0.8651 -0.7741
14153TIP3    H263875   0.887   0.331  13.677  0.1010  0.0833  0.4961
14154TIP3   OH263876   5.390   5.872   2.686 -0.2737 -0.0405 -0.2413
14154TIP3    H163877   5.376   5.850   2.778 -0.2347 -0.8892 -0.4306
14154TIP3    H263878   5.314   5.835   2.640 -0.9658  1.4903 -0.4146
14155TIP3   OH263879   2.304   6.509   4.737 -0.2577  0.0944  0.0670
14155TIP3    H163880   2.351   6.586   4.705 -3.7301  1.3577 -2.6840
14155TIP3    H263881   2.317   6.443   4.669  1.4308 -1.3085  1.6716
14156TIP3   OH263882   3.121   2.681   1.543 -0.5529 -0.7584 -0.1356
14156TIP3    H163883   3.144   2.597   1.503 -0.7334 -0.1747 -1.4988
14156TIP3    H263884   3.125   2.744   1.472 -2.3599  0.0616  0.4312
14157TIP3   OH263885   2.798   5.971   3.044 -0.3059 -0.3615  0.3597
14157TIP3    H163886   2.788   6.065   3.031  0.2540 -0.5675 -2.0283
14157TIP3    H263887   2.883   5.961   3.087 -0.2655  0.1889  0.4173
14158TIP3   OH263888   6.331   5.200  14.372  0.1509 -0.2783  0.1374
14158TIP3    H163889   6.262   5.148  14.414 -0.2522 -0.1892 -0.4039
14158TIP3    H263890   6.344   5.274  14.431 -0.9139  0.2209 -0.2318
14159TIP3   OH263891   3.809   3.690  12.209  0.1693  0.2466 -0.2785
14159TIP3    H163892   3.902   3.671  12.220  0.3015  0.0687 -1.5103
14159TIP3    H263893   3.769   3.604  12.193  0.3460  0.6047 -3.1407
14160TIP3   OH263894   4.702   4.047  15.570 -0.0219  0.0049 -0.1056
14160TIP3    H163895   4.621   4.085  15.536  0.2124 -0.4419 -1.1870
14160TIP3    H263896   4.691   4.049  15.665 -0.7066  1.2193 -0.2011
14161TIP3   OH263897   5.612   6.084   1.460  0.3248  0.2746  0.6856
14161TIP3    H163898   5.692   6.109   1.505  0.8476 -0.8275  0.4227
14161TIP3    H263899   5.547   6.149   1.486  0.8102  0.1043  2.3981
14162TIP3   OH263900   2.703   3.814   0.662  0.1040 -0.0931  0.4827
14162TIP3    H163901   2.683   3.721   0.660  1.5818 -0.5354  2.8645
14162TIP3    H263902   2.618   3.857   0.660 -0.5831 -1.3434 -2.2960
14163TIP3   OH263903   4.226   3.609   4.226 -0.0898 -0.3377 -0.4337
14163TIP3    H163904   4.191   3.520   4.229  2.5994 -1.4932 -0.3253
14163TIP3    H263905   4.249   3.623   4.134 -0.5879  0.3048 -0.4667
14164TIP3   OH263906   6.636   3.683  11.687  0.1398  0.1129  0.4588
14164TIP3    H163907   6.592   3.753  11.735  0.3923  0.1739  0.5999
14164TIP3    H263908   6.565   3.623  11.662 -0.0000  0.1108  0.8593
14165TIP3   OH263909   6.600   3.860   5.525  0.3896 -0.8342  0.1109
14165TIP3    H163910   6.601   3.874   5.619 -2.4423 -0.4394  0.1768
14165TIP3    H263911   6.692   3.859   5.499  1.2087 -0.1491  2.7363
14166TIP3   OH263912   0.663   5.646  17.012 -0.0532  0.3453 -0.2956
14166TIP3    H163913   0.665   5.735  16.977 -0.2336 -0.6182 -3.0643
14166TIP3    H263914   0.754   5.628  17.037 -0.3436  1.8929  2.1832
14167TIP3   OH263915   5.741   1.723  14.086 -0.3355  0.2956 -0.2595
14167TIP3    H163916   5.832   1.743  14.109  0.0229  0.3426 -1.5940
14167TIP3    H263917   5.690   1.748  14.162  0.6139  1.7894 -0.0836
14168TIP3   OH263918   4.569   0.139  14.669 -0.3335 -0.0184  0.2931
14168TIP3    H163919   4.490   0.180  14.703 -1.3020 -1.6090  0.0497
14168TIP3    H263920   4.572   0.164  14.577  0.8038  2.0303  0.8306
14169TIP3   OH263921   6.088   3.355   0.202 -0.1675 -0.2845 -0.1670
14169TIP3    H163922   6.052   3.414   0.136  2.1182  0.4509 -0.8355
14169TIP3    H263923   6.037   3.374   0.281  0.9371  3.2724 -0.1140
14170TIP3   OH263924   4.379   1.259  14.995 -0.3664 -0.1343 -0.4332
14170TIP3    H163925   4.359   1.166  15.008 -0.3471 -0.5878 -3.0187
14170TIP3    H263926   4.464   1.259  14.949  0.5099  1.2761  1.0876
14171TIP3   OH263927   6.731   2.145   1.538 -0.1934 -0.0779  0.0552
14171TIP3    H163928   6.740   2.230   1.582 -0.8468 -0.4192  0.8680
14171TIP3    H263929   6.671   2.163   1.465  2.0282  0.8217 -1.6783
14172TIP3   OH263930   6.498   5.929   3.004  0.6167  0.4777 -0.3541
14172TIP3    H163931   6.448   5.863   2.956  1.5603  0.4181 -1.2802
14172TIP3    H263932   6.457   5.931   3.091 -0.2623 -0.3742 -0.7298
14173TIP3   OH263933   2.709   3.744  12.410 -0.1551 -0.0776  0.3069
14173TIP3    H163934   2.730   3.651  12.417 -3.3120 -1.0260 -1.2815
14173TIP3    H263935   2.742   3.770  12.323  3.9291  1.4332  2.0105
14174TIP3   OH263936   5.163   6.486   4.637  0.0146  0.5212  0.0533
14174TIP3    H163937   5.221   6.542   4.585  0.8675  1.6033  2.0640
14174TIP3    H263938   5.075   6.517   4.616  0.4014  1.6380  0.0443
14175TIP3   OH263939   1.152   5.459   2.156  0.0879 -0.0540  0.1275
14175TIP3    H163940   1.126   5.455   2.248  0.6171 -0.7740  0.2591
14175TIP3    H263941   1.077   5.422   2.109  0.1180 -0.3962  0.3407
14176TIP3   OH263942   1.365   0.383  11.432  0.4533 -0.2098  0.4051
14176TIP3    H163943   1.289   0.421  11.387 -0.1694 -2.4915 -0.6326
14176TIP3    H263944   1.437   0.395  11.370 -0.2677 -2.7661 -1.0914
14177TIP3   OH263945   1.293   4.102  10.930  0.2649  0.4156 -0.3450
14177TIP3    H163946   1.334   4.154  10.861 -0.1929  0.4976 -0.5562
14177TIP3    H263947   1.286   4.014  10.892  4.4087 -0.8511  1.2510
14178TIP3   OH263948   0.258   5.700   1.858  0.2484 -0.3042 -0.3009
14178TIP3    H163949   0.321   5.703   1.930  1.3648  0.3652 -1.2767
14178TIP3    H263950   0.205   5.778   1.869  0.9939  0.2710 -0.6917
14179TIP3   OH263951   0.642   4.993   4.061  0.1579  0.5457 -0.9828
14179TIP3    H163952   0.654   5.007   4.155 -0.5808  0.9131 -0.9347
14179TIP3    H263953   0.568   5.049   4.038 -1.4680 -1.5857 -1.2321
14180TIP3   OH263954   0.830   4.479   1.647 -0.1139  0.0182  0.0816
14180TIP3    H163955   0.819   4.564   1.605 -0.8909 -0.6035 -1.0501
14180TIP3    H263956   0.904   4.439   1.601  1.0312  0.5157  1.4102
14181TIP3   OH263957   6.438   4.049   5.397  0.0433  0.1927  0.0245
14181TIP3    H163958   6.500   4.081   5.332 -0.2580  0.7832  0.0204
14181TIP3    H263959   6.478   3.969   5.432  1.3030  1.0971  0.7534
14182TIP3   OH263960   6.347   0.523  16.622 -0.1577 -0.1026  0.2343
14182TIP3    H163961   6.427   0.573  16.634 -0.2336  0.3987 -1.1674
14182TIP3    H263962   6.278   0.579  16.657 -0.2033  0.6580 -1.0357
14183TIP3   OH263963   0.977   0.079  16.216 -0.3403 -0.0820 -0.5156
14183TIP3    H163964   1.001  -0.006  16.182  0.5934  0.1342 -0.4184
14183TIP3    H263965   0.976   0.137  16.140 -0.4487 -0.0647 -0.5031
14184TIP3   OH263966   5.908   4.966  14.644  0.4497  0.3404  0.2138
14184TIP3    H163967   5.880   4.886  14.688  0.5764  0.5024  0.5902
14184TIP3    H263968   5.860   4.965  14.561  0.3149 -0.0348  0.2920
14185TIP3   OH263969   1.593   4.217  11.465 -0.2123 -0.2324 -0.2694
14185TIP3    H163970   1.678   4.174  11.456 -0.7867 -1.4260 -0.2077
14185TIP3    H263971   1.560   4.189  11.550 -0.9292 -0.2591 -0.5476
14186TIP3   OH263972   6.376   2.425   1.387 -0.7404 -0.1791 -0.6073
14186TIP3    H163973   6.302   2.364   1.388 -2.4135  1.7058  0.7044
14186TIP3    H263974   6.363   2.477   1.308 -0.9678  0.2777 -0.2782
14187TIP3   OH263975   3.392   5.264  11.459  0.8507  0.3164 -0.1535
14187TIP3    H163976   3.479   5.293  11.485  0.6242  0.6406  0.2537
14187TIP3    H263977   3.382   5.297  11.369  2.0832 -1.7966 -1.1517
14188TIP3   OH263978   6.489   4.317   2.872  0.2132 -0.2918 -0.2887
14188TIP3    H163979   6.528   4.306   2.959  1.2276 -0.5099 -0.7616
14188TIP3    H263980   6.563   4.337   2.815 -0.6596  2.0517 -0.7413
14189TIP3   OH263981   5.497   5.146   4.627  0.0581 -0.0565  0.3842
14189TIP3    H163982   5.428   5.213   4.632  0.5378  0.4248  0.6921
14189TIP3    H263983   5.464   5.074   4.681  1.0425  1.3332  3.0081
14190TIP3   OH263984   0.404   5.785   6.181 -1.1165 -0.7884 -0.2186
14190TIP3    H163985   0.442   5.841   6.249 -1.0983 -0.1577 -0.7405
14190TIP3    H263986   0.315   5.819   6.169 -0.7604 -0.1902 -1.2696
14191TIP3   OH263987   3.205   4.906   0.613 -0.0031  0.2362 -0.3132
14191TIP3    H163988   3.116   4.920   0.645  0.6193  1.1326  1.1181
14191TIP3    H263989   3.194   4.860   0.529 -1.7541 -0.9552  0.5153
14192TIP3   OH263990   6.545   1.931  13.677 -0.5306  0.2083 -0.3301
14192TIP3    H163991   6.457   1.913  13.644 -0.1020  0.9381 -1.9228
14192TIP3    H263992   6.562   1.859  13.738 -1.3061 -1.2932 -1.8056
14193TIP3   OH263993   4.972   1.242   2.008 -0.0508  0.0392  0.3878
14193TIP3    H163994   4.929   1.234   1.923  0.2950 -1.1103  0.3071
14193TIP3    H263995   5.057   1.200   1.997  0.2787  0.4856  1.1123
14194TIP3   OH263996   6.235   2.493   3.364 -0.1262 -0.4399 -0.2171
14194TIP3    H163997   6.154   2.454   3.395 -0.3055  0.5676  0.6424
14194TIP3    H263998   6.217   2.518   3.274 -0.3774 -1.2806 -0.4078
14195TIP3   OH263999   3.422   5.471  17.220  0.4126  0.6280  0.7292
14195TIP3    H164000   3.512   5.450  17.195  0.8225  1.0097  1.8323
14195TIP3    H264001   3.377   5.487  17.137  1.2260 -0.0718  0.1352
14196TIP3   OH264002   2.770   1.506   3.667  0.1036 -0.0248  0.1083
14196TIP3    H164003   2.850   1.504   3.718 -0.0657 -2.0254  0.4132
14196TIP3    H264004   2.715   1.438   3.707 -1.1309  0.2685 -1.0093
14197TIP3   OH264005   5.003   3.908  14.476 -0.0523 -0.4435  0.1822
14197TIP3    H164006   5.084   3.909  14.426 -0.1134 -0.0972  0.0815
14197TIP3    H264007   5.013   3.980  14.539 -0.5772  0.0843 -0.3219
14198TIP3   OH264008   5.706   0.929  11.868  0.0667 -0.1878  0.4509
14198TIP3    H164009   5.671   0.954  11.783  1.3698  0.6972  0.1480
14198TIP3    H264010   5.762   0.854  11.851 -0.9755 -1.0609  0.8008
14199TIP3   OH264011   1.897   1.000   4.421  0.4202  0.3255  0.3148
14199TIP3    H164012   1.863   1.085   4.393  2.4554  0.6318 -1.5001
14199TIP3    H264013   1.863   0.938   4.356  1.9356  0.3942 -0.5921
14200TIP3   OH264014   6.178   1.693  13.013  0.4639 -0.0814 -0.4135
14200TIP3    H164015   6.252   1.750  13.032  0.1116  0.2350  0.0105
14200TIP3    H264016   6.124   1.742  12.952  0.2777 -0.0508 -0.2268
14201TIP3   OH264017   1.701   2.687   5.922  0.4773  0.7483  0.1971
14201TIP3    H164018   1.679   2.693   6.015 -2.8635  0.7092 -0.4601
14201TIP3    H264019   1.716   2.594   5.906 -1.9606  0.2915  0.2116
14202TIP3   OH264020   6.709   3.335  12.165 -0.2021  0.3287  0.5601
14202TIP3    H164021   6.678   3.391  12.094  0.6767 -0.3531 -0.4054
14202TIP3    H264022   6.714   3.247  12.126 -0.7838 -0.2892  1.7968
14203TIP3   OH264023   2.390   3.736  15.500  0.7112  0.7681 -0.0926
14203TIP3    H164024   2.399   3.717  15.593  0.2677 -1.2166 -0.4066
14203TIP3    H264025   2.338   3.817  15.497 -0.0380  0.3813  1.3697
14204TIP3   OH264026   6.040   2.866   0.787  0.2921 -0.5831  0.4633
14204TIP3    H164027   6.036   2.927   0.714 -1.4981 -1.3475 -0.1225
14204TIP3    H264028   5.961   2.882   0.838 -0.3395 -2.5108  0.1811
14205TIP3   OH264029   1.931   3.158   3.698 -0.0630  0.5214  0.5479
14205TIP3    H164030   1.895   3.228   3.753 -0.3345  0.3895  0.5443
14205TIP3    H264031   1.859   3.095   3.691  0.5222 -0.2985  1.4819
14206TIP3   OH264032   0.829   2.156   0.033 -0.0577  0.3493  0.1401
14206TIP3    H164033   0.752   2.212   0.047 -0.1383  0.0432  0.9797
14206TIP3    H264034   0.845   2.116   0.119 -0.5581 -1.6218 -0.6373
14207TIP3   OH264035   0.939   1.251   5.624 -0.4167 -0.0327  0.1435
14207TIP3    H164036   0.907   1.339   5.645 -1.1341 -0.0535 -0.7853
14207TIP3    H264037   1.026   1.265   5.587 -0.5064  0.2888  0.0510
14208TIP3   OH264038   5.211   4.995  14.952  0.0943  0.3369  0.6558
14208TIP3    H164039   5.263   4.930  14.999  0.8231 -0.3595 -1.0196
14208TIP3    H264040   5.216   5.074  15.006  2.3270  0.0901  0.8983
14209TIP3   OH264041   2.651   6.085  11.910  0.7668  0.2029  0.4511
14209TIP3    H164042   2.596   6.155  11.945  0.8221  0.3953  0.1544
14209TIP3    H264043   2.640   6.013  11.972 -0.4619 -0.0482 -0.0139
14210TIP3   OH264044   1.638   3.360   1.385  0.6483  0.6019 -0.6631
14210TIP3    H164045   1.605   3.439   1.343 -1.2400 -1.0345 -2.5086
14210TIP3    H264046   1.703   3.326   1.323  1.2871  0.5680  0.0092
14211TIP3   OH264047   6.583   6.669   1.283  0.4729 -0.7344  0.2503
14211TIP3    H164048   6.514   6.710   1.232  2.7093 -1.1516 -3.5020
14211TIP3    H264049   6.567   6.575   1.274  1.1747 -0.8218 -0.1840
14212TIP3   OH264050   1.800   4.222   5.228 -0.4359 -0.5842 -0.5385
14212TIP3    H164051   1.776   4.132   5.252 -1.0905 -0.7232 -1.6196
14212TIP3    H264052   1.874   4.211   5.168 -2.1438 -0.6147 -2.7684
14213TIP3   OH264053   3.419   4.683  13.601  0.1222 -0.2085  0.0111
14213TIP3    H164054   3.495   4.667  13.544  0.9169 -1.7674  1.4191
14213TIP3    H264055   3.391   4.771  13.578  0.1683 -0.8696 -3.0234
14214TIP3   OH264056   5.327   3.666  17.112 -0.2269 -0.0360 -0.4041
14214TIP3    H164057   5.318   3.580  17.072  3.6714 -0.4834 -0.6908
14214TIP3    H264058   5.337   3.649  17.206 -0.0712  0.1432 -0.3858
14215TIP3   OH264059   4.300   3.418  10.840  0.1225  0.4878 -0.0614
14215TIP3    H164060   4.338   3.331  10.843 -0.5174  0.1583 -1.1483
14215TIP3    H264061   4.370   3.473  10.805  0.0939  0.1653 -0.6275
14216TIP3   OH264062   3.078   5.816   4.989  0.8301  1.0877 -0.1016
14216TIP3    H164063   3.167   5.840   5.013  0.7577  0.0199  1.4348
14216TIP3    H264064   3.023   5.881   5.032  0.8401  1.2706 -0.3671
14217TIP3   OH264065   0.103   6.151   0.927  0.2480 -0.0129 -0.5267
14217TIP3    H164066   0.063   6.121   1.008 -1.1530  1.9530 -0.4219
14217TIP3    H264067   0.043   6.121   0.858  1.8744 -2.4529 -1.0246
14218TIP3   OH264068   3.679   5.630  16.933 -0.0803 -0.2007  0.1077
14218TIP3    H164069   3.593   5.669  16.952  0.2363  0.6082 -0.0502
14218TIP3    H264070   3.739   5.705  16.933  0.8476 -0.9100  1.4696
14219TIP3   OH264071   5.148   5.560  12.669  0.2873 -0.0838 -0.3600
14219TIP3    H164072   5.106   5.511  12.598 -1.5621  0.5153  0.2626
14219TIP3    H264073   5.149   5.651  12.638  2.4310 -0.2546 -0.9285
14220TIP3   OH264074   6.476   4.441   3.178  0.7521 -0.4361  0.1410
14220TIP3    H164075   6.495   4.515   3.120 -0.1382 -0.5316 -0.2967
14220TIP3    H264076   6.398   4.469   3.226  0.5963 -0.9634  0.1960
14221TIP3   OH264077   4.903   5.280  12.277  0.1698  0.3515 -0.3279
14221TIP3    H164078   4.836   5.211  12.280 -1.2138  1.6651  2.0629
14221TIP3    H264079   4.853   5.361  12.279  1.8163  1.3874  1.1017
14222TIP3   OH264080   4.545   3.582   4.767  0.0403 -0.2917  0.5799
14222TIP3    H164081   4.614   3.548   4.711  0.0466 -0.7079  0.8409
14222TIP3    H264082   4.585   3.589   4.854 -0.0131  0.2118  0.5718
14223TIP3   OH264083   1.490   4.036  13.751  0.6139 -0.1465  0.0467
14223TIP3    H164084   1.513   3.946  13.726 -1.3931 -0.9144  0.7832
14223TIP3    H264085   1.455   4.075  13.671 -0.9482 -0.9113  0.3164
14224TIP3   OH264086   1.751   4.571   1.946 -0.4455 -0.6543  0.0418
14224TIP3    H164087   1.739   4.659   1.909 -0.3450 -0.6597 -0.0046
14224TIP3    H264088   1.675   4.522   1.917 -1.6007 -0.0015  1.7960
14225TIP3   OH264089   6.262   0.019   1.776 -0.2441 -0.2831 -0.0622
14225TIP3    H164090   6.226   0.025   1.688  0.1021 -0.1676 -0.1965
14225TIP3    H264091   6.185   0.020   1.833 -0.4188  0.9694 -0.2977
14226TIP3   OH264092   4.495   6.246  10.983 -0.4472 -0.3120 -0.2051
14226TIP3    H164093   4.408   6.284  10.968 -0.4153 -0.1178  0.1094
14226TIP3    H264094   4.553   6.294  10.924 -0.2616  0.6946  0.7657
14227TIP3   OH264095   2.550   5.725   0.528  0.0561 -0.4559  0.4822
14227TIP3    H164096   2.559   5.656   0.462 -0.1175 -0.9596  0.9829
14227TIP3    H264097   2.595   5.800   0.489  0.9652 -1.0889  0.2750
14228TIP3   OH264098   0.648   0.340   4.766  0.3528 -0.1311 -0.2600
14228TIP3    H164099   0.700   0.286   4.825 -0.5817 -0.2055  0.5064
14228TIP3    H264100   0.607   0.405   4.822  0.2407  0.4293 -0.9679
14229TIP3   OH264101   2.943   3.490   4.032  0.3671 -0.1445  0.2429
14229TIP3    H164102   2.860   3.531   4.004 -0.0572 -0.2591  1.3014
14229TIP3    H264103   2.948   3.410   3.979 -1.0923 -1.0396  1.3740
14230TIP3   OH264104   6.735   0.498  14.494  0.5277 -0.0850  0.1137
14230TIP3    H164105   6.688   0.576  14.464  0.3270  0.1536  1.0339
14230TIP3    H264106   6.827   0.518  14.479  0.3693 -1.1143 -3.0728
14231TIP3   OH264107   1.698   1.630  13.151 -0.0600 -0.1349 -0.0155
14231TIP3    H164108   1.733   1.688  13.218  0.4270  0.9810 -1.2090
14231TIP3    H264109   1.649   1.564  13.201  0.3005  0.6379  1.4301
14232TIP3   OH264110   3.655   0.665  15.487 -0.6830 -0.7747  0.1768
14232TIP3    H164111   3.609   0.633  15.564  1.6725 -1.6516  1.3257
14232TIP3    H264112   3.709   0.591  15.458 -0.2871  0.0564 -1.3443
14233TIP3   OH264113   1.946   2.006   3.066  0.4786  0.6907 -0.2041
14233TIP3    H164114   2.011   2.039   3.004  0.6863  0.3491 -0.1745
14233TIP3    H264115   1.987   2.018   3.152  1.0778 -0.7443 -0.2610
14234TIP3   OH264116   0.857   3.732   0.169 -0.0822  0.2400  0.3077
14234TIP3    H164117   0.941   3.695   0.198 -0.1119 -0.2913 -0.2493
14234TIP3    H264118   0.816   3.765   0.249  1.1292  1.4916  0.4436
14235TIP3   OH264119   2.278   0.134   5.544 -0.8818 -0.3502 -0.0734
14235TIP3    H164120   2.315   0.080   5.474 -2.3532  1.2075 -2.1963
14235TIP3    H264121   2.199   0.173   5.505 -1.3095  1.2574  2.1932
14236TIP3   OH264122   2.053   4.364  16.089 -0.1528 -0.1767 -0.8414
14236TIP3    H164123   1.993   4.419  16.039 -1.0457 -0.5980 -0.2627
14236TIP3    H264124   1.998   4.322  16.155  0.7584 -0.6819 -0.3774
14237TIP3   OH264125   5.332   5.246  16.626  0.0259 -0.4528  0.2321
14237TIP3    H164126   5.239   5.224  16.618 -0.6548  2.0857  0.2424
14237TIP3    H264127   5.376   5.192  16.559 -1.1891 -2.7517  1.1673
14238TIP3   OH264128   0.889   6.427   2.710  0.1080  0.2714 -0.2292
14238TIP3    H164129   0.797   6.401   2.704  0.6979 -1.7093 -2.7256
14238TIP3    H264130   0.921   6.383   2.789 -1.5955  3.3205  2.3921
14239TIP3   OH264131   0.230   1.538   5.371  0.3453  0.3140 -0.1604
14239TIP3    H164132   0.276   1.531   5.455  1.0139 -1.9951 -0.6608
14239TIP3    H264133   0.144   1.499   5.386  1.1560 -1.9324 -0.9632
14240TIP3   OH264134   4.113   0.905   2.527 -0.1824  0.2151  0.3682
14240TIP3    H164135   4.082   0.996   2.523 -0.4990  0.1461  1.1043
14240TIP3    H264136   4.118   0.886   2.621 -3.5477 -1.6869  0.3217
14241TIP3   OH264137   2.755   0.729  17.033  0.6498 -0.4156  0.2236
14241TIP3    H164138   2.705   0.772  17.103 -0.6161 -2.4867  0.6891
14241TIP3    H264139   2.703   0.745  16.954  0.6909 -0.2666  0.2273
14242TIP3   OH264140   4.880   3.076   2.606 -0.2030 -0.3301 -0.5632
14242TIP3    H164141   4.909   3.040   2.522 -2.2306 -0.7794 -1.1505
14242TIP3    H264142   4.864   3.168   2.589  2.9177  0.4875  0.3740
14243TIP3   OH264143   5.631   3.337   2.848  0.5316  0.0703  0.4430
14243TIP3    H164144   5.648   3.347   2.941  0.4798  1.7902  0.3141
14243TIP3    H264145   5.562   3.401   2.829 -0.5130 -1.2628 -0.5154
14244TIP3   OH264146   6.023   3.701   2.210  0.2282  0.2925 -0.2337
14244TIP3    H164147   5.995   3.644   2.281  0.1849  0.8372  0.1967
14244TIP3    H264148   6.114   3.678   2.195  0.5880  0.9690  0.8031
14245TIP3   OH264149   5.816   6.522  16.900  0.2167  0.4898 -0.0554
14245TIP3    H164150   5.911   6.523  16.912  0.0696 -0.3689  1.3844
14245TIP3    H264151   5.783   6.583  16.965 -0.3248 -0.7703  0.8902
14246TIP3   OH264152   3.168   6.265  13.237  0.8052  0.4345 -0.7044
14246TIP3    H164153   3.121   6.303  13.312 -0.4455  0.1780 -1.3479
14246TIP3    H264154   3.252   6.236  13.274 -0.6522 -1.7635  1.1306
14247TIP3   OH264155   2.242   1.480   5.394  0.1622 -0.0510 -0.5597
14247TIP3    H164156   2.268   1.527   5.315  0.6322 -0.9814 -0.9758
14247TIP3    H264157   2.190   1.543   5.444 -1.5792  0.0392 -2.3914
14248TIP3   OH264158   0.803   0.103   1.823  0.3953 -0.0984  0.1405
14248TIP3    H164159   0.714   0.102   1.789  1.1423 -0.3732 -1.9240
14248TIP3    H264160   0.841   0.184   1.789  0.9694 -0.0117  0.9504
14249TIP3   OH264161   0.233   2.707  12.772  0.7578  0.4119  0.5747
14249TIP3    H164162   0.281   2.785  12.743  2.0570 -0.0919  1.2782
14249TIP3    H264163   0.196   2.670  12.692 -0.7422  2.2734  0.3391
14250TIP3   OH264164   0.928   3.012   3.062 -0.2899  0.6026 -0.8799
14250TIP3    H164165   0.846   2.980   3.101 -1.4295  1.6623 -2.2722
14250TIP3    H264166   0.936   2.964   2.980 -0.3622  1.6069 -1.4895
14251TIP3   OH264167   2.800   5.651   2.030  0.2842  0.0045  0.1348
14251TIP3    H164168   2.795   5.705   1.951 -0.6722 -0.5743 -0.2158
14251TIP3    H264169   2.713   5.613   2.039  0.2205  0.4523  1.7551
14252TIP3   OH264170   3.205   4.472   5.121 -0.0172 -0.1828 -0.1113
14252TIP3    H164171   3.182   4.530   5.048 -2.1081 -1.9498 -0.9519
14252TIP3    H264172   3.256   4.402   5.081  0.9302  0.0722  0.5981
14253TIP3   OH264173   2.060   4.670  14.863  0.3660 -0.6943  0.0569
14253TIP3    H164174   1.972   4.688  14.895  1.5350  2.5730  1.9331
14253TIP3    H264175   2.106   4.634  14.939  1.6269  1.5433  0.4486
14254TIP3   OH264176   3.444   6.542  11.937  0.3466 -0.3064 -0.0173
14254TIP3    H164177   3.502   6.468  11.921  0.2218 -0.3650 -0.2076
14254TIP3    H264178   3.363   6.502  11.970  0.4916 -0.2092  0.4670
14255TIP3   OH264179   4.247   4.279   6.832  0.0424 -0.0256 -0.1351
14255TIP3    H164180   4.168   4.225   6.835  0.3607 -0.4494  1.7209
14255TIP3    H264181   4.215   4.366   6.808 -0.5633 -0.8260 -2.4846
14256TIP3   OH264182   2.248   0.384   6.527 -0.5698 -0.0150 -0.3354
14256TIP3    H164183   2.221   0.419   6.442 -0.6085 -0.1100 -0.3624
14256TIP3    H264184   2.343   0.391   6.526 -0.6027  0.5448 -0.1430
14257TIP3   OH264185   6.745   1.302  16.528 -0.2654 -0.1691 -0.0190
14257TIP3    H164186   6.795   1.362  16.584 -0.1902  0.8942 -1.1854
14257TIP3    H264187   6.666   1.350  16.505 -1.3015 -1.3898  0.8307
14258TIP3   OH264188   0.862   2.994   5.774  0.3014 -0.2397 -0.3634
14258TIP3    H164189   0.898   3.062   5.718 -0.3408  2.3242  2.1056
14258TIP3    H264190   0.776   2.974   5.737 -0.0427  1.2755 -0.4474
14259TIP3   OH264191   3.666   0.406   4.785  0.1753  0.4907  0.3289
14259TIP3    H164192   3.615   0.339   4.740 -1.5255  2.0690 -0.2526
14259TIP3    H264193   3.603   0.448   4.844  1.4647  0.8708  1.4883
14260TIP3   OH264194   2.908   6.077  13.287  0.4185  0.8341 -0.1678
14260TIP3    H164195   3.001   6.073  13.262  0.2754  1.3556 -0.7884
14260TIP3    H264196   2.868   6.135  13.223 -1.0808 -2.2225 -2.2744
14261TIP3   OH264197   0.666   3.878   2.787  0.0210 -0.1845  0.0238
14261TIP3    H164198   0.592   3.877   2.727  0.5259 -1.4330 -0.6207
14261TIP3    H264199   0.738   3.839   2.736  0.8296  0.0112  0.9900
14262TIP3   OH264200   0.332   4.861  16.720  0.4995  0.3953 -0.2046
14262TIP3    H164201   0.262   4.852  16.784 -0.4272 -0.0859 -1.2548
14262TIP3    H264202   0.412   4.871  16.772  0.0895 -2.1394  1.0459
14263TIP3   OH264203   5.633   5.426   4.862  0.4011 -0.5999 -0.4560
14263TIP3    H164204   5.675   5.350   4.822  2.2796  0.1349  0.0364
14263TIP3    H264205   5.556   5.390   4.906  2.3277 -2.6309  1.5544
14264TIP3   OH264206   3.789   1.340  10.982  0.2752  0.0583  0.0279
14264TIP3    H164207   3.795   1.435  10.971  1.2531  0.0105  0.0003
14264TIP3    H264208   3.713   1.314  10.931 -1.3053  1.0705  1.7240
14265TIP3   OH264209   0.777   6.281   6.130  0.1913 -0.0939 -0.3188
14265TIP3    H164210   0.744   6.365   6.161 -1.5416 -0.1266 -1.9217
14265TIP3    H264211   0.736   6.217   6.187 -0.4204  0.0254 -0.6180
14266TIP3   OH264212   3.727   6.541  15.783  0.5339 -0.4813  0.2971
14266TIP3    H164213   3.655   6.479  15.775  0.3331 -0.3245  0.7983
14266TIP3    H264214   3.779   6.508  15.857  0.5415 -0.1726  0.4343
14267TIP3   OH264215   6.616   1.171   3.711 -0.1145 -0.5331  0.1529
14267TIP3    H164216   6.577   1.249   3.749 -0.7582 -0.4703 -0.6185
14267TIP3    H264217   6.578   1.098   3.760 -2.9316 -0.6258 -1.9451
14268TIP3   OH264218   2.316   4.242   2.649 -0.3934 -0.0067  0.9926
14268TIP3    H164219   2.363   4.320   2.678  1.1901 -1.1021  1.5207
14268TIP3    H264220   2.379   4.171   2.659 -0.3282 -0.8199 -3.3123
14269TIP3   OH264221   3.345   0.263   4.711  0.3526 -0.7463 -0.4621
14269TIP3    H164222   3.276   0.237   4.650  0.2315 -2.3742  0.3118
14269TIP3    H264223   3.299   0.285   4.792  0.5564  0.8440 -0.7548
14270TIP3   OH264224   0.179   6.523  12.060 -0.4061 -0.1573  0.9841
14270TIP3    H164225   0.213   6.554  12.144  2.4440  0.2603 -0.1875
14270TIP3    H264226   0.192   6.597  12.000  1.8533 -1.7820 -0.7358
14271TIP3   OH264227   4.498   3.845   3.350 -0.2009  0.0197 -0.0180
14271TIP3    H164228   4.487   3.875   3.260 -0.2933 -2.0570 -0.7712
14271TIP3    H264229   4.415   3.804   3.372 -0.0639  0.2182  0.8934
14272TIP3   OH264230   4.431   2.504   5.752  0.0183 -0.4931 -0.0542
14272TIP3    H164231   4.492   2.439   5.717  1.7790  0.8351  0.3939
14272TIP3    H264232   4.460   2.517   5.842 -0.2810  0.8979 -0.1409
14273TIP3   OH264233   0.515   4.512  15.135  0.2286 -0.3446 -0.6496
14273TIP3    H164234   0.600   4.546  15.162  0.5361 -0.6390 -1.2250
14273TIP3    H264235   0.533   4.423  15.105 -0.1723 -0.1933 -1.3754
14274TIP3   OH264236   2.898   3.758   4.614  0.5830 -0.0677  0.3115
14274TIP3    H164237   2.939   3.762   4.528 -1.3208 -0.7485 -0.6951
14274TIP3    H264238   2.873   3.667   4.625 -2.5197  0.6006 -0.1545
14275TIP3   OH264239   2.847   3.874   2.830  0.2338  0.0710  0.0025
14275TIP3    H164240   2.934   3.913   2.839  0.5643 -0.8635  1.2106
14275TIP3    H264241   2.849   3.832   2.744  1.7143 -1.5748  0.7769
14276TIP3   OH264242   2.125   2.600  11.453  0.0860  0.1420 -0.2641
14276TIP3    H164243   2.057   2.587  11.520  1.9540 -1.0378  1.5127
14276TIP3    H264244   2.118   2.522  11.397 -2.5338  1.8590 -2.5993
14277TIP3   OH264245   4.142   2.850   2.414 -0.7779 -0.0192  0.3355
14277TIP3    H164246   4.065   2.796   2.397 -0.9832  0.2646  0.3519
14277TIP3    H264247   4.108   2.926   2.463 -0.5201  0.2008  0.1766
14278TIP3   OH264248   4.265   3.211   0.764  0.2856 -0.0563 -0.1008
14278TIP3    H164249   4.278   3.254   0.849  1.5702 -1.1372  0.2714
14278TIP3    H264250   4.231   3.281   0.708  1.6108  1.2807  0.6843
14279TIP3   OH264251   1.576   2.253  15.924 -0.0175  0.5219 -0.1118
14279TIP3    H164252   1.633   2.178  15.905 -0.5337  0.1081 -0.0247
14279TIP3    H264253   1.508   2.218  15.982 -0.3055  1.0400 -0.1303
14280TIP3   OH264254   0.276   5.127   2.608  0.2971 -0.1145 -0.4564
14280TIP3    H164255   0.189   5.088   2.620  1.4287 -2.4077  0.8765
14280TIP3    H264256   0.310   5.137   2.697  1.0679  1.6631 -0.9021
14281TIP3   OH264257   0.955   1.495  15.189  0.1978  0.1071 -0.0883
14281TIP3    H164258   0.906   1.477  15.269  2.2584 -1.9810  0.8144
14281TIP3    H264259   0.908   1.567  15.148 -2.1891 -0.1973  1.8880
14282TIP3   OH264260   5.782   3.923   5.111 -0.2875  0.3415  0.2064
14282TIP3    H164261   5.730   3.853   5.151 -0.5037  0.6034  0.3898
14282TIP3    H264262   5.853   3.939   5.173 -0.1460  0.1762  0.0883
14283TIP3   OH264263   1.004   4.065  14.971 -0.3446  0.4189 -0.2728
14283TIP3    H164264   1.078   4.004  14.972  1.3428  2.3696  0.0330
14283TIP3    H264265   1.040   4.145  14.933 -1.7938  2.0141  1.5438
14284TIP3   OH264266   1.589   2.185   4.473 -0.5559 -0.9199 -0.3525
14284TIP3    H164267   1.556   2.232   4.550 -1.4872 -0.1613 -1.1911
14284TIP3    H264268   1.536   2.106   4.468 -1.2134 -0.4624 -0.7966
14285TIP3   OH264269   5.817   4.384   4.659 -0.4513  0.3701  0.1617
14285TIP3    H164270   5.860   4.336   4.587 -0.4310  0.8042 -0.1190
14285TIP3    H264271   5.738   4.420   4.619 -0.7613  0.0904  0.5217
14286TIP3   OH264272   2.907   3.021  12.137  0.5980  0.4082  0.4689
14286TIP3    H164273   2.845   3.059  12.075  3.4736  1.2779 -2.0816
14286TIP3    H264274   2.894   3.071  12.218 -0.6044  1.9050 -0.6050
14287TIP3   OH264275   3.288   4.908  14.133  0.5975  0.1062  0.6471
14287TIP3    H164276   3.262   4.816  14.142 -1.2182  0.5586  0.2704
14287TIP3    H264277   3.326   4.930  14.218  0.7153 -0.8691  0.8671
14288TIP3   OH264278   2.982   4.613  11.261  0.3629 -0.2360 -0.2719
14288TIP3    H164279   3.005   4.604  11.168  0.7361  0.3658 -0.2363
14288TIP3    H264280   2.935   4.532  11.281 -1.7142  0.5833 -1.5661
14289TIP3   OH264281   1.680   2.028  14.129  0.0796  0.4791 -0.0597
14289TIP3    H164282   1.605   2.052  14.075 -0.9185 -2.5284 -0.1966
14289TIP3    H264283   1.649   2.035  14.219  0.2912  1.1802 -0.0405
14290TIP3   OH264284   0.740   3.046  17.052  0.1480  0.6323 -0.5773
14290TIP3    H164285   0.675   3.066  16.984 -0.3372  0.1751 -0.2478
14290TIP3    H264286   0.773   2.960  17.028  0.1697  0.5866 -0.3809
14291TIP3   OH264287   5.771   2.400   0.727  0.1812  0.0479 -1.0173
14291TIP3    H164288   5.685   2.365   0.752 -0.7875  0.5453 -3.3622
14291TIP3    H264289   5.831   2.326   0.735 -0.2539 -0.1163  1.4248
14292TIP3   OH264290   1.777   1.318  12.127  0.2898  0.7322 -0.0135
14292TIP3    H164291   1.718   1.255  12.168  0.9095  0.9315  1.2327
14292TIP3    H264292   1.722   1.391  12.102  0.0049  0.9555  1.2174
14293TIP3   OH264293   0.401   0.259  12.540 -0.5720  0.1401  1.2420
14293TIP3    H164294   0.485   0.298  12.516 -1.1717 -0.0753 -1.5862
14293TIP3    H264295   0.422   0.195  12.608  1.7473 -0.6544 -0.1191
14294TIP3   OH264296   1.844   6.591  12.301  0.2894 -0.1450 -0.2409
14294TIP3    H164297   1.789   6.515  12.282 -0.9576  0.5723  0.3200
14294TIP3    H264298   1.824   6.612  12.393  2.8203 -0.8900  0.5478
14295TIP3   OH264299   2.813   1.773   1.865 -0.6547 -0.0974 -0.0467
14295TIP3    H164300   2.784   1.748   1.953  0.3727 -2.5876 -0.3362
14295TIP3    H264301   2.908   1.765   1.868 -0.5850 -0.0365 -1.3319
14296TIP3   OH264302   5.717   6.719  17.059  0.5174  0.6544  1.1338
14296TIP3    H164303   5.650   6.699  17.124  0.3811  1.1964  1.1685
14296TIP3    H264304   5.690   6.803  17.022  0.7415  0.4853  0.5698
14297TIP3   OH264305   1.543   3.121  13.763 -0.1175  0.2441 -0.0541
14297TIP3    H164306   1.530   3.030  13.735 -1.1620 -0.2120  1.7537
14297TIP3    H264307   1.602   3.158  13.697 -0.4696 -1.4404 -1.3958
14298TIP3   OH264308   6.270   4.573   0.445  0.3132 -0.0994  0.5901
14298TIP3    H164309   6.293   4.567   0.352 -0.7525  0.4855  0.2723
14298TIP3    H264310   6.239   4.663   0.456 -1.2272 -0.6690  1.1131
14299TIP3   OH264311   0.505   4.136  13.458 -0.0382  0.5254  0.3311
14299TIP3    H164312   0.599   4.140  13.477  0.2049  0.9223 -0.8685
14299TIP3    H264313   0.484   4.222  13.422 -0.1304 -0.5603 -2.4479
14300TIP3   OH264314   2.826   0.808  11.821  0.2170 -0.3455 -0.2493
14300TIP3    H164315   2.784   0.800  11.907  1.2603  0.3003  0.3428
14300TIP3    H264316   2.855   0.720  11.799 -3.3128 -1.3095 -1.7123
14301TIP3   OH264317   6.569   0.183  13.855 -0.6772 -0.3671  0.0941
14301TIP3    H164318   6.501   0.161  13.918  0.1010  0.1472  1.1453
14301TIP3    H264319   6.579   0.278  13.863 -0.3875 -0.3302 -0.6199
14302TIP3   OH264320   2.872   0.734  11.448 -0.5710 -0.5958  0.1050
14302TIP3    H164321   2.933   0.806  11.464 -0.7329 -0.4846  0.2268
14302TIP3    H264322   2.790   0.776  11.424 -0.3213 -0.7633 -1.1053
14303TIP3   OH264323   6.618   6.100  15.131 -0.0154  0.5762 -0.2991
14303TIP3    H164324   6.677   6.061  15.067 -1.5100  0.6511 -1.7954
14303TIP3    H264325   6.564   6.027  15.162 -0.0685  0.7420  0.0080
14304TIP3   OH264326   5.335   2.632  15.230  0.3108  0.3940  0.4856
14304TIP3    H164327   5.326   2.556  15.172  0.1652  1.2768 -0.7030
14304TIP3    H264328   5.419   2.620  15.273  0.5679 -0.1378 -0.1440
14305TIP3   OH264329   5.918   0.976   4.610 -0.0729  0.5007 -0.2692
14305TIP3    H164330   5.952   0.927   4.535  1.7519 -1.0371  1.4535
14305TIP3    H264331   5.839   0.928   4.636 -1.3494  1.6680 -1.7655
14306TIP3   OH264332   0.685   0.859  13.835  0.3723  0.0619  0.0335
14306TIP3    H164333   0.600   0.901  13.847  1.1911  1.8201  0.0629
14306TIP3    H264334   0.672   0.798  13.762 -0.8579  0.4399 -0.0787
14307TIP3   OH264335   2.808   6.703  16.606  0.4131  0.4022 -0.3954
14307TIP3    H164336   2.821   6.766  16.535 -0.6318  1.0807 -0.0109
14307TIP3    H264337   2.830   6.752  16.685 -0.0530  0.1696 -0.1206
14308TIP3   OH264338   4.767   0.526   1.858 -0.0792 -0.5059 -0.0503
14308TIP3    H164339   4.779   0.572   1.941 -2.0867  1.2538 -0.6606
14308TIP3    H264340   4.738   0.439   1.883 -0.0687 -0.2008  1.0987
14309TIP3   OH264341   1.302   2.571   5.830  0.1661 -0.3401  0.8164
14309TIP3    H164342   1.305   2.656   5.874  1.0301  0.2214 -0.2920
14309TIP3    H264343   1.244   2.584   5.755 -0.6115 -1.0538  1.2758
14310TIP3   OH264344   1.007   0.175  12.563  0.7238 -0.1607  0.6007
14310TIP3    H164345   1.032   0.139  12.648 -0.7264  0.2599  1.2383
14310TIP3    H264346   1.076   0.146  12.503  2.7290  0.9964  2.2405
14311TIP3   OH264347   2.308   1.026   3.655  0.0372 -0.2038  0.0336
14311TIP3    H164348   2.395   1.005   3.621  0.9471  1.5319  1.1045
14311TIP3    H264349   2.272   0.942   3.683  1.2558 -0.9963 -0.6707
14312TIP3   OH264350   6.544   5.776  12.697 -0.0661  0.8888  0.6633
14312TIP3    H164351   6.638   5.761  12.693  0.3610  3.3693  0.0583
14312TIP3    H264352   6.509   5.730  12.620  1.0473  2.2391 -0.7094
14313TIP3   OH264353   5.889   6.170  16.127  0.8541 -0.0719 -0.2641
14313TIP3    H164354   5.840   6.089  16.127  0.5232  0.1206 -1.1576
14313TIP3    H264355   5.969   6.150  16.079  0.9077  0.0536 -0.2285
14314TIP3   OH264356   6.034   5.108   0.100  0.1133  0.7126  0.5325
14314TIP3    H164357   6.120   5.123   0.061  0.5952 -0.9373  0.8599
14314TIP3    H264358   5.975   5.099   0.025  0.3564  1.0991  0.2884
14315TIP3   OH264359   3.187   4.703   1.646  0.4488 -0.1776  0.6501
14315TIP3    H164360   3.204   4.752   1.727 -1.3920  0.6630  0.5731
14315TIP3    H264361   3.112   4.647   1.668 -0.2383  0.2497 -0.5443
14316TIP3   OH264362   4.832   1.533   3.420 -0.4356 -0.0940  0.0581
14316TIP3    H164363   4.802   1.612   3.466  2.2640  1.6941 -0.9852
14316TIP3    H264364   4.902   1.499   3.475 -0.9615 -1.2826  0.0230
14317TIP3   OH264365   1.403   2.248  14.357 -0.6555  0.1867  0.5669
14317TIP3    H164366   1.458   2.171  14.374 -1.1866 -0.2690  0.2503
14317TIP3    H264367   1.357   2.227  14.276 -0.1998  1.1834  0.0215
14318TIP3   OH264368   0.313   1.089   0.136 -0.2471 -0.1404  0.9002
14318TIP3    H164369   0.383   1.050   0.084 -0.1622  0.8211  0.2593
14318TIP3    H264370   0.311   1.038   0.216  0.0048 -1.2982  0.1863
14319TIP3   OH264371   2.573   6.488   3.736 -0.0961  0.3125  0.2599
14319TIP3    H164372   2.572   6.574   3.695 -1.8157  0.2301  0.0419
14319TIP3    H264373   2.617   6.502   3.820  3.1532  0.5572 -1.3272
14320TIP3   OH264374   1.404   5.602  11.887  0.5450 -0.3539  0.2586
14320TIP3    H164375   1.342   5.659  11.841  1.9320  0.7619 -0.2815
14320TIP3    H264376   1.402   5.520  11.837  0.1453 -0.0419 -0.2550
14321TIP3   OH264377   0.259   6.022   2.586  0.4796  0.0863 -0.0849
14321TIP3    H164378   0.252   6.051   2.677 -0.6243  1.7393 -0.6565
14321TIP3    H264379   0.252   6.102   2.534  1.2321 -0.8000 -1.6444
14322TIP3   OH264380   2.339   4.734   2.678 -0.4869  0.5261 -1.0756
14322TIP3    H164381   2.283   4.667   2.637  0.5015 -0.9291 -0.1169
14322TIP3    H264382   2.292   4.758   2.758 -0.0294 -0.3045 -0.5440
14323TIP3   OH264383   4.974   0.182   2.023  0.4306  0.1133  0.1614
14323TIP3    H164384   4.907   0.250   2.033  0.2963  0.0212 -0.1104
14323TIP3    H264385   4.936   0.121   1.960 -0.6851 -1.6864  2.3816
14324TIP3   OH264386   0.715   3.258   0.675  0.4502  0.0797  0.3542
14324TIP3    H164387   0.678   3.333   0.722  3.6962  1.9895  0.2068
14324TIP3    H264388   0.762   3.209   0.743  0.1579 -0.5931  0.0747
14325TIP3   OH264389   2.311   6.585  17.129  0.0866 -0.6600  0.2640
14325TIP3    H164390   2.340   6.676  17.130 -3.5209  0.6850 -1.5242
14325TIP3    H264391   2.336   6.553  17.042 -1.1316 -0.4139 -0.1915
14326TIP3   OH264392   4.655   0.767  13.428  0.4781  0.0707 -0.0750
14326TIP3    H164393   4.582   0.811  13.470  0.3271 -0.1165 -0.1397
14326TIP3    H264394   4.651   0.677  13.461  0.6646  0.0545 -0.0960
14327TIP3   OH264395   1.136   1.457   4.146 -0.3881  0.1825  0.1143
14327TIP3    H164396   1.157   1.546   4.173  0.5972  0.0513 -0.1846
14327TIP3    H264397   1.196   1.402   4.196  4.7003  0.1102 -5.0236
14328TIP3   OH264398   2.542   2.497  12.542  0.1527  0.9997  0.3928
14328TIP3    H164399   2.495   2.503  12.459  0.1432 -1.6911  0.0968
14328TIP3    H264400   2.552   2.402  12.557  1.4428  1.4199  2.7328
14329TIP3   OH264401   6.336   1.295   1.434  0.4669  0.1700 -0.3829
14329TIP3    H164402   6.412   1.297   1.376  0.0039  0.5779 -0.9972
14329TIP3    H264403   6.266   1.258   1.381  0.2537 -0.2770  0.2008
14330TIP3   OH264404   1.594   6.364  14.268 -0.3787 -0.7750 -0.2447
14330TIP3    H164405   1.571   6.307  14.195 -2.1531 -2.1725  1.3165
14330TIP3    H264406   1.680   6.333  14.296  0.1459 -0.4786 -1.4573
14331TIP3   OH264407   1.608   2.962  16.962 -0.2095 -0.5545  0.0016
14331TIP3    H164408   1.559   3.033  17.005  0.0288  0.0081 -0.6315
14331TIP3    H264409   1.585   2.883  17.011 -1.1002 -0.1624  0.2259
14332TIP3   OH264410   4.086   0.728  16.497 -0.3742  0.0534 -0.0277
14332TIP3    H164411   4.095   0.781  16.418 -0.0628 -1.4448 -1.0478
14332TIP3    H264412   4.034   0.652  16.469  2.5848 -2.2559  0.2646
14333TIP3   OH264413   4.071   6.515  11.455  0.5704  0.5695 -0.2104
14333TIP3    H164414   4.160   6.547  11.465  0.6541  0.6398 -1.1241
14333TIP3    H264415   4.072   6.464  11.374 -0.2149  0.5608 -0.2229
14334TIP3   OH264416   3.083   2.596  12.021 -0.4716 -0.1792 -0.1246
14334TIP3    H164417   3.136   2.522  11.994 -0.7353 -0.2317 -0.5099
14334TIP3    H264418   3.012   2.557  12.073  0.0228 -0.0806  0.6488
14335TIP3   OH264419   3.144   0.720   0.849 -0.1608 -0.0304  0.1025
14335TIP3    H164420   3.144   0.645   0.788  1.6718  1.3325 -1.7187
14335TIP3    H264421   3.236   0.733   0.870 -0.6478  0.3877  2.1804
14336TIP3   OH264422   2.063   6.504  11.368  0.1045 -0.1930 -0.1247
14336TIP3    H164423   2.143   6.465  11.333 -0.0443 -0.0127 -0.6877
14336TIP3    H264424   2.011   6.524  11.290  0.1486  1.0675  0.1598
14337TIP3   OH264425   5.283   0.290  16.147  1.0213  0.1926 -0.6467
14337TIP3    H164426   5.281   0.220  16.212  0.8796 -0.1122 -0.9733
14337TIP3    H264427   5.246   0.367  16.192 -0.4613 -0.3906 -0.8012
14338TIP3   OH264428   1.374   0.859   1.558  0.6690 -0.2870 -0.2038
14338TIP3    H164429   1.446   0.902   1.603  0.7416  0.5330 -1.0542
14338TIP3    H264430   1.349   0.920   1.489 -0.9358 -0.4809  0.1477
14339TIP3   OH264431   0.626   5.334   1.801  0.0949  0.0510  0.2823
14339TIP3    H164432   0.665   5.248   1.785  1.5635 -0.1261  3.7768
14339TIP3    H264433   0.695   5.397   1.779 -0.2552  0.2307 -0.3334
14340TIP3   OH264434   0.024   0.056   3.406  0.2231 -0.1836 -0.1445
14340TIP3    H164435   0.049   0.148   3.414  2.3910 -0.7508  0.6434
14340TIP3    H264436   0.099   0.008   3.443 -1.1965 -2.2397  0.2840
14341TIP3   OH264437   1.193   3.133   5.356  0.2905 -0.1377  0.0835
14341TIP3    H164438   1.135   3.088   5.417  0.0042 -0.5262 -0.4592
14341TIP3    H264439   1.211   3.068   5.288 -0.6674  0.7623 -1.0703
14342TIP3   OH264440   3.411   5.444  13.518  0.1815 -0.5183  0.1151
14342TIP3    H164441   3.348   5.372  13.513  0.2625 -0.5482 -0.5354
14342TIP3    H264442   3.459   5.440  13.435  0.7501 -0.2304  0.4257
14343TIP3   OH264443   3.195   5.388  12.318 -0.0411  0.5429  0.2203
14343TIP3    H164444   3.272   5.333  12.331 -0.1245  0.6269  1.1173
14343TIP3    H264445   3.140   5.372  12.395  0.0410  2.0434  0.6251
14344TIP3   OH264446   0.829   1.695   5.044 -0.8267 -0.3028 -0.2547
14344TIP3    H164447   0.863   1.606   5.051  1.4390  0.4525 -0.8947
14344TIP3    H264448   0.792   1.699   4.955  0.0506 -0.3057 -0.6297
14345TIP3   OH264449   3.225   5.856  12.008  0.0164 -0.3388  0.2032
14345TIP3    H164450   3.171   5.893  11.938  0.3765 -0.6230 -0.2381
14345TIP3    H264451   3.314   5.881  11.985 -0.0210  1.2969  1.6543
14346TIP3   OH264452   0.796   3.655  11.219  0.0102  0.4826  0.5202
14346TIP3    H164453   0.888   3.682  11.216  0.2434  0.0854  2.4754
14346TIP3    H264454   0.747   3.737  11.219 -0.0906  0.8585 -5.3393
14347TIP3   OH264455   2.146   3.305  16.871  0.3016  0.4541 -0.2094
14347TIP3    H164456   2.160   3.356  16.950 -0.1002  0.7579 -0.3270
14347TIP3    H264457   2.064   3.339  16.835  0.0735 -0.2121 -0.3395
14348TIP3   OH264458   5.225   5.274  13.540 -0.2314 -0.4503 -0.0269
14348TIP3    H164459   5.190   5.185  13.531 -0.2944 -0.2909 -1.5044
14348TIP3    H264460   5.223   5.290  13.635 -1.1937 -1.6269  0.1834
14349TIP3   OH264461   2.230   4.710  15.213  0.7594  0.0457  0.5078
14349TIP3    H164462   2.203   4.646  15.148  2.0936 -0.2467  0.2162
14349TIP3    H264463   2.238   4.660  15.295 -0.7416  0.3777  0.8805
14350TIP3   OH264464   5.411   0.388   1.773 -0.0482  0.5792  0.3815
14350TIP3    H164465   5.439   0.427   1.690  0.7687 -1.2716 -0.2535
14350TIP3    H264466   5.326   0.348   1.753  0.5556 -0.6266  0.1825
14351TIP3   OH264467   4.508   1.872   1.230 -0.6553  0.5709  0.6579
14351TIP3    H164468   4.483   1.859   1.322  1.2715 -1.4756  0.9567
14351TIP3    H264469   4.467   1.799   1.183  0.2804  0.2689  0.2927
14352TIP3   OH264470   1.838   4.900   3.650 -0.2326 -0.3676 -0.2358
14352TIP3    H164471   1.843   4.953   3.570  0.4337  0.8518  0.5752
14352TIP3    H264472   1.901   4.829   3.635 -0.7880 -0.6835 -1.1538
14353TIP3   OH264473   5.087   3.596  14.209 -0.1964  0.6682 -0.6380
14353TIP3    H164474   5.076   3.668  14.148 -0.9793  0.6569 -0.5202
14353TIP3    H264475   5.017   3.607  14.273  0.6710  0.7430  0.3295
14354TIP3   OH264476   2.848   5.677   0.626  0.7668  0.0528 -0.4556
14354TIP3    H164477   2.883   5.738   0.691  1.9302 -2.6401  1.6672
14354TIP3    H264478   2.757   5.664   0.652  0.8722 -0.0572 -0.1364
14355TIP3   OH264479   2.931   0.365   3.658 -0.0409 -0.7029 -0.2809
14355TIP3    H164480   2.991   0.384   3.730  0.9761  1.9638 -1.7001
14355TIP3    H264481   2.965   0.284   3.619  1.2226 -0.5184  0.4019
14356TIP3   OH264482   3.179   2.887  11.631 -0.0079  0.0005  0.0340
14356TIP3    H164483   3.226   2.833  11.694 -1.3567 -2.0120 -0.5898
14356TIP3    H264484   3.234   2.965  11.621  1.0590 -0.3505  2.4101
14357TIP3   OH264485   4.477   1.534   6.510  0.1269 -0.2937 -0.0107
14357TIP3    H164486   4.550   1.509   6.566  0.6137 -0.0252 -0.5130
14357TIP3    H264487   4.399   1.522   6.564  0.7025  1.7749  1.3733
14358TIP3   OH264488   3.364   6.341   0.796 -0.0345 -0.1939 -0.0111
14358TIP3    H164489   3.355   6.425   0.841 -1.3839  0.3876 -1.2921
14358TIP3    H264490   3.363   6.275   0.866 -0.2800  0.7762  0.9189
14359TIP3   OH264491   4.264   1.447   2.127 -0.3639  0.0460  0.1148
14359TIP3    H164492   4.335   1.393   2.095 -0.8762 -0.6893  0.1804
14359TIP3    H264493   4.274   1.531   2.082  0.8588  0.1474  0.5470
14360TIP3   OH264494   5.024   3.449  12.810 -0.2415 -0.5539 -0.4420
14360TIP3    H164495   5.069   3.435  12.893  0.9070  1.3073 -0.7069
14360TIP3    H264496   4.935   3.416  12.825 -0.0599 -0.2329  1.5220
14361TIP3   OH264497   4.315   2.996  11.071  0.6796  0.1698  0.0803
14361TIP3    H164498   4.299   2.918  11.017 -0.1963  1.3519 -1.4621
14361TIP3    H264499   4.234   3.009  11.119  0.5881  0.4910 -0.1583
14362TIP3   OH264500   2.200   3.242   3.639 -0.1099 -0.4843 -0.3779
14362TIP3    H164501   2.109   3.216   3.648  0.4588 -2.1440  1.0377
14362TIP3    H264502   2.198   3.338   3.646 -1.6022 -0.5789  1.1142
14363TIP3   OH264503   6.565   0.991   5.048  0.0555 -0.1348  0.1695
14363TIP3    H164504   6.569   1.008   4.954  0.3378 -0.7892  0.0554
14363TIP3    H264505   6.577   1.077   5.089 -1.0041  0.3079 -0.3957
14364TIP3   OH264506   0.937   0.539   5.289 -0.1095  0.7099  0.1415
14364TIP3    H164507   0.924   0.530   5.195  0.6742  2.7585 -0.2065
14364TIP3    H264508   0.999   0.611   5.298 -0.7593  1.0738  2.2522
14365TIP3   OH264509   2.853   5.519  11.539 -0.1154  0.3331 -0.7526
14365TIP3    H164510   2.825   5.536  11.629 -0.8139  0.1334 -0.9283
14365TIP3    H264511   2.775   5.535  11.486 -0.1288 -1.0563 -1.1689
14366TIP3   OH264512   3.885   2.444  11.841  0.7021  0.0609 -0.1467
14366TIP3    H164513   3.828   2.511  11.803  1.3686  1.1081  0.6158
14366TIP3    H264514   3.961   2.441  11.784  0.9507  0.4203  0.1578
14367TIP3   OH264515   6.241   0.384   1.879 -0.7203  0.4471  0.2881
14367TIP3    H164516   6.192   0.450   1.927 -1.6361  0.2009 -0.2652
14367TIP3    H264517   6.182   0.358   1.808  0.7575  1.1526 -1.2799
14368TIP3   OH264518   5.901   2.722   3.002  0.5031 -0.3590 -0.1908
14368TIP3    H164519   5.894   2.632   2.970 -1.3877  0.2547 -1.6987
14368TIP3    H264520   5.868   2.776   2.930 -0.7811  1.3636  1.5743
14369TIP3   OH264521   2.119   3.084   0.174 -0.0316 -0.6891 -0.2358
14369TIP3    H164522   2.126   3.180   0.175 -0.1960 -0.6782  0.3418
14369TIP3    H264523   2.072   3.065   0.093 -1.8004 -0.1357  0.6041
14370TIP3   OH264524   3.887   0.269   4.478  0.0902 -0.0965 -0.0483
14370TIP3    H164525   3.855   0.342   4.531  1.6627  0.7064 -0.1400
14370TIP3    H264526   3.917   0.309   4.397 -1.3317 -1.1873 -1.1651
14371TIP3   OH264527   0.431   3.428  12.296  0.0539  0.5611 -0.3577
14371TIP3    H164528   0.386   3.352  12.333 -2.7800  1.2389 -2.1347
14371TIP3    H264529   0.412   3.499  12.357  2.3188  0.0683  1.0568
14372TIP3   OH264530   2.336   5.324   0.195 -0.2616 -0.1018  0.3030
14372TIP3    H164531   2.336   5.234   0.162 -0.8113 -0.1073  0.3171
14372TIP3    H264532   2.290   5.374   0.128  0.9768  0.3728 -0.2290
14373TIP3   OH264533   5.072   6.158   2.346  0.9612 -0.3166  0.3837
14373TIP3    H164534   5.016   6.222   2.302  1.4139  0.4641  0.9210
14373TIP3    H264535   5.144   6.143   2.285  1.0546 -0.0273  0.4260
14374TIP3   OH264536   3.828   2.363  12.079  0.5025 -0.5454  0.3406
14374TIP3    H164537   3.863   2.361  11.990 -1.0498  2.1186 -0.4420
14374TIP3    H264538   3.785   2.278  12.089  1.0840 -1.0742 -1.2928
14375TIP3   OH264539   2.927   1.622   6.332 -0.4351 -0.4484 -0.2332
14375TIP3    H164540   2.928   1.531   6.302 -0.7811 -0.3796 -0.4600
14375TIP3    H264541   2.920   1.673   6.252  0.1716 -0.2035 -0.1358
14376TIP3   OH264542   0.121   2.538  13.864 -0.2427  0.2285 -0.0583
14376TIP3    H164543   0.042   2.484  13.875  1.6851 -2.5358  1.2990
14376TIP3    H264544   0.093   2.626  13.887 -3.2916 -0.3103 -1.1863
14377TIP3   OH264545   6.548   3.282   6.202 -0.5295  0.4476  0.4041
14377TIP3    H164546   6.597   3.221   6.257  0.1500  1.1223  0.5789
14377TIP3    H264547   6.456   3.262   6.219 -0.3405 -1.2694 -0.4090
14378TIP3   OH264548   5.827   1.215   4.557  0.2043  0.3542 -0.0549
14378TIP3    H164549   5.873   1.238   4.476  0.0203  0.3363 -0.1651
14378TIP3    H264550   5.871   1.135   4.587  1.2303  1.1476  0.6384
14379TIP3   OH264551   4.582   4.790  13.466  0.3385  0.4810  0.0153
14379TIP3    H164552   4.513   4.765  13.527  0.2088  0.9485  0.0657
14379TIP3    H264553   4.626   4.864  13.508 -0.4056  1.4807 -0.8992
14380TIP3   OH264554   4.846   1.616  13.934 -0.5889  0.1808 -0.4278
14380TIP3    H164555   4.838   1.629  13.840  2.5293 -1.3692 -1.0419
14380TIP3    H264556   4.875   1.701  13.968  0.3134  0.2022 -1.2224
14381TIP3   OH264557   1.154   0.708   1.348 -0.2271  0.5003  0.9814
14381TIP3    H164558   1.197   0.676   1.427  0.9949  2.9629  1.4165
14381TIP3    H264559   1.089   0.770   1.379 -0.7973  0.3580  0.1095
14382TIP3   OH264560   1.495   5.688   3.414  0.3747 -0.0718  0.1280
14382TIP3    H164561   1.411   5.658   3.381  2.1635 -4.0792 -1.4027
14382TIP3    H264562   1.510   5.636   3.492  2.0721 -0.6750 -0.5492
14383TIP3   OH264563   0.327   2.690   4.455 -0.1450 -0.2903  0.0600
14383TIP3    H164564   0.284   2.739   4.386  1.0376 -0.5543 -0.9005
14383TIP3    H264565   0.421   2.704   4.441  0.1985 -1.9433  0.3851
14384TIP3   OH264566   0.933   1.540   5.676 -0.2792  0.6074  0.3434
14384TIP3    H164567   0.998   1.553   5.745 -0.8120 -1.6065  1.3306
14384TIP3    H264568   0.983   1.509   5.601 -0.0869 -0.4714  0.8993
14385TIP3   OH264569   4.640   3.518  16.340 -0.4989 -0.1450  0.5307
14385TIP3    H164570   4.583   3.552  16.409 -1.9153 -0.3454 -0.5096
14385TIP3    H264571   4.682   3.595  16.303 -1.8919  0.2551 -0.2479
14386TIP3   OH264572   1.809   2.267  16.520  0.0660  0.4307  1.0989
14386TIP3    H164573   1.872   2.200  16.547  0.6917  0.5935  0.0867
14386TIP3    H264574   1.777   2.238  16.435 -0.7651  0.6714  1.3208
14387TIP3   OH264575   2.066   0.214   6.156 -0.0705  0.0562  0.1611
14387TIP3    H164576   1.976   0.233   6.185  0.1208 -1.2001  1.7027
14387TIP3    H264577   2.116   0.291   6.181 -0.8148  1.0550 -1.3096
14388TIP3   OH264578   0.851   1.908   5.699  0.0455 -0.5541 -0.1999
14388TIP3    H164579   0.915   1.914   5.770  0.6027 -0.9368 -0.6610
14388TIP3    H264580   0.799   1.988   5.708 -0.1715 -0.7950  0.8949
14389TIP3   OH264581   2.638   6.496   5.469 -0.2019  0.3367 -0.5140
14389TIP3    H164582   2.552   6.495   5.427 -0.0179 -0.9909 -0.9105
14389TIP3    H264583   2.701   6.494   5.397  0.1735  1.4769 -0.2304
14390TIP3   OH264584   6.677   2.998   0.558 -0.1067  0.0724  0.4278
14390TIP3    H164585   6.605   2.936   0.570  1.3563 -1.6173  0.9074
14390TIP3    H264586   6.669   3.026   0.467 -1.2538 -0.2122  0.4196
14391TIP3   OH264587   3.280   2.114  11.574 -0.0610 -0.2113  0.3399
14391TIP3    H164588   3.262   2.095  11.666  1.4892  0.6566  0.8538
14391TIP3    H264589   3.254   2.035  11.528 -3.5346  0.3026  1.1201
14392TIP3   OH264590   3.160   2.830   1.329  0.3968  0.3155 -0.3734
14392TIP3    H164591   3.249   2.844   1.295  0.4583 -1.3852 -0.9872
14392TIP3    H264592   3.103   2.841   1.254  0.1332  0.7119 -0.1207
14393TIP3   OH264593   2.501   5.287  13.272  0.1388  0.3570 -0.1296
14393TIP3    H164594   2.512   5.351  13.202 -0.0926  0.5866  0.0413
14393TIP3    H264595   2.407   5.288  13.292 -0.3193 -1.9008 -1.8558
14394TIP3   OH264596   3.807   5.338  10.853  0.3211 -0.1319  0.6874
14394TIP3    H164597   3.743   5.407  10.871  0.8202  0.3312  0.7323
14394TIP3    H264598   3.819   5.294  10.937  0.8145  0.4394  0.9237
14395TIP3   OH264599   6.430   5.964   4.240  0.1217  0.0277  0.1098
14395TIP3    H164600   6.476   5.955   4.323  0.2699  1.5355  0.2135
14395TIP3    H264601   6.355   5.905   4.247  1.4286 -1.6801  0.3437
14396TIP3   OH264602   0.117   2.929   5.096  0.6068 -0.2759  0.4758
14396TIP3    H164603   0.092   2.856   5.154  0.8105 -0.4066  0.4003
14396TIP3    H264604   0.203   2.904   5.062  0.9976  0.3243  0.9980
14397TIP3   OH264605   5.387   5.356   1.081  0.1205  0.0202  0.0758
14397TIP3    H164606   5.380   5.436   1.029 -1.6282 -0.6623 -0.8326
14397TIP3    H264607   5.468   5.366   1.130  1.4683  1.0586 -2.2040
14398TIP3   OH264608   5.597   0.408  12.945  0.3694  0.1419 -0.5706
14398TIP3    H164609   5.562   0.326  12.978  0.9509 -0.7046 -1.9306
14398TIP3    H264610   5.647   0.444  13.018 -0.3281 -0.4395  0.2147
14399TIP3   OH264611   6.586   1.443  14.622 -0.1465  0.2970 -0.2199
14399TIP3    H164612   6.510   1.394  14.654  1.1611 -0.5395  1.8194
14399TIP3    H264613   6.557   1.534  14.620 -0.9158  0.1540  1.6812
14400TIP3   OH264614   5.538   0.332  13.941  0.3161  0.2313  0.1093
14400TIP3    H164615   5.458   0.330  13.994  0.7090 -1.4765  0.7199
14400TIP3    H264616   5.513   0.288  13.859  0.8301 -1.1391  0.6606
14401TIP3   OH264617   0.260   3.700  16.601  0.4225  0.2775  0.3741
14401TIP3    H164618   0.350   3.692  16.571  0.0020 -1.0216 -0.6369
14401TIP3    H264619   0.267   3.736  16.689  1.9951 -0.7491  0.7053
14402TIP3   OH264620   4.643   6.068  17.086  0.2314 -0.4094 -0.2460
14402TIP3    H164621   4.654   6.153  17.042 -1.2090 -0.2116 -0.2687
14402TIP3    H264622   4.689   6.006  17.030  0.8667  0.2804 -0.4997
14403TIP3   OH264623   0.655   6.083  11.794  0.0208  0.1203  0.1297
14403TIP3    H164624   0.640   6.030  11.873  0.9041 -0.1114  0.1561
14403TIP3    H264625   0.589   6.052  11.732 -0.1230 -0.3044  0.4844
14404TIP3   OH264626   1.455   0.054   4.054  0.2491 -0.6100 -0.1711
14404TIP3    H164627   1.480  -0.035   4.028  1.2302 -0.0768 -1.1865
14404TIP3    H264628   1.404   0.087   3.980  2.7709  0.8094 -1.4191
14405TIP3   OH264629   1.845   0.801   2.760  0.0135  0.0123 -0.0899
14405TIP3    H164630   1.770   0.859   2.751 -0.0884 -0.3446 -1.7137
14405TIP3    H264631   1.900   0.819   2.684  1.1252 -0.3836  0.5954
14406TIP3   OH264632   3.487   2.035   0.809  0.3830  0.5940 -0.1824
14406TIP3    H164633   3.418   2.100   0.822  1.1011  1.3973 -0.3270
14406TIP3    H264634   3.488   2.020   0.714  1.4721  1.8173 -0.4066
14407TIP3   OH264635   6.585   2.509  14.096 -0.3931 -0.7592 -0.1973
14407TIP3    H164636   6.524   2.579  14.075 -0.1787 -0.5325 -0.0698
14407TIP3    H264637   6.545   2.464  14.171  0.5978  0.6975  1.2667
14408TIP3   OH264638   5.781   5.659  15.510  0.6145  0.1661 -0.3094
14408TIP3    H164639   5.698   5.620  15.538 -0.2569  1.7402 -0.5251
14408TIP3    H264640   5.849   5.608  15.554 -0.4634 -1.2316 -0.2155
14409TIP3   OH264641   4.549   1.169   2.796  0.6009 -0.3832  0.1053
14409TIP3    H164642   4.485   1.113   2.752 -0.0683  0.9576 -0.7002
14409TIP3    H264643   4.499   1.210   2.866  0.7525  0.1495 -0.0983
14410TIP3   OH264644   1.939   3.040  10.654 -0.1109 -0.2555 -0.1024
14410TIP3    H164645   1.937   2.992  10.572 -0.7168 -1.4247  0.5630
14410TIP3    H264646   1.994   2.988  10.712 -1.3959 -0.5826  0.8714
14411TIP3   OH264647   3.416   4.945   4.260 -0.1051  0.0493  0.2757
14411TIP3    H164648   3.339   4.987   4.298 -0.6710 -2.4040  2.0766
14411TIP3    H264649   3.462   4.906   4.335  2.9820  1.4283 -0.7264
14412TIP3   OH264650   4.752   2.588   4.318 -0.3669 -0.3762  0.2024
14412TIP3    H164651   4.837   2.604   4.278 -1.4091  0.9469 -1.6400
14412TIP3    H264652   4.722   2.505   4.280  0.1342 -0.9335  0.9851
14413TIP3   OH264653   4.926   4.876  16.623  0.9011  0.1807 -0.4035
14413TIP3    H164654   4.861   4.817  16.660  1.1731 -0.0334 -0.2735
14413TIP3    H264655   4.965   4.920  16.698  0.1912  1.0676 -0.5304
14414TIP3   OH264656   1.204   2.171  17.073  0.3532 -0.2994 -0.3085
14414TIP3    H164657   1.155   2.253  17.076  1.6867  0.5088 -0.1517
14414TIP3    H264658   1.281   2.191  17.020  1.5962 -0.9496  1.1927
14415TIP3   OH264659   1.643   6.708  10.955 -0.3275 -0.2358 -0.3284
14415TIP3    H164660   1.611   6.704  10.865  0.3400  1.9260 -0.7244
14415TIP3    H264661   1.569   6.678  11.008 -0.5646 -2.0441 -1.5797
14416TIP3   OH264662   2.253   1.981   2.953  0.1771 -0.3962  0.0750
14416TIP3    H164663   2.326   1.919   2.954 -0.4500 -1.1532  1.2641
14416TIP3    H264664   2.294   2.066   2.967  1.0897 -0.4576 -1.9370
14417TIP3   OH264665   3.115   6.245  13.806 -0.0024  0.0895 -0.1507
14417TIP3    H164666   3.086   6.163  13.847 -0.1317 -1.2066 -2.6704
14417TIP3    H264667   3.210   6.245  13.818  0.1335 -1.0017 -1.0150
14418TIP3   OH264668   0.052   1.380   3.632  0.7101 -0.4011  0.1450
14418TIP3    H164669  -0.012   1.314   3.660  0.4390  0.0008  0.4801
14418TIP3    H264670   0.137   1.340   3.654  0.5490 -0.6404  0.3500
14419TIP3   OH264671   0.214   2.134  16.871 -0.2172 -0.3376 -0.1451
14419TIP3    H164672   0.144   2.070  16.875  0.1091 -0.6421  3.1031
14419TIP3    H264673   0.198   2.193  16.945  1.9010  0.6854 -0.4082
14420TIP3   OH264674   5.003   3.614  13.735  0.5711  0.2406  0.1047
14420TIP3    H164675   4.911   3.635  13.719  0.5496 -0.7820 -1.3350
14420TIP3    H264676   5.047   3.699  13.741 -0.0969  0.7584 -1.6883
14421TIP3   OH264677   4.057   4.582   4.940  0.4215 -0.3774  0.5927
14421TIP3    H164678   4.037   4.561   4.849  2.9581 -1.9551  0.3084
14421TIP3    H264679   4.115   4.658   4.935 -0.9625  0.7571  1.0625
14422TIP3   OH264680   3.600   4.025   5.787 -0.7701  0.2543  0.7824
14422TIP3    H164681   3.558   3.967   5.851  1.7001 -0.7030  1.6392
14422TIP3    H264682   3.587   3.982   5.703  0.1153 -1.0299  1.2830
14423TIP3   OH264683   4.150   0.086  14.441 -0.1819  0.2536  0.4889
14423TIP3    H164684   4.056   0.102  14.433 -0.1504  1.7190  2.4846
14423TIP3    H264685   4.158   0.022  14.511  0.2847 -1.0077 -0.6605
14424TIP3   OH264686   1.101   1.914   5.567 -0.3019 -0.0068 -0.1044
14424TIP3    H164687   1.173   1.871   5.613  1.0578  1.8482 -0.3364
14424TIP3    H264688   1.027   1.908   5.626  1.0696  1.2392  1.8724
14425TIP3   OH264689   6.392   2.038   2.167 -1.0923  0.5833  0.3049
14425TIP3    H164690   6.324   2.099   2.196 -0.2768  2.0372 -0.6885
14425TIP3    H264691   6.460   2.044   2.234 -1.1635  0.4771  0.3883
14426TIP3   OH264692   3.058   5.336  13.635 -0.7112 -0.0693  0.2680
14426TIP3    H164693   3.011   5.313  13.554 -0.6148 -0.6550  0.3758
14426TIP3    H264694   3.089   5.253  13.669  0.7694  0.3372 -0.0114
14427TIP3   OH264695   3.280   0.933  17.352 -0.1331 -0.1411 -0.2836
14427TIP3    H164696   3.339   0.858  17.363 -1.3098 -1.2749 -1.3444
14427TIP3    H264697   3.321   0.985  17.284 -0.0257 -0.6012 -0.5778
14428TIP3   OH264698   0.285   3.503   1.734 -0.6244 -0.5902 -1.0356
14428TIP3    H164699   0.243   3.450   1.801 -0.2548 -1.2748 -1.3375
14428TIP3    H264700   0.311   3.441   1.666  1.8287 -0.3879 -0.3848
14429TIP3   OH264701   4.459   3.114   3.304 -0.2884 -0.0495 -0.3407
14429TIP3    H164702   4.531   3.144   3.248  0.6191 -2.0656 -0.3462
14429TIP3    H264703   4.407   3.057   3.248 -0.3543 -0.7259  0.3983
14430TIP3   OH264704   0.934   0.429   5.031 -0.2409 -0.2447  0.4554
14430TIP3    H164705   0.973   0.416   4.945 -0.9826  1.3434 -0.1691
14430TIP3    H264706   0.867   0.361   5.038 -0.1942 -0.3671 -0.2394
14431TIP3   OH264707   0.287   4.750  14.231  0.2719  0.1483  0.4205
14431TIP3    H164708   0.339   4.691  14.286  0.0272  0.6051  1.1618
14431TIP3    H264709   0.294   4.835  14.275 -0.4651  0.3782  0.1034
14432TIP3   OH264710   1.911   1.578   4.015  0.1858 -0.4300 -0.2376
14432TIP3    H164711   1.916   1.656   4.071 -2.8096  0.0449 -0.4171
14432TIP3    H264712   1.878   1.611   3.931 -0.6955 -1.8167 -0.4715
14433TIP3   OH264713   3.746   5.155  16.853  0.1243  0.5333 -0.4892
14433TIP3    H164714   3.801   5.142  16.775  1.1701 -0.7880  0.4384
14433TIP3    H264715   3.790   5.106  16.922 -1.6719  0.3210  0.5520
14434TIP3   OH264716   2.699   2.747   3.211  0.3181 -0.2075  0.2631
14434TIP3    H164717   2.729   2.679   3.152 -1.0234 -2.1836  1.7335
14434TIP3    H264718   2.683   2.823   3.155 -1.4464 -2.1292 -2.0248
14435TIP3   OH264719   4.278   0.301  11.772  0.3147 -0.2512  0.3757
14435TIP3    H164720   4.224   0.241  11.824  1.6817 -0.8685  1.1617
14435TIP3    H264721   4.329   0.244  11.715 -0.2720  0.3564 -0.7812
14436TIP3   OH264722   1.821   2.309  17.087  0.2794 -0.3822  0.1366
14436TIP3    H164723   1.813   2.389  17.034 -0.7086  0.6410  1.7444
14436TIP3    H264724   1.737   2.265  17.076  0.5970 -0.9017 -0.2520
14437TIP3   OH264725   1.974   3.134  15.442 -1.0795  0.8969  0.3763
14437TIP3    H164726   1.980   3.131  15.346 -1.1441  0.7398  0.3776
14437TIP3    H264727   2.025   3.211  15.466 -1.7165  1.4010  0.1541
14438TIP3   OH264728   3.728   4.636  14.093  0.0671  0.1431 -0.5653
14438TIP3    H164729   3.760   4.546  14.090  2.5470  0.9479 -0.1411
14438TIP3    H264730   3.724   4.664  14.002 -0.8178 -0.3793 -0.7070
14439TIP3   OH264731   3.362   0.540   1.806  0.7022 -0.2607  0.0553
14439TIP3    H164732   3.293   0.475   1.796  0.9613 -0.6692  0.8225
14439TIP3    H264733   3.340   0.587   1.886  2.3440 -1.7339  1.4484
14440TIP3   OH264734   5.842   5.005   1.835  0.2432  0.3485  0.4030
14440TIP3    H164735   5.820   5.097   1.822  1.0422  0.4719 -0.1951
14440TIP3    H264736   5.936   5.001   1.819  0.1200 -0.6656 -0.1543
14441TIP3   OH264737   1.994   4.939  14.032 -0.9471 -0.7339 -0.1825
14441TIP3    H164738   2.072   4.912  14.081 -1.9913 -1.1703  1.3124
14441TIP3    H264739   1.969   4.861  13.982  0.3151 -0.1882 -1.7699
14442TIP3   OH264740   1.851   3.198  16.226 -0.3283 -0.2318  0.6333
14442TIP3    H164741   1.871   3.105  16.224 -0.1379 -0.1832 -0.0641
14442TIP3    H264742   1.935   3.241  16.239 -0.5902 -0.2019  2.3482
14443TIP3   OH264743   2.794   1.282  15.017  0.2696 -0.1719  0.6800
14443TIP3    H164744   2.701   1.280  15.038  0.4176 -0.2282  1.3503
14443TIP3    H264745   2.797   1.297  14.923 -0.3963  2.0759  0.9593
14444TIP3   OH264746   2.577   3.917   1.123 -0.1751 -0.3468 -0.2174
14444TIP3    H164747   2.546   3.858   1.191  0.3597  2.0130  2.2347
14444TIP3    H264748   2.602   3.860   1.051 -0.2706 -3.0474  1.7562
14445TIP3   OH264749   6.173   4.690   5.626  0.5119 -0.4699  0.1854
14445TIP3    H164750   6.256   4.736   5.615  0.9997 -1.1146  1.0568
14445TIP3    H264751   6.133   4.693   5.539  0.9510  0.7625 -0.0003
14446TIP3   OH264752   4.617   5.155  10.846 -0.0541 -0.3284  0.3754
14446TIP3    H164753   4.604   5.250  10.851  1.3181 -0.1144  0.1105
14446TIP3    H264754   4.566   5.128  10.770 -0.5881  0.1644  0.5534
14447TIP3   OH264755   2.675   6.685  13.221 -0.1362 -0.1921 -0.6504
14447TIP3    H164756   2.585   6.715  13.230 -0.1657 -0.3802 -0.2968
14447TIP3    H264757   2.698   6.652  13.308  0.3594  0.0920 -0.6743
14448TIP3   OH264758   1.317   1.028  16.764  0.4958 -0.5081 -0.0759
14448TIP3    H164759   1.312   1.122  16.747 -1.7351 -0.3968  0.7765
14448TIP3    H264760   1.349   1.021  16.854 -1.4386 -0.4046  0.6694
14449TIP3   OH264761   6.561   1.255   5.155  0.4782 -0.2220 -0.1347
14449TIP3    H164762   6.644   1.244   5.202  1.1397  1.2684 -0.8957
14449TIP3    H264763   6.494   1.249   5.224  1.2003 -1.4020  0.4982
14450TIP3   OH264764   2.141   5.004  15.644  0.0477  0.2291  0.1407
14450TIP3    H164765   2.133   4.983  15.551  0.4828  1.7182 -0.2490
14450TIP3    H264766   2.088   4.937  15.688 -0.0989 -0.5384 -1.1617
14451TIP3   OH264767   6.493   2.493   0.194  0.0395  0.4701 -0.1480
14451TIP3    H164768   6.493   2.493   0.099 -1.3876 -0.8449 -0.1907
14451TIP3    H264769   6.432   2.563   0.218 -0.3796  0.1418 -0.2375
14452TIP3   OH264770   4.472   5.812  13.342 -0.6294  0.0156 -0.3796
14452TIP3    H164771   4.472   5.756  13.264  0.4766  0.9823 -1.0902
14452TIP3    H264772   4.547   5.869  13.331 -0.1267 -0.1787  1.6685
14453TIP3   OH264773   2.897   0.797  15.851 -0.3848 -0.1739 -0.4825
14453TIP3    H164774   2.939   0.744  15.919 -1.4896 -1.0685 -0.4631
14453TIP3    H264775   2.823   0.839  15.894 -0.5201  0.0302 -0.9055
14454TIP3   OH264776   1.729   6.021   3.437 -0.3380 -0.2708 -0.3435
14454TIP3    H164777   1.716   6.013   3.532  1.4197 -2.0770 -0.1848
14454TIP3    H264778   1.824   6.027   3.426 -0.5220  0.1926 -1.9913
14455TIP3   OH264779   4.142   0.622  15.852  0.3179 -0.3270 -0.0069
14455TIP3    H164780   4.190   0.677  15.914 -1.8830 -1.0874  2.5537
14455TIP3    H264781   4.128   0.679  15.776 -0.2638  2.0855  1.7916
14456TIP3   OH264782   1.706   5.576   4.218  0.9167 -0.1785  1.0629
14456TIP3    H164783   1.763   5.614   4.152  2.1569 -1.6339  1.2488
14456TIP3    H264784   1.617   5.596   4.187  1.4833  0.5538 -0.1690
14457TIP3   OH264785   3.566   1.603   5.178  0.1749 -0.0887 -0.1579
14457TIP3    H164786   3.578   1.590   5.084 -1.0434 -1.9828 -0.0976
14457TIP3    H264787   3.486   1.655   5.185  0.5668  0.5243 -0.1695
14458TIP3   OH264788   2.079   1.372  11.016 -0.1927  0.0235 -0.0078
14458TIP3    H164789   2.097   1.446  10.958  0.9194 -0.2397 -0.0298
14458TIP3    H264790   2.009   1.323  10.973 -0.4481  0.6782 -0.3426
14459TIP3   OH264791   4.924   1.703   4.908 -0.3408  0.3691  0.3549
14459TIP3    H164792   4.977   1.635   4.868  0.1862  1.4164 -0.8079
14459TIP3    H264793   4.943   1.697   5.002  2.4098  1.1392 -0.0804
14460TIP3   OH264794   5.181   0.703  13.166  0.4645  0.2266 -0.1867
14460TIP3    H164795   5.250   0.756  13.125 -1.7279  2.4325 -1.2978
14460TIP3    H264796   5.104   0.718  13.111 -0.6589 -3.1234  0.2688
14461TIP3   OH264797   2.729   0.025  11.785  0.0386 -0.1666 -0.1641
14461TIP3    H164798   2.785  -0.035  11.736  0.7800  1.1103 -0.9519
14461TIP3    H264799   2.651   0.035  11.731 -0.2684 -0.7347  0.1700
14462TIP3   OH264800   5.251   1.102   3.778  0.3671  0.0405  0.2274
14462TIP3    H164801   5.210   1.144   3.854  1.4149  0.7789  0.4025
14462TIP3    H264802   5.301   1.030   3.815 -0.4081 -0.5934  0.0586
14463TIP3   OH264803   0.766   3.245  15.239 -0.2256 -0.2156  0.4511
14463TIP3    H164804   0.784   3.258  15.333 -0.0741  0.5249  0.3310
14463TIP3    H264805   0.750   3.152  15.230  2.3834 -0.7747  0.7917
14464TIP3   OH264806   1.608   5.385  13.003 -0.3381 -0.5735 -0.3718
14464TIP3    H164807   1.563   5.390  13.088  0.2371 -1.7731  0.0309
14464TIP3    H264808   1.664   5.308  13.011 -0.7773 -1.1049 -2.0931
14465TIP3   OH264809   6.060   0.537   2.647  0.3401  0.7563 -0.2626
14465TIP3    H164810   6.113   0.491   2.712 -1.9253  0.0509  1.1966
14465TIP3    H264811   6.014   0.468   2.599 -1.6862  1.3401  0.7035
14466TIP3   OH264812   0.528   3.249   0.174  0.5872 -0.1455  0.0040
14466TIP3    H164813   0.511   3.201   0.093 -1.0542 -0.3003  0.4141
14466TIP3    H264814   0.454   3.228   0.231  1.3290  0.5606  1.2773
14467TIP3   OH264815   6.553   4.572  11.813 -0.2251 -0.6984 -0.3008
14467TIP3    H164816   6.522   4.647  11.762 -0.9133 -2.2695 -2.3508
14467TIP3    H264817   6.501   4.574  11.893 -0.5674  0.7162 -0.5317
14468TIP3   OH264818   2.835   1.250  13.676 -0.4174  0.0523 -0.1573
14468TIP3    H164819   2.782   1.172  13.658 -1.5683  0.9473 -0.8202
14468TIP3    H264820   2.869   1.236  13.764 -0.1211 -1.4511 -0.4921
14469TIP3   OH264821   6.572   2.093   0.726 -0.7348 -0.2796  0.4051
14469TIP3    H164822   6.619   2.135   0.798 -0.4430  2.2614 -1.1500
14469TIP3    H264823   6.640   2.049   0.675 -0.1899  1.7206 -0.7296
14470TIP3   OH264824   4.671   0.812  16.884 -0.1436  0.8195 -0.1547
14470TIP3    H164825   4.609   0.795  16.954  1.3489  0.2619  1.0940
14470TIP3    H264826   4.638   0.891  16.841 -3.4085 -1.1369 -1.6115
14471TIP3   OH264827   0.789   4.923   5.481  0.3919 -0.1670 -0.2315
14471TIP3    H164828   0.880   4.952   5.485  0.6586 -0.9474 -0.5001
14471TIP3    H264829   0.739   4.996   5.518  0.9078  1.2172 -2.1249
14472TIP3   OH264830   1.496   6.338  12.970 -0.4419  0.7287 -0.3146
14472TIP3    H164831   1.560   6.387  12.919 -2.0510  1.2955 -1.8743
14472TIP3    H264832   1.525   6.247  12.966 -0.4883  0.7720 -2.2324
14473TIP3   OH264833   3.584   2.044  11.554 -1.3401  0.3891  0.1494
14473TIP3    H164834   3.524   2.101  11.602 -0.5425  1.3292  0.0737
14473TIP3    H264835   3.599   2.090  11.471  1.6725  1.6812  1.2592
14474TIP3   OH264836   3.555   0.456   4.294  0.2220 -0.6297  0.1756
14474TIP3    H164837   3.629   0.406   4.259  1.2085  0.9809 -0.1247
14474TIP3    H264838   3.549   0.429   4.386  0.0931 -2.0027 -0.2143
14475TIP3   OH264839   3.768   6.565  14.223 -0.1645 -0.2317  0.2677
14475TIP3    H164840   3.811   6.481  14.241 -0.0497 -0.1343  0.4469
14475TIP3    H264841   3.730   6.591  14.308  1.1862  0.7005  0.6089
14476TIP3   OH264842   3.614   4.543   3.798  0.5170 -0.8799 -0.1803
14476TIP3    H164843   3.555   4.567   3.870  0.4498  1.9494 -1.0504
14476TIP3    H264844   3.700   4.533   3.839  0.3411 -0.0549  0.4134
14477TIP3   OH264845   4.419   4.198  12.542 -0.4249 -0.2719  0.2620
14477TIP3    H164846   4.497   4.144  12.557 -1.6649 -2.1759  0.1561
14477TIP3    H264847   4.387   4.220  12.629 -0.1061  0.0276  0.3063
14478TIP3   OH264848   1.194   3.834  12.980 -0.3357  0.6984  0.1291
14478TIP3    H164849   1.205   3.747  12.942 -1.5935  0.9254 -0.8166
14478TIP3    H264850   1.267   3.842  13.042 -0.3153 -1.0941  0.3952
14479TIP3   OH264851   4.946   3.296  13.859 -0.1170  0.1162  0.2039
14479TIP3    H164852   4.928   3.382  13.822 -0.5980  0.6942  1.7197
14479TIP3    H264853   4.969   3.242  13.784 -1.5195  1.1126 -0.9850
14480TIP3   OH264854   4.350   5.012  15.159 -0.7809 -0.1195  0.3966
14480TIP3    H164855   4.389   5.051  15.081  1.1040  0.1974  1.4342
14480TIP3    H264856   4.303   4.935  15.127 -0.8726  0.5473 -1.1413
14481TIP3   OH264857   3.541   4.104  15.733 -0.0299  0.0609 -0.5319
14481TIP3    H164858   3.549   4.134  15.824  2.0662 -0.8706 -0.3512
14481TIP3    H264859   3.511   4.014  15.740 -1.6335  0.5393 -0.8781
14482TIP3   OH264860   1.616   3.001  12.450 -0.0029  0.2706  0.1419
14482TIP3    H164861   1.594   3.084  12.408 -0.5921  0.5436  0.9801
14482TIP3    H264862   1.706   3.013  12.482  0.1089  0.3861 -0.2062
14483TIP3   OH264863   6.144   1.333   1.881  0.9442 -0.1766  0.0689
14483TIP3    H164864   6.190   1.417   1.888 -0.3367  0.4889  0.9060
14483TIP3    H264865   6.125   1.307   1.971  1.5382 -1.5076 -0.1667
14484TIP3   OH264866   2.833   5.278   2.149  0.0468  0.5730  0.3076
14484TIP3    H164867   2.849   5.185   2.159 -1.0832 -0.1318 -3.1190
14484TIP3    H264868   2.916   5.313   2.116 -0.0474  0.4232 -0.0942
14485TIP3   OH264869   2.596   6.106   0.950 -0.5593 -0.3337 -0.1220
14485TIP3    H164870   2.665   6.102   1.016 -0.8012 -0.9432  0.0926
14485TIP3    H264871   2.639   6.080   0.869  0.2371  2.2682 -0.6413
14486TIP3   OH264872   2.347   2.958  11.451  0.3395  0.0615  0.2694
14486TIP3    H164873   2.429   3.007  11.452  0.7707 -0.6221 -0.4740
14486TIP3    H264874   2.368   2.876  11.406 -0.9660  0.2546 -0.7588
14487TIP3   OH264875   5.955   6.089   0.092  0.0363  0.0931  0.2087
14487TIP3    H164876   6.015   6.066   0.163 -0.0518  1.0013  0.5919
14487TIP3    H264877   5.884   6.025   0.098  0.2445 -0.0942  0.6631
14488TIP3   OH264878   1.304   5.460  13.627  0.3005  0.4252  0.0215
14488TIP3    H164879   1.240   5.484  13.694 -0.6870  1.7362 -1.3002
14488TIP3    H264880   1.351   5.542  13.609  1.2887 -0.1662 -0.1152
14489TIP3   OH264881   2.977   2.054  11.861  0.6209 -0.0693 -0.3707
14489TIP3    H164882   2.988   1.994  11.934  1.3588 -0.4249 -0.7643
14489TIP3    H264883   2.972   2.141  11.901  1.0524 -0.2573  0.0986
14490TIP3   OH264884   2.497   6.383  11.878 -0.2625  0.2736  0.0077
14490TIP3    H164885   2.588   6.409  11.892 -0.6050  0.9295  1.1467
14490TIP3    H264886   2.446   6.442  11.933 -1.3343 -0.5041 -0.1109
14491TIP3   OH264887   0.653   4.391  11.373 -0.7289 -0.0660  0.1613
14491TIP3    H164888   0.594   4.381  11.298  0.1472 -0.5698 -0.4815
14491TIP3    H264889   0.618   4.465  11.421 -1.0834  0.5297 -0.9778
14492TIP3   OH264890   6.678   5.421  14.019 -0.2607  0.1044  0.4226
14492TIP3    H164891   6.688   5.443  13.926  1.8585 -1.7639  0.1150
14492TIP3    H264892   6.686   5.326  14.022 -2.6181 -0.1256  2.3337
14493TIP3   OH264893   2.248   0.929   3.363  0.2280 -0.1863  0.8701
14493TIP3    H164894   2.153   0.922   3.350 -0.0810 -0.8981  3.1095
14493TIP3    H264895   2.260   1.013   3.406  0.6100 -0.1174  0.6286
14494TIP3   OH264896   6.184   3.868  11.692  0.3939  0.1219  0.0673
14494TIP3    H164897   6.188   3.855  11.786 -0.6601  0.0756  0.1250
14494TIP3    H264898   6.154   3.784  11.657 -1.1617  0.7067 -0.0933
14495TIP3   OH264899   2.716   2.160  13.644  0.2731  0.7042 -0.1587
14495TIP3    H164900   2.632   2.174  13.689 -0.8817 -1.4206 -1.4172
14495TIP3    H264901   2.692   2.159  13.551  1.3076 -1.7524 -0.4725
14496TIP3   OH264902   5.404   3.067   1.937 -0.0306 -0.1611  0.2570
14496TIP3    H164903   5.386   3.094   2.027 -0.7756 -0.1556  0.1062
14496TIP3    H264904   5.327   3.094   1.887  1.3983  2.1360 -0.8750
14497TIP3   OH264905   3.061   3.643  15.321  0.1308 -0.1913 -0.2072
14497TIP3    H164906   3.007   3.720  15.341 -0.1328 -0.9005  1.9948
14497TIP3    H264907   3.137   3.651  15.378 -0.3483 -2.0158  0.7443
14498TIP3   OH264908   1.032   5.616  11.392  0.1130 -0.5126 -1.0366
14498TIP3    H164909   0.995   5.531  11.413 -1.7580  0.3174 -0.7866
14498TIP3    H264910   1.069   5.605  11.304 -1.4624 -1.2013 -1.6412
14499TIP3   OH264911   4.941   2.264   5.851  0.2056 -0.1928 -0.6815
14499TIP3    H164912   4.927   2.189   5.793 -1.6945  0.3392 -0.9926
14499TIP3    H264913   4.982   2.330   5.794 -0.1459 -0.2410 -0.9965
14500TIP3   OH264914   2.125   1.887   6.068 -0.1390 -0.5510 -0.0385
14500TIP3    H164915   2.220   1.875   6.070 -0.2175 -1.3156 -0.3717
14500TIP3    H264916   2.096   1.836   5.992 -0.5582  1.6970 -1.4643
14501TIP3   OH264917   4.347   0.293  11.366 -0.2732  0.0352 -0.0736
14501TIP3    H164918   4.415   0.228  11.344 -0.8877 -0.5227 -0.3588
14501TIP3    H264919   4.373   0.371  11.318  0.0641 -0.2399 -0.3501
14502TIP3   OH264920   2.690   3.135   0.370  1.0074 -0.3439 -0.2763
14502TIP3    H164921   2.673   3.042   0.354  0.2944 -0.3136  0.2586
14502TIP3    H264922   2.759   3.157   0.308  0.3799 -0.9494 -1.2392
14503TIP3   OH264923   2.887   2.548  15.906  0.3501 -0.0387 -0.3721
14503TIP3    H164924   2.960   2.564  15.966  2.1958 -3.7087 -1.3648
14503TIP3    H264925   2.919   2.579  15.821 -0.2239  0.4592 -0.4173
14504TIP3   OH264926   2.668   4.273   4.476 -0.5434 -0.1249  0.5605
14504TIP3    H164927   2.687   4.199   4.419 -0.0107 -0.4810  1.1880
14504TIP3    H264928   2.622   4.234   4.551  1.0083 -0.0619  1.5953
14505TIP3   OH264929   2.022   2.923   4.261 -0.2195  0.1387  0.1099
14505TIP3    H164930   2.005   2.841   4.308  1.3252 -0.6875 -0.6858
14505TIP3    H264931   2.046   2.895   4.173  0.9017  1.4134 -0.0113
14506TIP3   OH264932   4.849   3.789   5.720 -0.3593 -0.9038 -0.2446
14506TIP3    H164933   4.935   3.790   5.679 -0.3025 -0.9934 -0.1269
14506TIP3    H264934   4.864   3.823   5.808 -0.7269  0.7617 -0.7789
14507TIP3   OH264935   1.527   5.849   5.016  0.4654  0.4628 -0.1150
14507TIP3    H164936   1.583   5.926   5.030  0.4838  0.4652 -0.2058
14507TIP3    H264937   1.495   5.828   5.104  0.4102  0.6130 -0.0970
14508TIP3   OH264938   3.365   2.530  15.415  0.2574 -0.0432 -0.4240
14508TIP3    H164939   3.369   2.592  15.343 -1.6579  1.0783  0.3749
14508TIP3    H264940   3.456   2.520  15.443  0.5922  2.8462 -0.2377
14509TIP3   OH264941   4.721   2.109   3.922  0.3916 -0.2705  0.1564
14509TIP3    H164942   4.656   2.076   3.860  0.1168 -1.2862  0.9553
14509TIP3    H264943   4.695   2.199   3.940 -0.2879 -0.3915 -0.1977
14510TIP3   OH264944   0.274   3.116   0.447  0.0916  0.2530  0.2115
14510TIP3    H164945   0.369   3.115   0.448  0.1601  2.3143  1.5794
14510TIP3    H264946   0.250   3.122   0.355  1.3342  1.2324 -0.0593
14511TIP3   OH264947   1.920   2.234  17.329  0.2852 -0.6762  0.2514
14511TIP3    H164948   1.879   2.224  17.243 -0.9679  0.6151  0.6599
14511TIP3    H264949   1.881   2.164  17.382  0.2798 -0.8418  0.0282
14512TIP3   OH264950   5.620   5.728   3.898  0.0798 -0.4596 -0.4955
14512TIP3    H164951   5.574   5.768   3.824  0.8874 -0.0007 -0.7689
14512TIP3    H264952   5.563   5.657   3.927 -0.9526  0.3164 -0.5939
14513TIP3   OH264953   4.754   2.231   1.431  0.0499  0.4870 -0.2651
14513TIP3    H164954   4.779   2.177   1.506 -1.4581  0.0888 -0.0016
14513TIP3    H264955   4.704   2.303   1.470 -1.7346 -0.3304 -0.9184
14514TIP3   OH264956   0.027   0.518   6.829  0.1973 -0.8406  0.3754
14514TIP3    H164957  -0.034   0.445   6.835  0.6765 -1.3854 -1.0354
14514TIP3    H264958  -0.005   0.571   6.756  2.0256 -1.7905 -1.2089
14515TIP3   OH264959   4.535   0.562   4.628 -0.3156  0.0208  0.0865
14515TIP3    H164960   4.576   0.567   4.541  0.4084  0.5800  0.4520
14515TIP3    H264961   4.581   0.491   4.672 -0.8747 -0.4511 -0.0774
14516TIP3   OH264962   2.294   2.105   0.994  0.2622  0.0259  0.2372
14516TIP3    H164963   2.317   2.111   0.901 -3.9964 -0.7011 -1.0940
14516TIP3    H264964   2.275   2.012   1.007 -3.1148  0.6442  0.5706
14517TIP3   OH264965   0.545   0.665  12.513 -0.6718  0.4566 -0.5679
14517TIP3    H164966   0.605   0.676  12.440  1.1892 -0.2937  0.7474
14517TIP3    H264967   0.515   0.753  12.533 -1.0037  0.7002 -2.0368
14518TIP3   OH264968   0.184   0.255  12.295  0.0590  1.2656  0.1370
14518TIP3    H164969   0.273   0.222  12.298  0.3391  2.0134  0.3322
14518TIP3    H264970   0.136   0.202  12.358  0.1248  0.2007 -0.6799
14519TIP3   OH264971   0.939   1.196  15.444 -0.0830  0.2052  0.3655
14519TIP3    H164972   1.018   1.223  15.397 -0.2015  1.4571  0.8527
14519TIP3    H264973   0.871   1.256  15.414  0.2343  2.3051  3.4046
14520TIP3   OH264974   0.345   2.400  15.788  0.8024  0.0516 -0.0893
14520TIP3    H164975   0.387   2.451  15.718 -1.6191  2.6100  0.1331
14520TIP3    H264976   0.273   2.354  15.745  0.4263  0.1757  0.4018
14521TIP3   OH264977   6.442   0.204   1.892  0.1297 -0.0746 -0.1580
14521TIP3    H164978   6.369   0.265   1.904  0.4356  0.7950 -2.3344
14521TIP3    H264979   6.403   0.126   1.854  0.2616  0.2249 -0.9166
14522TIP3   OH264980   1.923   2.098   5.233 -0.1182 -0.2419 -0.1969
14522TIP3    H164981   1.843   2.090   5.182 -1.5354  2.2151  1.4451
14522TIP3    H264982   1.974   2.020   5.210 -2.2723 -1.1261 -2.4343
14523TIP3   OH264983   0.567   0.847   5.883  0.4133  0.1585  0.1507
14523TIP3    H164984   0.484   0.858   5.837  0.0582 -0.0399  0.7361
14523TIP3    H264985   0.568   0.919   5.947  1.6383  1.4332 -1.2159
14524TIP3   OH264986   0.542   3.148   0.490 -0.0539  0.0013  0.6857
14524TIP3    H164987   0.597   3.076   0.462  1.2528  0.8433  1.0007
14524TIP3    H264988   0.570   3.166   0.580  0.6847  1.8179  0.1426
14525TIP3   OH264989   1.918   0.594   1.899 -0.3352  0.7290 -0.3531
14525TIP3    H164990   1.825   0.618   1.896 -0.2071  1.2168 -0.6011
14525TIP3    H264991   1.948   0.625   1.985 -0.7303 -0.7153  0.3301
14526TIP3   OH264992   0.304   5.623  15.321 -0.4059  0.0960 -0.1062
14526TIP3    H164993   0.268   5.570  15.391  1.7302  0.7353  1.6068
14526TIP3    H264994   0.345   5.560  15.261  0.7801 -0.3383  1.1084
14527TIP3   OH264995   6.029   2.342   0.822  0.2521  0.2453 -0.3411
14527TIP3    H164996   6.096   2.382   0.767  1.2244  0.3096  0.8366
14527TIP3    H264997   6.070   2.263   0.858 -0.0229  0.6557  0.9534
14528TIP3   OH264998   5.098   3.589  15.786  0.2739 -0.7889  0.4284
14528TIP3    H164999   5.160   3.590  15.714  0.0761 -1.6272  0.2336
14528TIP3    H265000   5.149   3.613  15.863  0.9037 -1.7123  0.3135
14529TIP3   OH265001   0.624   5.061   0.048  0.5341  0.0849 -0.0690
14529TIP3    H165002   0.613   4.971   0.017 -1.7355 -0.0375  0.9232
14529TIP3    H265003   0.565   5.113  -0.006 -1.2734  0.3012  1.9761
14530TIP3   OH265004   1.975   3.848   3.953  0.2364  0.1323  0.2483
14530TIP3    H165005   1.998   3.857   4.045  0.2600 -1.5754  0.4494
14530TIP3    H265006   1.879   3.846   3.952  0.2157  0.9105  0.1363
14531TIP3   OH265007   6.349   1.779   2.016 -0.1306 -0.0975  0.4622
14531TIP3    H165008   6.435   1.779   2.058  1.9134  0.6704 -3.2962
14531TIP3    H265009   6.332   1.872   1.998 -0.6817 -0.4376 -0.7958
14532TIP3   OH265010   6.043   5.767  15.296 -0.7154 -0.5825 -0.2353
14532TIP3    H165011   6.028   5.789  15.388  0.0593 -1.1181  0.0377
14532TIP3    H265012   6.034   5.850  15.249  0.0320 -0.0801  0.4784
14533TIP3   OH265013   4.857   1.753  12.814 -0.0935 -0.0851 -0.1915
14533TIP3    H165014   4.906   1.670  12.813 -1.1425 -0.8636  2.5646
14533TIP3    H265015   4.798   1.746  12.739  2.4840 -0.0005 -2.3812
14534TIP3   OH265016   0.853   3.285  12.086 -0.4388 -0.0089 -0.4594
14534TIP3    H165017   0.798   3.236  12.025  1.6223 -3.5233  0.2194
14534TIP3    H265018   0.921   3.324  12.031  0.5832 -1.9626 -0.6690
14535TIP3   OH265019   2.147   4.602  16.819 -0.3469 -0.3207  0.0589
14535TIP3    H165020   2.199   4.578  16.742  0.9364  0.3671  0.6915
14535TIP3    H265021   2.211   4.621  16.887 -1.4159  0.8681  0.7838
14536TIP3   OH265022   6.096   3.948   2.280  0.2284  0.5028  0.3199
14536TIP3    H165023   6.005   3.969   2.302 -0.5029  0.1372 -2.0111
14536TIP3    H265024   6.091   3.861   2.240  1.1789  1.3947 -1.9473
14537TIP3   OH265025   4.197   6.646   0.226 -0.2787 -0.3600  0.6440
14537TIP3    H165026   4.239   6.562   0.212  0.3788  0.2036 -1.0101
14537TIP3    H265027   4.154   6.666   0.143  1.0229  1.6951  0.3814
14538TIP3   OH265028   0.038   3.556  13.382 -0.0612  0.0584 -0.7276
14538TIP3    H165029  -0.046   3.593  13.355 -0.3639  1.1040  1.4346
14538TIP3    H265030   0.015   3.472  13.423  0.1538 -0.4194 -1.5515
14539TIP3   OH265031   1.585   4.374  14.416  0.1174  0.0875  0.7042
14539TIP3    H165032   1.664   4.354  14.466  2.0061  0.6382 -1.8740
14539TIP3    H265033   1.616   4.418  14.338 -2.5328 -1.5257 -1.4569
14540TIP3   OH265034   4.595   5.838   5.169 -0.1554 -0.0970  0.0608
14540TIP3    H165035   4.627   5.832   5.260 -2.4735  1.2949  1.0585
14540TIP3    H265036   4.636   5.918   5.135  0.2055 -0.2673  0.0877
14541TIP3   OH265037   4.756   3.150  12.950  0.2158 -0.8496  0.1519
14541TIP3    H165038   4.795   3.131  12.865 -0.8629  1.7207 -1.0405
14541TIP3    H265039   4.665   3.175  12.929  0.0225  0.1635  2.0017
14542TIP3   OH265040   6.107   0.606  14.233  0.6445 -0.5179  0.4683
14542TIP3    H165041   6.054   0.574  14.306  1.7393 -1.1520  1.0099
14542TIP3    H265042   6.084   0.698  14.225 -0.4104 -0.7373  0.7896
14543TIP3   OH265043   4.198   1.030  14.683  0.7963 -0.3134 -0.1385
14543TIP3    H165044   4.157   1.116  14.688 -3.0047 -2.0244  2.4818
14543TIP3    H265045   4.249   1.023  14.763  0.4159 -0.8133  0.0611
14544TIP3   OH265046   3.758   6.347  15.389 -0.1286 -0.1494  0.4293
14544TIP3    H165047   3.749   6.425  15.444  2.1578  0.3636  0.1981
14544TIP3    H265048   3.847   6.352  15.354  0.3219 -3.1345  0.8211
14545TIP3   OH265049   1.580   5.228   1.999  0.4303  0.5542  0.8143
14545TIP3    H165050   1.530   5.146   1.998 -0.4866  1.0950 -0.8244
14545TIP3    H265051   1.521   5.291   2.040 -0.1704  1.1074 -0.8023
14546TIP3   OH265052   1.055   0.081  11.231 -0.4034 -0.0222  0.0531
14546TIP3    H165053   1.054   0.106  11.324  0.2395 -0.9224  0.3215
14546TIP3    H265054   1.024   0.159  11.185  2.9226  1.8943  0.7156
14547TIP3   OH265055   1.115   3.319  14.732  0.0867 -0.1139  0.1157
14547TIP3    H165056   1.065   3.241  14.758 -0.3986 -0.0096 -0.4746
14547TIP3    H265057   1.206   3.296  14.751 -0.1513 -0.4294  0.9094
14548TIP3   OH265058   4.640   6.518  11.476  0.3777  0.5774 -0.1231
14548TIP3    H165059   4.592   6.443  11.441  1.1002  0.0218  0.0376
14548TIP3    H265060   4.664   6.491  11.565  2.4670  0.1165 -0.7758
14549TIP3   OH265061   3.815   1.289   5.791 -0.1079 -0.5112 -0.9327
14549TIP3    H165062   3.745   1.328   5.842 -0.6603 -1.8669 -0.6230
14549TIP3    H265063   3.873   1.248   5.855  0.2278 -0.5840 -1.2734
14550TIP3   OH265064   6.492   0.777  16.952 -0.1093 -0.2952 -0.3169
14550TIP3    H165065   6.587   0.781  16.939  0.0576 -1.1545  0.5793
14550TIP3    H265066   6.477   0.830  17.030 -0.3611 -0.2099 -0.4225
14551TIP3   OH265067   5.948   4.080  16.814  0.1549 -0.1135  0.0459
14551TIP3    H165068   5.967   3.988  16.797 -0.2851  0.0197 -1.2911
14551TIP3    H265069   6.033   4.123  16.813  0.2598 -0.3221 -0.6051
14552TIP3   OH265070   2.889   5.954  16.032 -0.1315  0.4359  0.1061
14552TIP3    H165071   2.922   5.883  16.088 -0.4691 -0.2061 -0.4940
14552TIP3    H265072   2.915   5.929  15.944 -0.6263  0.8471 -0.1577
14553TIP3   OH265073   3.476   6.591  11.523 -0.0505 -0.0168 -0.4208
14553TIP3    H165074   3.414   6.518  11.516  1.8549 -1.6236 -2.1931
14553TIP3    H265075   3.473   6.634  11.437 -0.1232  1.1260  0.1342
14554TIP3   OH265076   2.933   0.933  14.074 -0.9034  0.1544  0.3004
14554TIP3    H165077   3.003   0.892  14.023  0.2149  2.1923  0.0992
14554TIP3    H265078   2.853   0.917  14.022 -0.6574 -2.1236  0.4917
14555TIP3   OH265079   5.595   2.676  14.959  0.2209  0.4513  0.6635
14555TIP3    H165080   5.678   2.703  14.998  0.4506  1.7997 -0.6785
14555TIP3    H265081   5.534   2.746  14.982 -0.1724  0.1930  0.4164
14556TIP3   OH265082   2.131   1.498  15.492 -0.1484 -0.4341 -0.2952
14556TIP3    H165083   2.067   1.429  15.510  1.0482 -1.2285  1.1796
14556TIP3    H265084   2.155   1.486  15.400 -1.2987 -0.8162 -0.5543
14557TIP3   OH265085   6.690   0.249   2.342 -0.3298 -0.4758 -0.1593
14557TIP3    H165086   6.773   0.205   2.324 -0.5143 -0.6607 -0.5918
14557TIP3    H265087   6.704   0.338   2.311 -0.6809 -0.8206 -1.3932
14558TIP3   OH265088   2.380   3.498  12.800 -0.2100 -0.5631 -0.0073
14558TIP3    H165089   2.384   3.499  12.896  0.2539  1.1399 -0.0160
14558TIP3    H265090   2.465   3.464  12.773 -0.0607 -0.3454  0.1841
14559TIP3   OH265091   5.434   6.624  12.235 -0.0917 -0.5387  0.1947
14559TIP3    H165092   5.455   6.678  12.159 -2.3423 -1.5653 -1.2533
14559TIP3    H265093   5.508   6.563  12.242  1.4081  1.2202  0.5060
14560TIP3   OH265094   5.214   5.615  15.359 -0.3591 -0.0764  0.0508
14560TIP3    H165095   5.193   5.707  15.374 -0.3983 -0.1887  0.7321
14560TIP3    H265096   5.238   5.581  15.446 -0.3319 -0.7003 -0.1924
14561TIP3   OH265097   3.413   5.629   4.969  0.3555 -0.0693 -0.0253
14561TIP3    H165098   3.415   5.677   5.052  0.0164 -1.5513  0.8723
14561TIP3    H265099   3.371   5.546   4.990  0.3935 -0.5453 -1.6666
14562TIP3   OH265100   3.388   1.389  11.688 -0.6686 -0.4606  0.4786
14562TIP3    H165101   3.416   1.365  11.600  0.2557 -0.4168  0.7600
14562TIP3    H265102   3.385   1.484  11.687  1.7597 -0.3371  1.2110
14563TIP3   OH265103   6.078   3.970   0.433 -0.0357 -0.4309  0.0938
14563TIP3    H165104   6.002   3.987   0.488 -0.2051  1.9427 -0.7527
14563TIP3    H265105   6.042   3.925   0.356 -0.4603 -0.0755  0.0794
14564TIP3   OH265106   4.223   5.152  12.791 -0.1909  0.1936  0.0082
14564TIP3    H165107   4.176   5.225  12.833 -1.1932 -0.4982  0.1327
14564TIP3    H265108   4.245   5.093  12.863 -0.6808 -0.3267 -0.2616
14565TIP3   OH265109   1.001   6.526  11.616 -0.2437  0.1629  0.3317
14565TIP3    H165110   1.045   6.567  11.691 -0.7163  0.2464  0.5729
14565TIP3    H265111   0.937   6.467  11.656 -1.0980  0.8419  0.0151
14566TIP3   OH265112   2.636   2.088  14.502  0.6301  0.3750  0.2063
14566TIP3    H165113   2.604   2.054  14.586  0.3501 -2.0845 -0.8125
14566TIP3    H265114   2.577   2.160  14.481 -1.5859 -1.2929  0.4387
14567TIP3   OH265115   5.856   0.372  11.540 -0.1590 -0.2348  0.8467
14567TIP3    H165116   5.791   0.306  11.517  1.9455 -1.9121 -0.7034
14567TIP3    H265117   5.919   0.325  11.595 -0.7199  1.6137  3.2367
14568TIP3   OH265118   0.382   3.714  15.976  0.2368 -0.2012 -0.1314
14568TIP3    H165119   0.304   3.752  15.936  0.0648  0.9489  1.1896
14568TIP3    H265120   0.451   3.726  15.912 -0.6278 -1.1295 -1.2743
14569TIP3   OH265121   4.901   5.156  15.038  0.0045  0.1924  0.0867
14569TIP3    H165122   4.892   5.073  14.991 -1.6290  0.3520  0.0423
14569TIP3    H265123   4.965   5.205  14.987 -2.6280  0.8865 -2.8817
14570TIP3   OH265124   2.337   2.300   4.328 -0.2691 -0.1895  0.2428
14570TIP3    H165125   2.271   2.357   4.369  1.5048  1.4384  1.0191
14570TIP3    H265126   2.335   2.220   4.380 -0.3434  0.5721  1.4595
14571TIP3   OH265127   6.085   4.660   0.890 -0.2253 -0.6212 -1.1227
14571TIP3    H165128   6.064   4.712   0.813 -2.2125 -0.5969 -0.6224
14571TIP3    H265129   6.170   4.620   0.870  0.7696  1.7665 -2.0336
14572TIP3   OH265130   0.511   0.627   0.641 -0.2837 -0.0650  0.0810
14572TIP3    H165131   0.473   0.714   0.649  0.4507  0.2088  0.7817
14572TIP3    H265132   0.560   0.630   0.559 -0.8553 -0.0562 -0.2600
14573TIP3   OH265133   2.324   6.082  15.136  0.5021  0.4272 -0.4734
14573TIP3    H165134   2.356   6.048  15.053 -0.0569  1.5805 -1.1807
14573TIP3    H265135   2.398   6.130  15.173  1.5049 -1.9344  0.8278
14574TIP3   OH265136   1.318   2.240  13.403 -0.3866 -0.5307 -0.0812
14574TIP3    H165137   1.357   2.153  13.404  2.0898  0.4025 -2.5250
14574TIP3    H265138   1.233   2.228  13.362  0.3836 -1.6919 -1.4326
14575TIP3   OH265139   3.551   6.074   5.216 -0.0676  0.0024  0.2356
14575TIP3    H165140   3.622   6.121   5.171 -0.0732 -0.7580 -0.5851
14575TIP3    H265141   3.545   6.116   5.302  0.9301  0.5107  0.0660
14576TIP3   OH265142   1.895   5.590  15.814 -0.6757  0.0934 -0.2276
14576TIP3    H165143   1.908   5.665  15.872 -1.2163 -0.2857  0.3968
14576TIP3    H265144   1.912   5.625  15.726  1.0883  0.4307  0.2229
14577TIP3   OH265145   4.922   3.385  15.600 -0.5011 -0.1301 -0.3800
14577TIP3    H165146   4.836   3.412  15.631 -0.1149 -0.7437  1.3223
14577TIP3    H265147   4.974   3.465  15.601 -0.6993 -0.0018 -0.1322
14578TIP3   OH265148   2.824   3.233  14.791  0.0472 -0.8838 -0.1399
14578TIP3    H165149   2.789   3.316  14.759  0.0088 -0.6841  0.4089
14578TIP3    H265150   2.917   3.237  14.769  0.3053 -0.1282  1.0287
14579TIP3   OH265151   5.141   5.923   5.270  0.0499  0.0776 -0.1030
14579TIP3    H165152   5.180   5.942   5.355  1.6766 -1.7005 -0.3964
14579TIP3    H265153   5.185   5.982   5.209 -0.7561  0.9922  0.1633
14580TIP3   OH265154   3.248   0.047  15.373  0.2195 -0.1022  0.1434
14580TIP3    H165155   3.199   0.085  15.446  0.2346  1.5558 -0.6614
14580TIP3    H265156   3.270  -0.042  15.402  0.6195  0.6490  2.3491
14581TIP3   OH265157   3.180   6.282   4.004 -0.2636  0.7249 -0.0756
14581TIP3    H165158   3.211   6.324   4.085 -0.4675 -0.0554  0.4167
14581TIP3    H265159   3.258   6.242   3.966 -0.1184  1.3107 -0.4097
14582TIP3   OH265160   3.036   2.297   0.964 -0.7828 -0.3178 -0.0156
14582TIP3    H165161   2.956   2.349   0.974 -0.6792  0.1250 -1.2672
14582TIP3    H265162   3.068   2.285   1.053 -1.5853  0.5472  0.4099
14583TIP3   OH265163   2.640   1.052  12.833 -0.3168  0.1787 -0.3204
14583TIP3    H165164   2.735   1.059  12.833 -0.3061  0.0879 -0.7383
14583TIP3    H265165   2.609   1.143  12.836 -0.2156  0.2174 -0.4576
14584TIP3   OH265166   6.650   3.229   2.146  0.4434  0.0876 -0.6126
14584TIP3    H165167   6.559   3.253   2.162  0.7239  0.3706  0.6238
14584TIP3    H265168   6.687   3.212   2.233  1.4153 -0.6109 -1.1373
14585TIP3   OH265169   2.828   3.824  13.444 -0.0094  0.1671 -0.8968
14585TIP3    H165170   2.853   3.818  13.352  3.7403  0.7214 -0.0718
14585TIP3    H265171   2.894   3.773  13.490 -0.8808  1.1544  1.6128
14586TIP3   OH265172   2.199   1.244   5.958 -0.7992  0.1164 -0.1011
14586TIP3    H165173   2.165   1.317   6.011 -1.2268 -1.3259  1.7194
14586TIP3    H265174   2.290   1.267   5.941 -1.1260  1.4079 -0.1957
14587TIP3   OH265175   4.824   0.640  15.674 -0.0467 -0.1485  0.0377
14587TIP3    H165176   4.747   0.605  15.630  0.1320  0.4250 -0.7458
14587TIP3    H265177   4.832   0.729  15.642  1.0573 -0.2605 -0.0512
14588TIP3   OH265178   3.330   2.039   5.703 -0.0936  0.1806 -0.3920
14588TIP3    H165179   3.422   2.049   5.730 -0.4929  1.8427  0.4928
14588TIP3    H265180   3.308   2.122   5.661 -0.3714 -1.2795 -3.3756
14589TIP3   OH265181   2.173   6.699   1.604 -0.4626 -0.5321  0.1838
14589TIP3    H165182   2.083   6.667   1.590 -0.4621 -0.3900 -0.1574
14589TIP3    H265183   2.194   6.672   1.693 -0.9788 -0.2472  0.3974
14590TIP3   OH265184   5.564   2.381  13.375  0.2854 -0.3603  0.0580
14590TIP3    H165185   5.487   2.432  13.401  0.5091  0.2748 -0.4927
14590TIP3    H265186   5.546   2.352  13.286  0.2328 -1.1202  0.3065
14591TIP3   OH265187   4.400   4.674   1.515  0.0820 -0.2688  0.7700
14591TIP3    H165188   4.474   4.686   1.457 -0.0072 -0.1088  0.6868
14591TIP3    H265189   4.383   4.762   1.550 -1.0565  0.0275 -0.4253
14592TIP3   OH265190   5.176   3.278  11.754 -0.1116 -0.5882 -0.5350
14592TIP3    H165191   5.095   3.270  11.805  0.0881 -1.4021 -0.3248
14592TIP3    H265192   5.152   3.245  11.667 -0.6135  1.3628 -1.1800
14593TIP3   OH265193   4.111   3.722  13.472  0.7026  0.6332 -0.7576
14593TIP3    H165194   4.193   3.770  13.478  0.7739  0.3371  0.8704
14593TIP3    H265195   4.086   3.704  13.562 -1.4938  1.2630 -1.1736
14594TIP3   OH265196   2.377   0.954  13.293 -0.1708  0.3977  0.2514
14594TIP3    H165197   2.423   1.033  13.265  2.1217 -1.2605 -0.9663
14594TIP3    H265198   2.311   0.939  13.225  0.3634  0.4668 -0.2833
14595TIP3   OH265199   3.582   4.684   5.599  0.0799  0.8251 -0.4170
14595TIP3    H165200   3.644   4.625   5.557 -0.4799 -0.1798  0.1330
14595TIP3    H265201   3.501   4.634   5.605 -0.7379  2.0229 -0.8949
14596TIP3   OH265202   4.212   0.353  16.780 -0.1950 -0.2253  0.0830
14596TIP3    H165203   4.123   0.365  16.747 -0.8164 -1.3489  1.2512
14596TIP3    H265204   4.207   0.373  16.873  0.8970  0.1775  0.0790
14597TIP3   OH265205   1.523   0.207   0.215 -0.1942  0.1567  0.3296
14597TIP3    H165206   1.538   0.266   0.289  0.9466 -2.5840  2.4274
14597TIP3    H265207   1.445   0.156   0.240  0.4413 -1.0756 -0.1419
14598TIP3   OH265208   0.664   6.047  12.523 -0.5408  0.2284 -0.0711
14598TIP3    H165209   0.745   6.097  12.514 -1.1755  1.0520 -1.9348
14598TIP3    H265210   0.692   5.956  12.531  0.5751  0.5574 -0.0699
14599TIP3   OH265211   6.183   4.026  12.913  0.0288 -0.3190  0.5127
14599TIP3    H165212   6.154   4.109  12.875  0.9369 -0.4872 -0.5853
14599TIP3    H265213   6.278   4.027  12.905  0.0173 -1.7928 -0.2427
14600TIP3   OH265214   5.359   3.073  15.003  0.9285  0.2806  0.1672
14600TIP3    H165215   5.335   2.980  15.003 -2.5803  1.0322 -0.3911
14600TIP3    H265216   5.291   3.115  15.057  1.3754  2.7005 -1.0275
14601TIP3   OH265217   6.102   5.779  11.574 -0.0308 -0.3815 -0.3161
14601TIP3    H165218   6.114   5.729  11.494  1.0246 -0.1794 -0.3003
14601TIP3    H265219   6.124   5.718  11.644  3.3280  0.5589 -0.3548
14602TIP3   OH265220   1.869   2.623  15.739 -0.0447  0.2502 -0.0364
14602TIP3    H165221   1.862   2.654  15.649  0.2269  0.5181  0.0336
14602TIP3    H265222   1.790   2.656  15.782 -0.1683  0.1332 -0.1687
14603TIP3   OH265223   5.127   2.582  13.643 -0.3923 -0.5314  0.0040
14603TIP3    H165224   5.142   2.674  13.666  0.3194 -1.0027  1.5442
14603TIP3    H265225   5.087   2.585  13.557  0.4891  1.1845 -0.3778
14604TIP3   OH265226   4.896   2.943  16.147  0.5810 -0.7488 -0.4167
14604TIP3    H165227   4.853   2.865  16.111  1.1858 -1.6184  0.6745
14604TIP3    H265228   4.957   2.971  16.079  0.0736 -0.9944 -0.9767
14605TIP3   OH265229   1.661   5.875   2.540 -0.0499  1.1082  0.3397
14605TIP3    H165230   1.674   5.952   2.485 -0.4113  1.3744  0.6228
14605TIP3    H265231   1.733   5.816   2.516 -0.5169  0.9918 -0.7904
14606TIP3   OH265232   1.393   3.514  11.709 -0.4040  0.2298 -0.5404
14606TIP3    H165233   1.370   3.504  11.617 -0.0592  0.2167 -0.6257
14606TIP3    H265234   1.449   3.438  11.728  1.2029  1.2852 -0.8599
14607TIP3   OH265235   4.568   1.963   4.755  0.2856  0.6045  0.0484
14607TIP3    H165236   4.531   2.016   4.685 -2.5528  2.0206  2.4010
14607TIP3    H265237   4.661   1.984   4.755  0.4268  0.4673 -3.2259
14608TIP3   OH265238   0.550   5.639  11.952 -0.5229  0.1716 -0.0553
14608TIP3    H165239   0.531   5.546  11.963  2.5000 -0.6103 -0.4139
14608TIP3    H265240   0.626   5.654  12.008 -1.4925  2.6950  0.6988
14609TIP3   OH265241   2.220   2.038  15.729 -0.1217  0.1031  0.1815
14609TIP3    H165242   2.273   2.026  15.808 -0.6824  0.1307  0.5626
14609TIP3    H265243   2.160   2.109  15.750  0.4449  0.8526 -0.6540
14610TIP3   OH265244   0.198   5.438  14.705 -0.0061 -0.1328 -0.1288
14610TIP3    H165245   0.149   5.414  14.784  1.1439  2.2580  1.4570
14610TIP3    H265246   0.219   5.531  14.717  1.6836 -0.1075 -2.4688
14611TIP3   OH265247   0.988   5.709   0.568  0.4932  0.3769  0.2634
14611TIP3    H165248   0.893   5.712   0.564  0.4979 -0.4434 -1.7536
14611TIP3    H265249   1.011   5.763   0.643 -1.4907  1.7792 -0.0693
14612TIP3   OH265250   0.374   1.568  16.917 -0.3480 -0.4167  0.5632
14612TIP3    H165251   0.322   1.492  16.890  0.6781 -0.6642 -0.8323
14612TIP3    H265252   0.465   1.541  16.903  0.3213 -0.4101  4.0124
14613TIP3   OH265253   2.716   5.797  10.964  0.3141 -0.1598 -0.2414
14613TIP3    H165254   2.739   5.762  11.050  0.5028  1.1573  0.2663
14613TIP3    H265255   2.622   5.814  10.969  0.5609  1.1500  0.1778
14614TIP3   OH265256   3.765   0.699  14.336 -0.1082 -0.8387  0.3274
14614TIP3    H165257   3.669   0.706  14.335 -0.1133 -0.9347  0.1394
14614TIP3    H265258   3.782   0.605  14.341 -0.0320 -0.7786  1.9689
14615TIP3   OH265259   2.812   4.984   4.677  0.3109  0.3160 -0.3982
14615TIP3    H165260   2.733   5.034   4.695 -0.1639 -0.6206  0.2375
14615TIP3    H265261   2.856   4.977   4.762  0.8459  0.4525 -0.6622
14616TIP3   OH265262   5.093   6.434  12.875  0.6101 -0.0378  0.4499
14616TIP3    H165263   5.141   6.421  12.956 -2.2879 -1.7322  2.0360
14616TIP3    H265264   5.004   6.457  12.902  0.0275  1.5173 -2.3031
14617TIP3   OH265265   0.808   6.322  16.184  0.6071  0.0523  0.5314
14617TIP3    H165266   0.761   6.398  16.217  0.5333 -0.1672  0.9396
14617TIP3    H265267   0.901   6.345  16.195  0.5822 -0.0551  0.9782
14618TIP3   OH265268   3.284   2.635   0.259 -0.6108 -1.0105 -0.3420
14618TIP3    H165269   3.292   2.578   0.336  0.0903  2.1766  2.1556
14618TIP3    H265270   3.193   2.664   0.259 -0.0830  0.8404  0.8458
14619TIP3   OH265271   2.476   1.525  12.374  0.0742  0.4286 -0.2351
14619TIP3    H165272   2.461   1.431  12.362 -1.2578  0.2458  2.2624
14619TIP3    H265273   2.439   1.545  12.460  2.3966  2.8002  0.3599
14620TIP3   OH265274   6.178   4.039   3.343 -0.6714  0.2013  0.8383
14620TIP3    H165275   6.180   4.132   3.367 -0.2424  0.5026 -0.2955
14620TIP3    H265276   6.161   4.039   3.248  2.9567 -0.7123  0.0369
14621TIP3   OH265277   3.021   5.530  13.403  0.9850  0.3398  0.1328
14621TIP3    H165278   3.055   5.555  13.489  2.1154  0.6496 -0.3778
14621TIP3    H265279   3.044   5.437  13.394  2.0075  0.6264 -0.3374
14622TIP3   OH265280   3.011   5.358  13.089  0.0597  0.4319 -0.0113
14622TIP3    H165281   3.057   5.441  13.090 -0.7129  0.8770 -0.1590
14622TIP3    H265282   3.051   5.308  13.018 -0.2581  1.1427 -0.6998
14623TIP3   OH265283   6.692   2.203  15.971  0.1716 -0.4879  0.5030
14623TIP3    H165284   6.727   2.158  16.048  1.3874 -1.4510 -0.5432
14623TIP3    H265285   6.698   2.137  15.901 -3.1032 -0.4440  0.0530
14624TIP3   OH265286   5.748   1.182  11.546  0.1053 -0.1449  0.6996
14624TIP3    H165287   5.720   1.211  11.459 -1.5808  0.0257  1.2696
14624TIP3    H265288   5.686   1.223  11.606  1.7598  0.4510  2.0884
14625TIP3   OH265289   0.278   1.869  17.110 -0.0503  0.1204 -0.2158
14625TIP3    H165290   0.190   1.855  17.075  0.2670 -0.1068 -0.9389
14625TIP3    H265291   0.333   1.881  17.033  0.7083 -0.6694  0.1822
14626TIP3   OH265292   1.666   0.803  11.801 -0.2029 -0.1259  0.1178
14626TIP3    H165293   1.605   0.853  11.854 -1.0681 -1.0448  0.0193
14626TIP3    H265294   1.668   0.716  11.842  0.7335 -0.2297 -0.1165
14627TIP3   OH265295   2.142   4.484   1.710  0.1023  0.3786 -0.5401
14627TIP3    H165296   2.159   4.479   1.804 -0.3837 -2.5403 -0.5163
14627TIP3    H265297   2.063   4.537   1.703 -1.5376 -1.6729  1.0431
14628TIP3   OH265298   5.317   0.587  11.545  0.3634  0.1971 -0.6899
14628TIP3    H165299   5.235   0.538  11.541  1.1085 -1.0679 -1.4048
14628TIP3    H265300   5.290   0.679  11.551 -1.1265 -0.0746 -2.2625
14629TIP3   OH265301   0.820   5.836   4.465  0.3875 -0.0838 -0.4321
14629TIP3    H165302   0.822   5.786   4.383  0.1749 -0.9380  0.0817
14629TIP3    H265303   0.778   5.919   4.440 -1.2797 -0.9961 -0.8424
14630TIP3   OH265304   5.346   2.169   6.452 -0.0356  0.1560  0.2483
14630TIP3    H165305   5.315   2.204   6.536 -0.7411  0.4064 -0.1139
14630TIP3    H265306   5.267   2.140   6.407  0.4496 -1.0362  0.1379
14631TIP3   OH265307   5.053   0.042   3.314 -0.0396  0.1142  0.1089
14631TIP3    H165308   5.038  -0.032   3.255  0.2083 -0.5994  0.9188
14631TIP3    H265309   4.996   0.025   3.389 -0.8662  1.3616 -0.2019
14632TIP3   OH265310   3.739   1.661   2.639  0.1473 -0.0674  0.3898
14632TIP3    H165311   3.756   1.568   2.629  1.5666  0.1057  1.0786
14632TIP3    H265312   3.643   1.667   2.642  0.0521 -1.6458  1.7421
14633TIP3   OH265313   6.117   6.748   2.424 -0.3217 -0.3765  0.5412
14633TIP3    H165314   6.151   6.795   2.500 -1.6688  1.7150 -0.0579
14633TIP3    H265315   6.181   6.763   2.354  0.8267 -2.1520  1.1342
14634TIP3   OH265316   3.300   0.809   0.606 -0.0117 -0.1077  0.2928
14634TIP3    H165317   3.378   0.816   0.662 -1.1918  3.3712  1.7950
14634TIP3    H265318   3.324   0.854   0.525  0.5137 -1.9784 -0.6568
14635TIP3   OH265319   6.660   3.531   1.752 -0.4131 -0.4475 -0.4065
14635TIP3    H165320   6.564   3.540   1.752 -0.2706  2.3774  2.1014
14635TIP3    H265321   6.679   3.480   1.831  0.2196 -0.4872 -0.5790
14636TIP3   OH265322   5.881   2.518  12.480  0.0377  0.0550 -0.0817
14636TIP3    H165323   5.896   2.611  12.495  0.3157 -0.3717  3.1354
14636TIP3    H265324   5.934   2.497  12.404  2.2849  1.9865  0.8268
14637TIP3   OH265325   4.880   5.898   5.363  0.2818 -0.5008  0.3986
14637TIP3    H165326   4.916   5.871   5.447  1.0547 -2.5926 -0.5335
14637TIP3    H265327   4.957   5.923   5.311 -0.0406 -0.5609 -0.1197
14638TIP3   OH265328   3.943   1.760  15.307 -0.1849  0.0908 -0.2620
14638TIP3    H165329   4.031   1.758  15.343  0.0008 -0.5252 -0.7256
14638TIP3    H265330   3.903   1.838  15.344  0.3742  0.0792  0.3782
14639TIP3   OH265331   1.035   6.182   4.181 -0.2455  0.2733 -0.0858
14639TIP3    H165332   0.943   6.170   4.203 -0.2206  0.5050  0.1548
14639TIP3    H265333   1.047   6.134   4.099  0.0727 -2.1462  1.2825
14640TIP3   OH265334   4.069   1.644   2.780 -0.1785  0.0473  0.3275
14640TIP3    H165335   4.091   1.624   2.689 -0.2354  0.0445  0.3142
14640TIP3    H265336   4.153   1.664   2.821 -0.1028 -0.3669  0.3789
14641TIP3   OH265337   3.555   5.815  12.889 -0.4493  0.5985 -0.3600
14641TIP3    H165338   3.512   5.857  12.963  0.6587 -1.8984  1.8474
14641TIP3    H265339   3.620   5.757  12.928  0.8371 -0.1792 -3.3472
14642TIP3   OH265340   1.198   0.748  13.942  0.3075  0.2174 -0.0176
14642TIP3    H165341   1.265   0.704  13.994 -1.2650 -0.6616  1.3568
14642TIP3    H265342   1.246   0.787  13.869  1.9731 -3.1260 -0.9322
14643TIP3   OH265343   4.123   6.081  16.603  0.1835  0.0752  0.0895
14643TIP3    H165344   4.198   6.037  16.565  0.7196  1.0563 -0.0309
14643TIP3    H265345   4.063   6.094  16.530  1.0923  1.7139 -0.4137
14644TIP3   OH265346   0.345   5.189  16.043  0.2999 -0.2785 -0.5859
14644TIP3    H165347   0.358   5.134  15.966  0.6698  0.8469 -1.3492
14644TIP3    H265348   0.397   5.267  16.026 -0.1745  0.2959  0.4943
14645TIP3   OH265349   2.744   5.574   1.268  0.0377  0.4701 -0.3860
14645TIP3    H165350   2.750   5.514   1.194  0.7284 -0.4204  0.3758
14645TIP3    H265351   2.758   5.520   1.345 -0.5438  1.4011  0.4096
14646TIP3   OH265352   1.855   5.339   2.254  0.2118  0.0521 -0.7671
14646TIP3    H165353   1.828   5.416   2.205 -0.3207 -0.0936 -0.7051
14646TIP3    H265354   1.805   5.344   2.335  1.1026  0.3088 -0.2112
14647TIP3   OH265355   2.367   5.676   4.607  0.3007  0.0213 -0.5291
14647TIP3    H165356   2.279   5.680   4.644  0.1253  1.9105 -1.0375
14647TIP3    H265357   2.352   5.657   4.514  0.5331 -0.9805 -0.3764
14648TIP3   OH265358   5.830   0.770  12.216 -0.2783 -0.5524 -0.0742
14648TIP3    H165359   5.747   0.727  12.195 -0.1068 -0.1393 -1.7189
14648TIP3    H265360   5.896   0.704  12.196 -0.1793 -0.6868  0.6888
14649TIP3   OH265361   5.267   4.758   1.044 -0.5605  0.3601  0.3175
14649TIP3    H165362   5.206   4.692   1.077  1.0154 -0.4631  1.7258
14649TIP3    H265363   5.335   4.708   0.999  0.6150  0.9922  1.3278
14650TIP3   OH265364   4.244   3.892  16.265  0.0402 -0.0049 -0.2580
14650TIP3    H165365   4.186   3.817  16.260 -1.4740  1.0768  0.5053
14650TIP3    H265366   4.288   3.883  16.349 -0.3145  0.0949 -0.0632
14651TIP3   OH265367   2.685   6.616  16.362  0.4690 -0.2214  0.1957
14651TIP3    H165368   2.755   6.606  16.297  0.3341 -0.0275  0.0192
14651TIP3    H265369   2.731   6.634  16.444  0.5979  3.2294 -0.4959
14652TIP3   OH265370   6.428   2.626   3.509 -0.5431  0.6537  0.1639
14652TIP3    H165371   6.370   2.564   3.463 -1.6140  0.6487  1.4831
14652TIP3    H265372   6.399   2.712   3.480  0.8190  0.6106 -1.5188
14653TIP3   OH265373   4.275   3.676   2.092 -0.5574  0.2492  0.0745
14653TIP3    H165374   4.233   3.759   2.071 -1.5073 -0.7768 -2.4112
14653TIP3    H265375   4.222   3.610   2.049  1.2893 -1.4870  0.2995
14654TIP3   OH265376   4.426   1.156   4.462 -0.6760  0.1247  0.2663
14654TIP3    H165377   4.439   1.102   4.540  0.9829 -0.8528 -0.6432
14654TIP3    H265378   4.510   1.198   4.447 -1.1215  0.7125 -0.7056
14655TIP3   OH265379   3.558   2.317  15.232 -0.2738 -0.0221  0.1573
14655TIP3    H165380   3.556   2.283  15.321  0.5841  3.0514  1.5043
14655TIP3    H265381   3.626   2.266  15.187  0.3721 -0.5951  1.7362
14656TIP3   OH265382   0.089   3.467  12.865  0.5034  0.0749  0.3164
14656TIP3    H165383   0.083   3.377  12.834  2.5424  0.3222 -1.0186
14656TIP3    H265384   0.035   3.517  12.803  0.1011 -0.1010  0.5198
14657TIP3   OH265385   2.507   1.439   2.525  0.1413 -0.0790  0.4235
14657TIP3    H165386   2.546   1.386   2.455 -0.0193 -0.3707  0.5533
14657TIP3    H265387   2.552   1.523   2.519  1.5978 -0.7486  1.2785
14658TIP3   OH265388   3.867   0.713   5.369 -0.1918  0.4723 -0.2555
14658TIP3    H165389   3.816   0.718   5.288 -0.1452 -2.1527 -0.5422
14658TIP3    H265390   3.958   0.715   5.340 -0.1617  1.0479 -0.1236
14659TIP3   OH265391   0.717   6.623  16.811 -0.4603  0.0402  0.2654
14659TIP3    H165392   0.629   6.608  16.776 -0.9691  0.0713  1.4801
14659TIP3    H265393   0.773   6.628  16.734 -1.6063  0.5608 -0.5640
14660TIP3   OH265394   0.479   1.371   4.037  0.2145 -0.1975 -0.1998
14660TIP3    H165395   0.563   1.352   3.995 -0.0821 -0.0846 -0.8611
14660TIP3    H265396   0.503   1.421   4.116  0.6867  1.7091 -1.4654
14661TIP3   OH265397   1.585   2.718  13.526  0.2547  0.4024 -0.2895
14661TIP3    H165398   1.563   2.773  13.601 -1.7447 -1.7947  0.8609
14661TIP3    H265399   1.567   2.773  13.450 -1.6661  1.3734  0.7882
14662TIP3   OH265400   1.697   2.184   0.199  0.8231  0.3163 -1.0526
14662TIP3    H165401   1.721   2.161   0.289 -1.0763  1.2931 -0.2363
14662TIP3    H265402   1.731   2.112   0.146  3.8600  0.6988  0.1229
14663TIP3   OH265403   0.047   5.671  15.840 -0.0053  0.2454 -1.2931
14663TIP3    H165404   0.080   5.750  15.883  0.6956 -0.2018 -0.9895
14663TIP3    H265405   0.126   5.626  15.808 -0.1587 -1.4861  0.5396
14664TIP3   OH265406   5.357   0.259   5.422 -0.0071 -0.3284  0.2205
14664TIP3    H165407   5.311   0.312   5.357 -0.1414 -1.7738 -0.9139
14664TIP3    H265408   5.450   0.275   5.405 -0.0399  1.1020  1.2472
14665TIP3   OH265409   3.993   0.180   4.966 -0.0778  0.0828  0.2343
14665TIP3    H165410   3.992   0.212   5.056  1.4384 -0.9110  0.6353
14665TIP3    H265411   3.942   0.099   4.969 -0.7202  0.4634 -0.0025
14666TIP3   OH265412   5.012   0.818  12.150  0.2287 -0.7212 -0.3369
14666TIP3    H165413   4.945   0.771  12.101  0.0546 -1.9547  1.0307
14666TIP3    H265414   5.064   0.750  12.192  0.0117  0.2635  1.6483
14667TIP3   OH265415   2.913   3.084  14.322  0.0941  0.3398  0.0936
14667TIP3    H165416   2.994   3.070  14.273  1.5325 -1.5695  2.7479
14667TIP3    H265417   2.936   3.148  14.389 -0.8246  0.3549  0.4167
14668TIP3   OH265418   3.932   3.052   3.156  0.3986  0.2150 -0.1539
14668TIP3    H165419   3.913   3.078   3.065  3.1234 -1.3380 -1.2989
14668TIP3    H265420   3.904   2.960   3.159 -3.0163  1.1455  1.8110
14669TIP3   OH265421   3.891   1.238  13.757 -0.2684  0.4522  0.0250
14669TIP3    H165422   3.877   1.318  13.809 -1.2441  0.6680 -0.5461
14669TIP3    H265423   3.933   1.269  13.677 -2.1798  0.6510 -0.9407
14670TIP3   OH265424   6.354   1.259  12.046  0.3332 -0.3542 -0.3626
14670TIP3    H165425   6.383   1.272  11.956 -0.3512 -1.1324 -0.7060
14670TIP3    H265426   6.258   1.266  12.042  0.2436 -1.1421  0.1701
14671TIP3   OH265427   5.047   4.244   2.536 -0.0666 -0.3837 -0.0936
14671TIP3    H165428   5.059   4.173   2.473  2.4203 -0.2398  0.1199
14671TIP3    H265429   5.118   4.232   2.600 -0.5888  1.3333  0.8805
14672TIP3   OH265430   5.846   4.123  15.658 -0.5816  0.4367 -0.0481
14672TIP3    H165431   5.810   4.197  15.609  0.8652  0.5777 -0.9492
14672TIP3    H265432   5.909   4.163  15.719  0.6295 -0.0596 -0.9353
14673TIP3   OH265433   3.470   5.492   1.535 -0.0092 -0.1119 -0.6132
14673TIP3    H165434   3.529   5.425   1.570 -1.4126 -1.4371 -0.6575
14673TIP3    H265435   3.425   5.528   1.611 -1.1417 -1.1259 -0.7536
14674TIP3   OH265436   6.334   0.242  16.609  0.3025  0.3021  0.7026
14674TIP3    H165437   6.408   0.205  16.655  0.6358  1.1040  0.8268
14674TIP3    H265438   6.347   0.337  16.615 -0.1728  0.4323 -0.1725
14675TIP3   OH265439   3.321   6.155  12.684 -0.0153 -0.3811  0.1999
14675TIP3    H165440   3.314   6.080  12.625 -0.7959 -0.4079  0.3175
14675TIP3    H265441   3.403   6.140  12.731  0.3718 -0.6081 -0.5266
14676TIP3   OH265442   5.335   4.235  14.750 -0.4327 -0.6119 -0.0062
14676TIP3    H165443   5.335   4.196  14.837 -0.7791  2.0755  1.2732
14676TIP3    H265444   5.415   4.287  14.746 -0.6439 -0.3370 -1.1260
14677TIP3   OH265445   6.420   3.768  11.455 -0.0371  0.1542 -0.1600
14677TIP3    H165446   6.471   3.728  11.385 -0.4996 -1.2399  0.2693
14677TIP3    H265447   6.402   3.696  11.515 -2.5169  0.5870 -0.3005
14678TIP3   OH265448   6.403   0.318  14.268 -0.2403 -0.1733  0.2884
14678TIP3    H165449   6.479   0.351  14.315 -0.3205 -1.8949  1.7364
14678TIP3    H265450   6.330   0.324  14.330 -0.4552 -2.0189  0.2943
14679TIP3   OH265451   2.282   0.558   4.578 -0.9277  0.1843  0.1816
14679TIP3    H165452   2.343   0.522   4.514 -1.5744  0.6475 -0.7217
14679TIP3    H265453   2.242   0.633   4.534 -2.7656 -0.6034  0.4114
14680TIP3   OH265454   1.817   0.264  11.836 -0.0149 -0.1638  0.7262
14680TIP3    H165455   1.798   0.170  11.833 -0.6518 -0.0742  1.6955
14680TIP3    H265456   1.741   0.303  11.879  0.4792  0.7348  0.8078
14681TIP3   OH265457   0.537   5.692   4.318 -0.2222  0.1886  0.2100
14681TIP3    H165458   0.620   5.738   4.317  0.3519 -0.8146  0.4453
14681TIP3    H265459   0.495   5.715   4.235  1.0289 -0.6059 -0.6740
14682TIP3   OH265460   1.605   6.065   2.859  0.2716  0.2931  0.3321
14682TIP3    H165461   1.517   6.039   2.886  0.7447 -0.5931  1.0959
14682TIP3    H265462   1.607   6.050   2.765  0.0354 -1.0095  0.5209
14683TIP3   OH265463   3.880   3.513  13.161 -0.3367 -0.4285  0.0666
14683TIP3    H165464   3.957   3.557  13.128 -0.1468 -1.3282 -0.7265
14683TIP3    H265465   3.897   3.502  13.255 -0.3546  1.0594  0.2648
14684TIP3   OH265466   2.724   4.992  15.833 -0.1299 -0.0268  0.5190
14684TIP3    H165467   2.684   4.956  15.912 -0.4099 -1.4317 -0.2234
14684TIP3    H265468   2.661   5.057  15.801 -0.1053  0.4059  1.3283
14685TIP3   OH265469   5.521   4.249  12.777  0.6531  0.2328  0.3736
14685TIP3    H165470   5.427   4.235  12.789  0.7253 -0.8205 -0.1352
14685TIP3    H265471   5.543   4.195  12.701  1.7376  0.1695  0.7226
14686TIP3   OH265472   1.274   6.025  16.298  0.2623  0.3141  0.1108
14686TIP3    H165473   1.180   6.012  16.280  0.5103 -3.5544  0.6403
14686TIP3    H265474   1.279   6.039  16.392  0.2715 -2.1192  0.5335
14687TIP3   OH265475   4.791   4.317   0.231  0.0791  0.1362 -0.9298
14687TIP3    H165476   4.767   4.354   0.316  3.0308 -0.6772  0.3985
14687TIP3    H265477   4.763   4.226   0.236 -0.7248  0.3597 -1.2853
14688TIP3   OH265478   1.744   3.842  15.061  0.1301 -0.0884 -0.2036
14688TIP3    H165479   1.821   3.798  15.098 -0.5551 -0.8882  0.3097
14688TIP3    H265480   1.677   3.774  15.057 -0.3104  0.3929 -1.4334
14689TIP3   OH265481   1.872   4.730   3.406 -0.2691 -0.3225 -0.3230
14689TIP3    H165482   1.943   4.793   3.400 -1.0944  0.8384  1.2781
14689TIP3    H265483   1.910   4.648   3.375  1.3806  0.5503 -0.7078
14690TIP3   OH265484   5.295   4.480   0.385  0.2270  0.1331  0.5112
14690TIP3    H165485   5.204   4.477   0.355  0.7601  3.4348 -1.8507
14690TIP3    H265486   5.342   4.425   0.323  0.2718  1.0884 -0.3252
14691TIP3   OH265487   5.473   6.146  12.915  0.4953 -0.5341 -0.0554
14691TIP3    H165488   5.472   6.241  12.911  1.0860 -0.5358 -0.2964
14691TIP3    H265489   5.550   6.120  12.864  1.1905 -1.0793  1.2366
14692TIP3   OH265490   4.996   3.767  16.088 -0.1889  0.1884 -0.6042
14692TIP3    H165491   4.908   3.783  16.121 -0.6719 -0.8092 -1.3680
14692TIP3    H265492   5.032   3.854  16.074 -0.7285  0.6197  0.5217
14693TIP3   OH265493   4.169   0.337  13.406  0.8668  0.9024  0.5869
14693TIP3    H165494   4.163   0.371  13.317  2.4843  0.4586  0.2760
14693TIP3    H265495   4.108   0.390  13.456 -0.2167  1.0342 -0.8099
14694TIP3   OH265496   0.697   5.907  15.226  0.3753  0.0120  0.8062
14694TIP3    H165497   0.782   5.876  15.257  0.3850 -1.0201 -0.1793
14694TIP3    H265498   0.717   5.970  15.157  0.3825 -1.1576 -0.3073
14695TIP3   OH265499   1.095   3.641   4.297 -0.0525 -0.4810 -0.4779
14695TIP3    H165500   1.058   3.659   4.210 -0.9919 -0.5928 -0.1119
14695TIP3    H265501   1.116   3.548   4.295 -2.0084 -0.9805  0.0894
14696TIP3   OH265502   3.829   0.784   1.146 -0.2747 -0.0323 -0.0591
14696TIP3    H165503   3.815   0.702   1.194  0.8479  0.4868  1.1800
14696TIP3    H265504   3.920   0.808   1.163  0.0259  0.4608 -2.0347
14697TIP3   OH265505   3.940   4.664   5.729  0.1433 -0.0760  1.0340
14697TIP3    H165506   3.905   4.638   5.644  0.0636  0.5690  0.8637
14697TIP3    H265507   4.000   4.593   5.753 -1.3455 -1.2764  1.3929
14698TIP3   OH265508   3.053   3.410  14.745  0.7877 -0.1345 -0.3298
14698TIP3    H165509   3.038   3.498  14.779  0.7362 -0.8042  1.4699
14698TIP3    H265510   3.140   3.415  14.704  0.6997  0.7925 -0.4345
14699TIP3   OH265511   1.425   3.634  17.299 -0.4564  0.1544 -0.7244
14699TIP3    H165512   1.333   3.656  17.284 -0.3686  0.6003 -0.6071
14699TIP3    H265513   1.473   3.712  17.271 -0.1865  0.3853  0.3609
14700TIP3   OH265514   6.355   0.259  12.931  0.1031 -0.4490 -0.8408
14700TIP3    H165515   6.428   0.321  12.940 -0.0951 -0.2902 -0.2692
14700TIP3    H265516   6.330   0.264  12.839  1.2206 -0.9670 -1.1834
14701TIP3   OH265517   4.208   2.093  13.016 -0.1054  0.3360  0.1666
14701TIP3    H165518   4.170   2.137  13.092  1.0540  1.0966  0.3268
14701TIP3    H265519   4.205   2.159  12.946 -0.4939 -0.1162 -0.2513
14702TIP3   OH265520   0.123   1.877   1.755 -0.6675 -0.3171  0.7009
14702TIP3    H165521   0.194   1.813   1.759 -0.5870 -0.3034 -0.2540
14702TIP3    H265522   0.164   1.959   1.784 -0.8991 -0.7815  2.4145
14703TIP3   OH265523   4.709   5.175  12.528  0.0779 -0.1709  0.8315
14703TIP3    H165524   4.697   5.270  12.537 -1.1229 -0.1376 -0.6725
14703TIP3    H265525   4.804   5.164  12.521  0.2074  0.9776  0.4881
14704TIP3   OH265526   3.528   4.300   5.891 -0.0188 -0.3341 -0.7800
14704TIP3    H165527   3.547   4.210   5.863  0.1456  0.1903 -2.4692
14704TIP3    H265528   3.614   4.343   5.894 -0.3562  0.9199 -4.3953
14705TIP3   OH265529   2.432   2.194   2.991 -0.5097 -0.4667  0.3157
14705TIP3    H165530   2.467   2.262   3.049  0.6580 -1.0393  0.3133
14705TIP3    H265531   2.455   2.112   3.034 -0.1012 -0.8917 -0.6810
14706TIP3   OH265532   4.498   6.045   0.345  0.7732  0.2197  0.4739
14706TIP3    H165533   4.452   6.108   0.290  0.8018 -1.1766 -1.2795
14706TIP3    H265534   4.432   6.011   0.405 -0.3877 -1.1744 -1.4770
14707TIP3   OH265535   1.134   2.018  12.815 -0.0795 -0.0294  0.0823
14707TIP3    H165536   1.111   2.036  12.724  0.6611  0.4983 -0.0006
14707TIP3    H265537   1.227   2.037  12.821 -0.1441  0.0426  0.9791
14708TIP3   OH265538   3.710   5.053   2.665 -0.3398 -0.0688 -0.7461
14708TIP3    H165539   3.795   5.095   2.647  1.3635 -2.6648  0.6374
14708TIP3    H265540   3.693   5.002   2.586  0.2569 -0.8256 -0.4003
14709TIP3   OH265541   1.720   0.073  16.698 -0.0585  0.1897 -0.1920
14709TIP3    H165542   1.655   0.010  16.731  1.0544 -2.5283 -2.7837
14709TIP3    H265543   1.680   0.108  16.618  0.3283  1.0334 -0.0204
14710TIP3   OH265544   1.278   6.578   4.565  0.0255 -0.2328 -0.7628
14710TIP3    H165545   1.312   6.599   4.478 -1.1026  3.9373 -0.4270
14710TIP3    H265546   1.350   6.534   4.610  1.6895  0.1779 -2.8777
14711TIP3   OH265547   4.224   5.128  15.381  0.5052 -0.3725 -0.2050
14711TIP3    H165548   4.257   5.068  15.449  0.6228  0.9227  0.9252
14711TIP3    H265549   4.237   5.080  15.299  3.8391 -0.5852  0.2795
14712TIP3   OH265550   4.098   1.628  16.938 -0.0475  0.0196 -0.4282
14712TIP3    H165551   4.174   1.635  16.880 -0.6370 -0.4073 -1.2797
14712TIP3    H265552   4.135   1.604  17.023  0.7570 -0.4309 -0.8890
14713TIP3   OH265553   2.473   6.601  14.819  0.1836  0.1204  0.0257
14713TIP3    H165554   2.505   6.560  14.899  1.0256  2.7931  1.1535
14713TIP3    H265555   2.444   6.688  14.846  0.3612  1.0657 -2.5598
14714TIP3   OH265556   5.826   4.920  15.758  0.2609  0.5693  0.1871
14714TIP3    H165557   5.762   4.853  15.735  1.2148 -0.6886  1.0555
14714TIP3    H265558   5.909   4.885  15.725  0.7154  1.5201  0.2952
14715TIP3   OH265559   0.586   3.740   2.245  0.5890 -0.4203 -0.6973
14715TIP3    H165560   0.659   3.785   2.287  1.7002 -1.2231 -1.6862
14715TIP3    H265561   0.588   3.651   2.282 -0.4482 -0.2121 -0.0940
14716TIP3   OH265562   3.652   3.810   2.893 -0.3553  0.5168  0.4800
14716TIP3    H165563   3.721   3.752   2.927 -0.4084 -0.5064 -1.0694
14716TIP3    H265564   3.571   3.777   2.931 -0.4368 -0.7353 -0.7150
14717TIP3   OH265565   2.333   3.350  11.872 -0.6909  0.5935  0.2865
14717TIP3    H165566   2.330   3.261  11.837  0.3359  1.0352 -1.0240
14717TIP3    H265567   2.389   3.343  11.949  1.4406  0.4724 -1.1873
14718TIP3   OH265568   1.713   3.397  15.006  0.3322 -0.3797 -0.3950
14718TIP3    H165569   1.678   3.367  15.091  1.3672 -0.5152 -0.0027
14718TIP3    H265570   1.703   3.321  14.949  1.0757 -0.8161  0.0419
14719TIP3   OH265571   0.356   6.387  16.180  0.0573  0.3539 -0.0791
14719TIP3    H165572   0.360   6.303  16.134  1.4393 -0.4961  1.4531
14719TIP3    H265573   0.415   6.444  16.132 -0.8837  0.4761 -1.1266
14720TIP3   OH265574   5.401   5.832  14.097 -0.5541  0.1075  0.3029
14720TIP3    H165575   5.475   5.831  14.158 -0.4863  0.3360  0.2251
14720TIP3    H265576   5.440   5.854  14.013 -0.2720 -2.5421 -0.3305
14721TIP3   OH265577   2.925   0.327   0.218  0.1318 -0.4263 -0.3463
14721TIP3    H165578   2.993   0.375   0.170 -1.0182  1.3639 -0.2648
14721TIP3    H265579   2.851   0.325   0.159  0.1543 -2.1916 -0.3525
14722TIP3   OH265580   2.302   6.432  11.287 -0.1304 -0.3719  0.1036
14722TIP3    H165581   2.362   6.435  11.362  3.4947 -0.6962 -2.4898
14722TIP3    H265582   2.359   6.411  11.213 -3.7478 -1.8090 -2.5255
14723TIP3   OH265583   5.531   6.052  15.088  0.7335 -0.0515  0.3215
14723TIP3    H165584   5.623   6.062  15.065  0.4565  1.0257 -0.3721
14723TIP3    H265585   5.526   5.966  15.130  1.6559 -1.1397 -1.6492
14724TIP3   OH265586   0.375   5.278   4.299 -0.1097 -0.1855 -0.3230
14724TIP3    H165587   0.439   5.266   4.229 -0.4227 -1.3026 -0.4359
14724TIP3    H265588   0.301   5.223   4.274 -1.2578  1.3076 -0.3467
14725TIP3   OH265589   6.678   0.283  14.318  0.0668  0.7172 -0.1618
14725TIP3    H165590   6.693   0.338  14.395  0.1871 -0.1188  0.4207
14725TIP3    H265591   6.667   0.195  14.353 -0.7162  0.4514 -1.0366
14726TIP3   OH265592   1.289   3.254  15.576  0.0505  0.4199 -0.0729
14726TIP3    H165593   1.297   3.213  15.490  1.7176  0.1035  0.1979
14726TIP3    H265594   1.215   3.209  15.616 -0.1266 -0.1232 -0.9726
14727TIP3   OH265595   0.059   0.041   0.030 -0.1470 -0.2335  0.6324
14727TIP3    H165596   0.023   0.109  -0.027 -1.5494 -0.5026  1.1693
14727TIP3    H265597   0.154   0.055   0.026 -0.3663  1.4141  0.3135
14728TIP3   OH265598   5.207   1.414   5.369  0.1445  0.1195 -0.8705
14728TIP3    H165599   5.119   1.450   5.354  0.6693  2.4068  0.9069
14728TIP3    H265600   5.217   1.414   5.464  1.0079 -2.9865 -0.8795
14729TIP3   OH265601   3.239   1.963  15.431  0.3449 -0.6993 -0.2870
14729TIP3    H165602   3.242   1.925  15.519  0.4881  0.5738  0.2789
14729TIP3    H265603   3.317   1.929  15.388  1.4562  0.3617  0.8203
14730TIP3   OH265604   0.498   6.659  14.260 -0.2566  0.6502  0.2190
14730TIP3    H165605   0.415   6.679  14.217  0.5042  3.1859 -0.2633
14730TIP3    H265606   0.554   6.734  14.238  0.8847  1.0065  3.7783
14731TIP3   OH265607   5.992   5.168   5.636  0.0332  0.3885 -0.1601
14731TIP3    H165608   5.958   5.212   5.714  1.0260  1.0325 -0.0847
14731TIP3    H265609   5.921   5.175   5.572 -0.4351  0.6538  0.3812
14732TIP3   OH265610   6.645   5.363  11.563 -0.0280  0.4956  0.1721
14732TIP3    H165611   6.680   5.276  11.583 -1.1963 -0.1634 -0.5851
14732TIP3    H265612   6.676   5.418  11.635 -0.4293 -0.8383  1.4113
14733TIP3   OH265613   6.679   4.900  11.885 -0.6812  0.5886  0.2320
14733TIP3    H165614   6.737   4.954  11.938  0.1610 -1.3705  1.4051
14733TIP3    H265615   6.734   4.872  11.811 -1.2271  1.5732 -0.5807
14734TIP3   OH265616   2.472   4.146  17.038  0.6235  0.3016 -0.0218
14734TIP3    H165617   2.487   4.070  17.094  2.9342  0.3440 -0.4607
14734TIP3    H265618   2.525   4.215  17.078  1.4721  0.6236 -1.6373
14735TIP3   OH265619   1.653   2.510  12.249 -0.0119 -0.3441  0.5188
14735TIP3    H165620   1.711   2.527  12.174 -0.2949 -0.5512  0.2532
14735TIP3    H265621   1.615   2.596  12.269 -1.5764 -0.6541 -0.9337
14736TIP3   OH265622   0.276   4.661  13.561  0.0953 -0.1753  0.0565
14736TIP3    H165623   0.211   4.635  13.626 -0.6673 -0.8811 -0.9669
14736TIP3    H265624   0.360   4.636  13.600 -0.3212 -0.4053  0.8404
14737TIP3   OH265625   1.347   5.160  15.764  0.2675  0.0261 -0.4686
14737TIP3    H165626   1.403   5.119  15.830 -0.0425  1.2705  0.6193
14737TIP3    H265627   1.288   5.090  15.735 -0.4151 -0.2911  1.5161
14738TIP3   OH265628   5.653   2.278  16.835 -0.3468  0.5108 -0.1786
14738TIP3    H165629   5.739   2.301  16.868 -0.6634 -0.3131  1.2809
14738TIP3    H265630   5.669   2.245  16.746  0.7019  1.2819 -0.2944
14739TIP3   OH265631   3.724   5.874   5.024 -1.1793 -0.0945  0.2960
14739TIP3    H165632   3.729   5.965   5.055 -1.5584 -0.2196  0.7467
14739TIP3    H265633   3.655   5.875   4.958 -1.5141 -0.1409  0.6392
14740TIP3   OH265634   4.002   3.098   5.530 -1.1268  0.1572  0.1498
14740TIP3    H165635   4.064   3.051   5.587 -0.0715  1.0834 -0.2164
14740TIP3    H265636   3.964   3.030   5.475  1.9453 -0.1162 -1.8631
14741TIP3   OH265637   2.145   5.534   4.862 -0.6775  0.3465 -0.4831
14741TIP3    H165638   2.116   5.443   4.862  1.5293 -0.4411  0.4993
14741TIP3    H265639   2.111   5.570   4.780 -3.2989 -0.7228  0.0307
14742TIP3   OH265640   4.132   4.342   1.007  0.3493  0.0799  0.1195
14742TIP3    H165641   4.179   4.264   1.035 -0.3094 -0.3064  0.1822
14742TIP3    H265642   4.040   4.319   1.019 -0.0511 -0.3922 -3.0471
14743TIP3   OH265643   3.913   5.173  16.639 -0.1263 -0.1093 -0.3229
14743TIP3    H165644   3.980   5.237  16.664  0.5830 -0.1835 -1.9610
14743TIP3    H265645   3.889   5.196  16.550  0.1349 -2.1002 -0.9649
14744TIP3   OH265646   2.682   0.757   2.002  0.2194  0.1855  0.9742
14744TIP3    H165647   2.606   0.729   1.950 -0.8815  0.8764  2.1510
14744TIP3    H265648   2.745   0.685   1.993 -0.1842  0.0136 -0.7775
14745TIP3   OH265649   5.595   0.626  12.170  0.2639 -0.3596  0.4730
14745TIP3    H165650   5.526   0.626  12.236 -0.8228 -2.4480 -0.5199
14745TIP3    H265651   5.556   0.671  12.095  0.9676  0.7469  0.7517
14746TIP3   OH265652   6.726   5.287   0.844 -0.1679 -0.1121  0.0967
14746TIP3    H165653   6.682   5.203   0.843  1.2599 -0.9548  1.8456
14746TIP3    H265654   6.819   5.266   0.833  0.2284  1.2248  0.6522
14747TIP3   OH265655   6.236   2.195   4.696 -0.0959  0.7440  0.2845
14747TIP3    H165656   6.220   2.120   4.640  0.3167  1.9557 -1.5648
14747TIP3    H265657   6.330   2.213   4.686 -0.3631  2.0645 -0.1125
14748TIP3   OH265658   0.882   1.752   5.955  0.0331  0.0899 -0.2989
14748TIP3    H165659   0.960   1.722   5.908 -0.6514  0.8519 -1.9960
14748TIP3    H265660   0.824   1.677   5.957 -0.0078  0.1053 -0.8439
14749TIP3   OH265661   4.230   6.521   2.789  0.0690  0.6258  0.2388
14749TIP3    H165662   4.273   6.500   2.872  2.2160  0.6713 -0.7801
14749TIP3    H265663   4.299   6.562   2.736 -0.4144 -1.7236 -2.4960
14750TIP3   OH265664   3.797   1.695  14.261  0.3269 -0.6179 -0.0242
14750TIP3    H165665   3.755   1.698  14.347  0.4394 -0.8892  0.0434
14750TIP3    H265666   3.873   1.637  14.274  0.7526 -0.0972 -0.1312
14751TIP3   OH265667   3.741   2.343  16.775  0.2436 -0.1101 -0.1716
14751TIP3    H165668   3.740   2.252  16.804  1.0985 -0.5688 -1.5008
14751TIP3    H265669   3.734   2.338  16.680 -1.5916  1.3010 -0.1899
14752TIP3   OH265670   2.335   0.355   2.923  0.2407  0.2066 -0.3838
14752TIP3    H165671   2.392   0.320   2.855  0.9675  0.7337 -0.0533
14752TIP3    H265672   2.318   0.281   2.981  0.5972  0.0495 -0.4806
14753TIP3   OH265673   5.634   3.189  11.406 -0.0599  0.3004 -0.2166
14753TIP3    H165674   5.593   3.131  11.342  0.3414 -1.3274  0.9173
14753TIP3    H265675   5.726   3.192  11.380 -0.1131  0.5584 -0.3728
14754TIP3   OH265676   3.261   2.584  14.499  0.3817 -0.4690 -0.5139
14754TIP3    H165677   3.316   2.572  14.421  1.6127 -1.2958  0.4456
14754TIP3    H265678   3.185   2.529  14.483  1.0983 -1.4207 -0.6957
14755TIP3   OH265679   5.582   1.095   1.220  0.2617 -0.2462  0.1461
14755TIP3    H165680   5.654   1.151   1.248  0.7659 -1.1367  0.6486
14755TIP3    H265681   5.509   1.155   1.207  0.4952  0.4003  1.6930
14756TIP3   OH265682   2.460   5.105   1.195 -0.0753  0.4093 -0.7384
14756TIP3    H165683   2.413   5.046   1.254  0.2594  0.0735 -0.8025
14756TIP3    H265684   2.547   5.066   1.186  0.6774  1.7294  0.4313
14757TIP3   OH265685   0.415   1.001   6.611  0.0647  0.3978 -0.5675
14757TIP3    H165686   0.412   1.054   6.691 -0.3591  1.8759 -1.5414
14757TIP3    H265687   0.493   0.947   6.621 -0.0049  0.5180  0.8600
14758TIP3   OH265688   0.127   0.210   1.537 -0.7636  0.2804 -0.2381
14758TIP3    H165689   0.193   0.141   1.545  1.1250  1.7282 -2.1063
14758TIP3    H265690   0.084   0.213   1.622  0.8377 -1.4667  0.7011
14759TIP3   OH265691   0.448   6.073   5.511  0.1749  0.0018 -0.2903
14759TIP3    H165692   0.479   6.147   5.563  2.2432 -0.4222 -0.8208
14759TIP3    H265693   0.468   6.098   5.420 -2.1422  0.1563 -0.8327
14760TIP3   OH265694   3.423   0.574   3.615 -0.1395  0.2183 -0.3901
14760TIP3    H165695   3.438   0.517   3.691 -0.2699  0.2165 -0.3648
14760TIP3    H265696   3.361   0.525   3.561 -0.6862  0.5776 -0.0988
14761TIP3   OH265697   0.085   0.044   2.021 -0.3287  0.5945 -0.1594
14761TIP3    H165698   0.131  -0.030   1.980 -0.9992  0.9672 -1.6570
14761TIP3    H265699   0.101   0.118   1.963 -0.9165  1.2699  0.5180
14762TIP3   OH265700   4.376   3.748   3.026  0.3421 -0.1238 -0.4429
14762TIP3    H165701   4.416   3.835   3.033  0.9245 -0.4277  0.2075
14762TIP3    H265702   4.448   3.691   3.000  0.4349 -0.7311  1.0242
14763TIP3   OH265703   6.033   6.254  12.462 -0.1545 -0.0018 -0.3888
14763TIP3    H165704   6.097   6.318  12.492 -0.7800  0.8640 -0.8708
14763TIP3    H265705   5.949   6.299  12.468 -0.6381 -0.8628 -0.5014
14764TIP3   OH265706   2.129   6.198   4.481  0.4429 -0.3132  0.2301
14764TIP3    H165707   2.040   6.197   4.515  0.6736 -2.2285  0.9413
14764TIP3    H265708   2.179   6.145   4.544  2.5303  2.2609  0.9200
14765TIP3   OH265709   2.313   1.327  15.134  0.4405 -0.2202  0.5835
14765TIP3    H165710   2.260   1.266  15.187  0.7963 -1.2340 -0.1877
14765TIP3    H265711   2.325   1.403  15.190  1.9925 -1.8026  2.5377
14766TIP3   OH265712   1.008   3.695  15.176 -0.2046  0.3809 -0.5088
14766TIP3    H165713   0.931   3.744  15.147 -1.2947 -0.1141  1.3465
14766TIP3    H265714   1.045   3.658  15.096 -1.1445  1.6809 -1.5844
14767TIP3   OH265715   3.711   2.305   5.440 -0.0746 -0.0188  1.0961
14767TIP3    H165716   3.648   2.233   5.453 -1.5155  1.3666  2.2489
14767TIP3    H265717   3.721   2.343   5.527  1.1079  0.8210  0.6009
14768TIP3   OH265718   5.963   3.653  15.111 -0.1167 -0.4944  0.3667
14768TIP3    H165719   6.040   3.666  15.166 -0.1135  1.2448 -0.0133
14768TIP3    H265720   5.998   3.648  15.022 -0.4553  0.6004  0.1648
14769TIP3   OH265721   5.580   0.368  15.533 -0.0404  1.0156  0.4217
14769TIP3    H165722   5.652   0.325  15.487 -0.6186  1.2574 -0.7506
14769TIP3    H265723   5.505   0.310  15.519 -0.2025  1.0358  1.1737
14770TIP3   OH265724   5.629   0.851   1.342 -0.0557  0.3745  0.4108
14770TIP3    H165725   5.598   0.935   1.309 -1.2145  0.0415  0.6265
14770TIP3    H265726   5.695   0.823   1.278 -0.7351  0.7352 -0.4616
14771TIP3   OH265727   2.239   3.467   0.665  0.4418 -0.3456 -0.5130
14771TIP3    H165728   2.252   3.538   0.728  0.2248 -0.2178 -0.6135
14771TIP3    H265729   2.147   3.472   0.641  0.8182  0.5031 -1.9164
14772TIP3   OH265730   0.398   4.136  11.926 -0.3787  0.9922 -0.0263
14772TIP3    H165731   0.344   4.200  11.879 -1.0364 -1.0336 -2.1901
14772TIP3    H265732   0.447   4.090  11.858  1.8303  0.6602  1.6374
14773TIP3   OH265733   2.860   2.120  15.128  0.1471  0.1244  0.8749
14773TIP3    H165734   2.835   2.198  15.079 -1.3377 -0.6567  0.3208
14773TIP3    H265735   2.889   2.153  15.213 -3.3926  1.1693  1.8194
14774TIP3   OH265736   5.988   3.116  16.798 -0.2869  0.0543 -0.2804
14774TIP3    H165737   5.997   3.116  16.894 -2.3587  1.6478 -0.0298
14774TIP3    H265738   6.077   3.098  16.766  0.4216 -0.6958  1.9179
14775TIP3   OH265739   3.878   3.447  14.769 -0.1850 -0.1624  0.1037
14775TIP3    H165740   3.900   3.449  14.676 -2.0772  0.5373 -0.3930
14775TIP3    H265741   3.894   3.357  14.796 -0.9886 -0.7705 -1.2991
14776TIP3   OH265742   1.691   2.758   4.699  0.0774  0.7127  0.3442
14776TIP3    H165743   1.730   2.775   4.613  1.0530  0.5993  0.7523
14776TIP3    H265744   1.747   2.806   4.760  1.5867 -2.0366  1.3065
14777TIP3   OH265745   4.248   1.515   3.856  0.2492 -0.1942  0.5014
14777TIP3    H165746   4.240   1.424   3.884 -1.6519 -0.5509 -1.0200
14777TIP3    H265747   4.299   1.511   3.775 -0.1775  0.0415  0.2186
14778TIP3   OH265748   4.749   2.720  16.420  0.3956 -0.1685  0.0246
14778TIP3    H165749   4.826   2.690  16.468  0.9459  1.8053  0.4926
14778TIP3    H265750   4.773   2.808  16.390 -1.7126  0.5463  0.2940
14779TIP3   OH265751   6.191   3.961   0.971 -0.5080 -0.9168  0.4565
14779TIP3    H165752   6.213   3.927   0.884  1.9507 -0.5669  0.8665
14779TIP3    H265753   6.259   3.926   1.029 -0.8734  0.5373  1.8531
14780TIP3   OH265754   1.045   5.985   4.499 -0.0399  0.3571  0.2675
14780TIP3    H165755   0.973   5.927   4.477 -0.4191  0.6657  0.6908
14780TIP3    H265756   1.007   6.073   4.501  0.5020  0.6127 -0.2386
14781TIP3   OH265757   6.197   1.691   3.398  0.0541 -0.2837  0.1039
14781TIP3    H165758   6.146   1.687   3.318  1.6565 -1.3395 -0.9047
14781TIP3    H265759   6.288   1.702   3.369  0.4418  1.9065  1.8369
14782TIP3   OH265760   4.517   6.594   0.447 -0.0061 -0.1085  0.0574
14782TIP3    H165761   4.436   6.561   0.486 -1.3706  1.7287 -1.0777
14782TIP3    H265762   4.514   6.564   0.356  1.0209 -0.7169  0.2076
14783TIP3   OH265763   0.229   4.519   2.132  0.5233  0.2513  0.4109
14783TIP3    H165764   0.162   4.549   2.194 -0.2108  1.2930 -0.8265
14783TIP3    H265765   0.267   4.442   2.173 -1.7496 -0.6623  0.9760
14784TIP3   OH265766   3.143   4.163   5.115 -0.1466 -0.0157 -0.0304
14784TIP3    H165767   3.091   4.096   5.160  0.2783  1.3045  2.6596
14784TIP3    H265768   3.093   4.244   5.126  1.5648  0.9576  1.1327
14785TIP3   OH265769   4.468   0.969   0.482  0.6020  0.1061  0.3807
14785TIP3    H165770   4.486   1.032   0.413 -0.2041 -0.3565 -0.2772
14785TIP3    H265771   4.534   0.900   0.469  0.4061 -0.0170  0.0138
14786TIP3   OH265772   2.398   0.567   1.563  0.2988 -0.2835 -0.4393
14786TIP3    H165773   2.445   0.554   1.645  1.3053  0.4390 -0.8823
14786TIP3    H265774   2.466   0.563   1.495  0.2002  3.2949 -0.9334
14787TIP3   OH265775   5.186   5.361   0.851 -0.2034 -0.4441  0.1983
14787TIP3    H165776   5.255   5.401   0.798 -1.2963  0.2879 -0.7213
14787TIP3    H265777   5.230   5.334   0.931  1.5799 -1.8120 -1.1454
14788TIP3   OH265778   3.907   1.912  11.971 -0.8051  0.6353 -0.0108
14788TIP3    H165779   3.859   1.829  11.981 -0.2997  0.2854 -0.3955
14788TIP3    H265780   3.863   1.955  11.898 -1.3259  0.8983  0.4500
14789TIP3   OH265781   4.257   0.899  16.730 -0.9888  0.3438 -0.0778
14789TIP3    H165782   4.250   0.820  16.783  2.6463 -0.1251 -0.0608
14789TIP3    H265783   4.273   0.970  16.793  1.7419  0.0360 -0.3122
14790TIP3   OH265784   0.340   1.431  16.338 -0.2237 -0.2782 -0.5590
14790TIP3    H165785   0.316   1.454  16.427  1.3571  0.5755 -0.3153
14790TIP3    H265786   0.301   1.500  16.284 -3.4196 -2.1511 -0.9174
14791TIP3   OH265787   0.253   4.365  14.100  0.0542  0.0409  0.1853
14791TIP3    H165788   0.191   4.310  14.146 -0.0894 -0.4145 -0.5393
14791TIP3    H265789   0.208   4.450  14.092 -0.1927 -0.0796  0.2828
14792TIP3   OH265790   5.872   0.734  16.369 -0.1276 -0.2716  0.4715
14792TIP3    H165791   5.905   0.823  16.358  2.4681 -0.8205  2.5905
14792TIP3    H265792   5.807   0.741  16.440 -1.3791  0.1694 -0.6858
14793TIP3   OH265793   6.295   2.610  11.863  0.6152 -0.0332 -0.2248
14793TIP3    H165794   6.213   2.638  11.820 -0.3545  1.1306  2.2061
14793TIP3    H265795   6.292   2.515  11.862 -0.1820 -0.0133 -1.2112
14794TIP3   OH265796   2.561   6.061  16.157  0.4878  0.9555 -0.1169
14794TIP3    H165797   2.578   6.132  16.219 -1.5949  1.2359  0.2072
14794TIP3    H265798   2.510   5.997  16.207  0.5911  0.1861 -0.9697
14795TIP3   OH265799   1.895   5.557   6.771 -0.1038 -0.2939 -0.0488
14795TIP3    H165800   1.923   5.467   6.785 -0.6307 -1.3860 -4.7218
14795TIP3    H265801   1.808   5.562   6.811 -0.4076 -2.1184 -0.4003
14796TIP3   OH265802   0.720   3.162  16.693 -0.1579  0.4470 -0.4119
14796TIP3    H165803   0.720   3.127  16.604  1.2249  0.8857 -0.6149
14796TIP3    H265804   0.812   3.159  16.719 -0.4383  1.0824  0.7051
14797TIP3   OH265805   6.666   3.127   5.693 -0.1683 -0.5166  0.3298
14797TIP3    H165806   6.741   3.184   5.711  0.4712 -0.4555 -2.1387
14797TIP3    H265807   6.692   3.077   5.616 -2.5118 -0.7928 -0.3622
14798TIP3   OH265808   0.952   4.503  11.493  0.0857 -0.4774  0.1653
14798TIP3    H165809   0.880   4.442  11.479  0.7547 -0.8691 -1.8489
14798TIP3    H265810   0.969   4.542  11.407  1.4174  0.5756  0.8536
14799TIP3   OH265811   5.534   3.597  13.368  0.1263  0.1310 -0.5760
14799TIP3    H165812   5.477   3.561  13.300  0.7949 -0.5603 -0.7800
14799TIP3    H265813   5.495   3.567  13.450  0.6634 -1.0744 -0.7401
14800TIP3   OH265814   0.276   0.821   2.122 -0.6077  0.2749 -0.6259
14800TIP3    H165815   0.282   0.835   2.216 -1.2979 -3.6660  0.1837
14800TIP3    H265816   0.202   0.875   2.094 -1.1856  0.5623  1.3502
14801TIP3   OH265817   5.649   0.720  15.267 -0.1205  0.2527 -0.0223
14801TIP3    H165818   5.708   0.681  15.202 -0.6120  1.0704 -0.9948
14801TIP3    H265819   5.592   0.648  15.294  0.2825 -0.1700 -0.2858
14802TIP3   OH265820   5.317   6.061   3.392 -0.4675  0.2139  0.4723
14802TIP3    H165821   5.321   6.036   3.300  2.1791  0.4132  0.4564
14802TIP3    H265822   5.401   6.103   3.409 -1.8693  2.5697  2.3490
14803TIP3   OH265823   6.672   5.801  11.188  0.3618 -0.1712  0.4303
14803TIP3    H165824   6.762   5.831  11.177  1.3076 -2.6638  0.5481
14803TIP3    H265825   6.653   5.814  11.281  0.1218  1.4543  0.1814
14804TIP3   OH265826   4.951   1.521   2.036  0.0352  0.1043 -0.1325
14804TIP3    H165827   4.969   1.428   2.035  1.1816  0.3196 -0.5363
14804TIP3    H265828   4.881   1.531   2.101  0.3376 -0.9488  0.3779
14805TIP3   OH265829   2.865   1.828   2.912  0.3569 -0.8536 -0.3257
14805TIP3    H165830   2.902   1.787   2.990 -0.2682 -1.1388 -0.1769
14805TIP3    H265831   2.847   1.755   2.853 -0.5054 -0.7783 -0.1669
14806TIP3   OH265832   4.390   4.241   5.173  0.6292 -0.5505 -0.1273
14806TIP3    H165833   4.347   4.237   5.088 -0.6228  1.0947  0.3673
14806TIP3    H265834   4.472   4.194   5.161  0.6307 -0.0868 -2.3221
14807TIP3   OH265835   5.252   0.895   0.692 -0.2758 -0.2262 -0.2808
14807TIP3    H165836   5.243   0.987   0.717 -1.5281 -0.4394  0.1037
14807TIP3    H265837   5.200   0.887   0.612  0.4135 -0.4524 -0.7164
14808TIP3   OH265838   6.240   3.735  11.923 -0.2861  0.0427  0.0909
14808TIP3    H165839   6.217   3.642  11.926 -0.1757  0.0426  1.9801
14808TIP3    H265840   6.333   3.737  11.948 -0.1597  0.6262 -0.4144
14809TIP3   OH265841   2.156   4.485   0.261  0.6866  0.6583 -0.1678
14809TIP3    H165842   2.172   4.401   0.303 -2.0175 -0.4856 -1.2325
14809TIP3    H265843   2.071   4.476   0.219  1.7254  2.8197 -3.1245
14810TIP3   OH265844   3.776   4.770   2.592 -0.4457 -0.3478  0.2067
14810TIP3    H165845   3.867   4.775   2.623  0.0224 -1.9117 -0.7730
14810TIP3    H265846   3.731   4.718   2.659 -0.9074  1.3263  1.2354
14811TIP3   OH265847   1.361   1.164   5.931  0.1179  0.0517 -0.6350
14811TIP3    H165848   1.377   1.137   6.022 -0.1743  1.5166 -0.1219
14811TIP3    H265849   1.311   1.092   5.893  0.2085 -0.5683  0.3713
14812TIP3   OH265850   3.001   2.040   0.293 -0.9133  0.0292  0.2086
14812TIP3    H165851   2.915   2.080   0.305 -0.8455 -0.2467  1.7672
14812TIP3    H265852   2.984   1.967   0.234 -1.6086  0.4178 -0.0958
14813TIP3   OH265853   5.132   2.708   3.908  0.3171  0.3526 -0.1139
14813TIP3    H165854   5.043   2.723   3.877 -0.1349 -0.3272  0.8063
14813TIP3    H265855   5.153   2.619   3.878  0.4688  0.2909  0.1713
14814TIP3   OH265856   5.931   2.900   2.048 -0.1357 -0.0544  0.3562
14814TIP3    H165857   5.952   2.949   1.969  0.7550  1.6556  1.6000
14814TIP3    H265858   5.905   2.813   2.016  0.5012  0.4839 -1.7758
14815TIP3   OH265859   5.003   2.331   0.157 -0.1585 -0.0846  0.4711
14815TIP3    H165860   5.008   2.427   0.151  0.4809  0.0003  1.9207
14815TIP3    H265861   4.947   2.306   0.084 -0.9552  1.4646  0.4969
14816TIP3   OH265862   5.121   0.113  17.329 -0.5355  0.6712  0.1186
14816TIP3    H165863   5.098   0.189  17.381  0.0588  1.6989 -1.0725
14816TIP3    H265864   5.038   0.068  17.313 -0.8387  0.8419  1.1465
14817TIP3   OH265865   6.095   1.950  14.022 -0.7906 -0.1310 -0.6013
14817TIP3    H165866   6.060   1.870  14.062  0.6653 -1.5996 -2.1106
14817TIP3    H265867   6.018   1.992  13.983 -1.9595  0.4552  2.0637
14818TIP3   OH265868   6.427   4.517   4.103 -0.0274  0.6980  0.0606
14818TIP3    H165869   6.500   4.495   4.046  1.5879  1.7192  1.6348
14818TIP3    H265870   6.431   4.452   4.173 -1.5599 -0.1203 -0.5710
14819TIP3   OH265871   2.413   3.691   3.519 -0.6968  0.0722  0.2988
14819TIP3    H165872   2.451   3.770   3.480 -1.7851  1.2862  1.5418
14819TIP3    H265873   2.388   3.719   3.608  0.5377 -2.2018  1.4303
14820TIP3   OH265874   5.315   2.276   0.986 -0.3410  0.0488  0.1006
14820TIP3    H165875   5.407   2.270   0.960 -0.5650  0.2542 -0.7757
14820TIP3    H265876   5.311   2.352   1.045  0.2605 -0.7124  1.1598
14821TIP3   OH265877   2.600   4.253   6.588 -0.2509  0.1320 -0.7182
14821TIP3    H165878   2.516   4.295   6.606  0.2917  1.5958 -1.4466
14821TIP3    H265879   2.621   4.205   6.668 -1.4340  0.3396 -0.2706
14822TIP3   OH265880   6.309   2.785  13.047  0.2549 -0.3863 -0.5428
14822TIP3    H165881   6.291   2.869  13.004  1.0905  1.2278  1.9872
14822TIP3    H265882   6.404   2.779  13.048  0.2053 -2.0968 -1.8748
14823TIP3   OH265883   2.220   6.602   4.335 -0.6662  0.2221 -0.6382
14823TIP3    H165884   2.256   6.690   4.346 -0.4964  0.0027  0.6851
14823TIP3    H265885   2.250   6.575   4.248  0.9801  0.7068 -0.2588
14824TIP3   OH265886   3.462   0.323  15.322  0.8119 -0.0412  0.1310
14824TIP3    H165887   3.435   0.414  15.335  0.8599  0.4086 -2.4300
14824TIP3    H265888   3.380   0.274  15.323  0.7325  0.0978  0.9612
14825TIP3   OH265889   1.206   5.729   5.368  0.0034  0.5656  0.3176
14825TIP3    H165890   1.202   5.824   5.374 -1.7141  0.5329  0.2657
14825TIP3    H265891   1.145   5.708   5.297 -0.8831 -0.6471  1.3922
14826TIP3   OH265892   4.570   0.180  12.313  0.1688  0.0415  0.3370
14826TIP3    H165893   4.488   0.163  12.266 -0.0107  0.5676  0.4577
14826TIP3    H265894   4.543   0.221  12.395  0.4512 -1.3307  1.1344
14827TIP3   OH265895   3.869   0.159   2.053 -0.4722 -0.3115 -0.0597
14827TIP3    H165896   3.929   0.132   1.983 -1.8249  1.3096 -1.9797
14827TIP3    H265897   3.812   0.083   2.066  0.2993 -0.9152 -0.1648
14828TIP3   OH265898   2.245   2.409   2.835  0.1238 -0.4421  0.2818
14828TIP3    H165899   2.340   2.422   2.831  0.1718 -0.9812 -1.9200
14828TIP3    H265900   2.209   2.487   2.793 -0.3846 -0.4381  0.7213
14829TIP3   OH265901   5.442   3.975  11.826  0.3289 -0.6491  0.6372
14829TIP3    H165902   5.394   4.046  11.869  4.4974  1.6152  2.1261
14829TIP3    H265903   5.482   4.016  11.750  1.9453 -1.6694  0.9007
14830TIP3   OH265904   5.289   3.615  14.389 -0.2764 -0.3714  0.2412
14830TIP3    H165905   5.364   3.613  14.329 -1.1471  1.1601 -0.9689
14830TIP3    H265906   5.218   3.573  14.340 -1.1632  1.4340 -0.0888
14831TIP3   OH265907   2.895   5.845   2.809 -0.3383 -0.2127 -0.6766
14831TIP3    H165908   2.841   5.900   2.866  0.0257 -0.3119 -0.2334
14831TIP3    H265909   2.984   5.876   2.824  0.1196 -2.1886  1.0413
14832TIP3   OH265910   6.352   2.245  16.306 -0.7164  0.0581  0.0163
14832TIP3    H165911   6.361   2.333  16.270  0.6711 -0.0896 -0.0525
14832TIP3    H265912   6.441   2.219  16.328 -1.0396 -1.5331 -0.4314
14833TIP3   OH265913   1.546   0.250   5.164 -0.2424 -0.1445  0.0054
14833TIP3    H165914   1.582   0.167   5.196  2.1700  0.9410  0.2998
14833TIP3    H265915   1.461   0.257   5.208  0.3830 -1.4933  1.5644
14834TIP3   OH265916   0.255   1.926  11.933  0.0920 -0.0887  0.1323
14834TIP3    H165917   0.192   1.887  11.873  0.4457 -1.2060  0.4548
14834TIP3    H265918   0.339   1.917  11.889  0.3312 -0.7753  0.7156
14835TIP3   OH265919   5.810   2.369  15.836 -0.7825 -0.1173  0.1858
14835TIP3    H165920   5.875   2.327  15.892 -0.5244 -0.9294 -0.7032
14835TIP3    H265921   5.826   2.463  15.846 -1.2631 -0.1934  2.0709
14836TIP3   OH265922   5.607   0.772  16.929  0.7469  0.2442 -0.4287
14836TIP3    H165923   5.525   0.722  16.938  1.0182 -0.6219 -2.2880
14836TIP3    H265924   5.584   0.860  16.959 -0.8727  0.0131 -0.8574
14837TIP3   OH265925   4.515   2.940  13.304  0.9106  0.4656 -0.1174
14837TIP3    H165926   4.589   2.907  13.355 -0.3072 -1.4415  0.5156
14837TIP3    H265927   4.446   2.953  13.368 -0.0893 -0.2344 -1.0251
14838TIP3   OH265928   1.393   2.095   1.427 -0.7287  0.0253 -0.1140
14838TIP3    H165929   1.368   2.118   1.516  1.0223  0.8735  0.1812
14838TIP3    H265930   1.473   2.144   1.410 -0.5187 -0.8295 -1.8302
14839TIP3   OH265931   4.998   4.348   4.152 -0.3598 -0.3871 -0.1036
14839TIP3    H165932   5.093   4.354   4.159 -0.4863  0.9678  0.8226
14839TIP3    H265933   4.972   4.421   4.095 -0.8844 -0.4095  0.0931
14840TIP3   OH265934   4.580   3.086  14.483 -0.1783 -0.1384 -0.4780
14840TIP3    H165935   4.551   3.107  14.394 -0.9382 -1.8398 -0.6762
14840TIP3    H265936   4.543   3.156  14.537 -1.2426 -0.0481 -1.2849
14841TIP3   OH265937   4.620   5.224   1.114  0.3412 -0.2219 -0.0316
14841TIP3    H165938   4.550   5.178   1.161 -1.2679  0.2013 -1.8766
14841TIP3    H265939   4.690   5.233   1.178 -1.8257  0.6351  2.3664
14842TIP3   OH265940   3.538   5.775  15.250 -0.9167 -0.1838  0.1467
14842TIP3    H165941   3.466   5.762  15.188 -1.7950  1.6498  0.7047
14842TIP3    H265942   3.617   5.756  15.200 -1.7391 -1.4968 -0.7021
14843TIP3   OH265943   6.068   4.182  13.823  0.1812 -0.1401 -0.2930
14843TIP3    H165944   6.038   4.097  13.790  2.8152 -1.1483 -0.3199
14843TIP3    H265945   6.149   4.199  13.775  0.6516  1.5344  0.9999
14844TIP3   OH265946   3.448   6.400   4.936  0.2192  0.0130 -0.2445
14844TIP3    H165947   3.398   6.354   4.869  1.4664 -0.5835 -0.7882
14844TIP3    H265948   3.385   6.459   4.977 -1.3413 -1.8480  0.1789
14845TIP3   OH265949   6.075   1.163   6.875  0.0210  0.2850  0.8932
14845TIP3    H165950   6.167   1.187   6.885  0.4215  1.3579 -3.2967
14845TIP3    H265951   6.077   1.072   6.843 -0.2424  0.6889 -0.3223
14846TIP3   OH265952   0.410   3.806  15.595 -0.0907 -0.3451  0.0703
14846TIP3    H165953   0.433   3.717  15.567 -0.3537 -0.0746 -1.0697
14846TIP3    H265954   0.315   3.803  15.606 -0.0937 -0.2093  0.0798
14847TIP3   OH265955   2.713   0.375  12.948  0.4710  0.3553 -0.0507
14847TIP3    H165956   2.790   0.319  12.936  1.4497  1.5453  0.4082
14847TIP3    H265957   2.666   0.335  13.021  0.1338 -0.9073 -0.9225
14848TIP3   OH265958   6.104   1.790   5.671 -0.3500 -0.0018  0.1541
14848TIP3    H165959   6.145   1.779   5.585  1.3794 -0.2592  0.9656
14848TIP3    H265960   6.011   1.778   5.655  0.1874 -4.0210 -1.0861
14849TIP3   OH265961   4.191   3.185   3.764 -0.0429 -0.3407  0.1222
14849TIP3    H165962   4.240   3.127   3.705  2.6522  0.4784  1.3735
14849TIP3    H265963   4.117   3.133   3.794  0.3794 -1.9031 -1.4106
14850TIP3   OH265964   1.445   0.289  14.427 -0.0861 -0.3159 -0.3271
14850TIP3    H165965   1.485   0.209  14.461  0.4222 -1.1218 -2.6106
14850TIP3    H265966   1.404   0.263  14.345 -1.8839  1.3452 -0.0328
14851TIP3   OH265967   0.805   3.066   0.042  0.3143 -0.0685 -0.1538
14851TIP3    H165968   0.745   3.005  -0.002 -0.0167  0.2087 -0.0981
14851TIP3    H265969   0.825   3.131  -0.026 -0.0779  0.2768  0.0526
14852TIP3   OH265970   5.197   3.312  14.642  0.3686  0.3182  0.5497
14852TIP3    H165971   5.152   3.338  14.723  1.7762  1.8841  0.8850
14852TIP3    H265972   5.128   3.316  14.575 -0.5501  0.1841  1.4524
14853TIP3   OH265973   6.501   6.679   4.229 -0.3359  0.3527 -0.1127
14853TIP3    H165974   6.538   6.604   4.275 -0.4542  0.1941 -0.2776
14853TIP3    H265975   6.484   6.648   4.140 -3.7864 -0.5898  0.7008
14854TIP3   OH265976   2.693   6.287  14.483  0.1190  0.3330 -0.1828
14854TIP3    H165977   2.724   6.204  14.446 -0.8832 -0.5217  0.8224
14854TIP3    H265978   2.749   6.302  14.559  1.0502  1.2081 -0.9985
14855TIP3   OH265979   3.728   0.440   0.364 -0.0076 -0.1641  0.0784
14855TIP3    H165980   3.653   0.461   0.420  0.3438  0.4099  0.3503
14855TIP3    H265981   3.699   0.366   0.311 -1.3656  1.0801 -1.0020
14856TIP3   OH265982   6.360   1.829   2.837 -0.5620  0.0848 -0.0167
14856TIP3    H165983   6.449   1.813   2.870 -1.4648 -1.9492  1.6755
14856TIP3    H265984   6.367   1.818   2.742  0.8775 -0.6563  0.1467
14857TIP3   OH265985   4.370   2.923   3.904  0.2299  0.3443 -0.1187
14857TIP3    H165986   4.425   2.964   3.837 -1.1226 -0.1934 -1.6199
14857TIP3    H265987   4.370   2.985   3.976 -0.5451  2.3087 -1.7258
14858TIP3   OH265988   4.654   4.518  17.225  0.7283 -0.1613  0.0844
14858TIP3    H165989   4.634   4.509  17.132 -0.5382  0.9845  0.2130
14858TIP3    H265990   4.702   4.600  17.231  0.5391 -0.0776  0.4721
14859TIP3   OH265991   6.234   3.382  16.478 -0.0789  0.1455 -0.0192
14859TIP3    H165992   6.227   3.362  16.571  0.1100 -0.3231 -0.1053
14859TIP3    H265993   6.319   3.347  16.452 -0.3300 -0.1301 -0.4731
14860TIP3   OH265994   2.276   4.858   3.233 -0.3229  0.2179  0.3997
14860TIP3    H165995   2.277   4.807   3.153 -3.1048  0.4938  0.0766
14860TIP3    H265996   2.251   4.796   3.302  1.8310  0.0266  1.0708
14861TIP3   OH265997   6.439   3.370   2.764 -0.3980 -0.5320 -0.1306
14861TIP3    H165998   6.351   3.350   2.732  0.3426 -2.6754 -0.9695
14861TIP3    H265999   6.424   3.429   2.838 -2.4657 -0.0619 -0.8514
14862TIP3   OH266000   2.226   5.763  16.801 -0.1923  0.1936  0.2763
14862TIP3    H166001   2.269   5.679  16.784  0.1568  0.3366  0.4375
14862TIP3    H266002   2.296   5.827  16.795 -0.5837  0.5594 -0.5361
14863TIP3   OH266003   2.882   0.303   2.127 -0.3746  0.6990 -0.4388
14863TIP3    H166004   2.946   0.246   2.085 -1.2539 -0.3148 -0.4398
14863TIP3    H266005   2.930   0.383   2.146  0.6771  0.2585 -1.1611
14864TIP3   OH266006   5.037   1.813   2.850 -0.4360 -0.0183  0.0612
14864TIP3    H166007   5.048   1.719   2.837  0.9552 -0.0927  1.4848
14864TIP3    H266008   5.051   1.827   2.944 -3.1339  1.3191  0.3462
14865TIP3   OH266009   5.115   0.205   0.521 -0.4198  0.4221 -0.0039
14865TIP3    H166010   5.151   0.134   0.575  0.0149  0.6526  0.0161
14865TIP3    H266011   5.119   0.171   0.431  0.6187  0.7499 -0.0929
14866TIP3   OH266012   0.786   5.493   4.488  0.0507 -0.2774 -0.9916
14866TIP3    H166013   0.881   5.490   4.488  0.0636 -1.7067  0.9192
14866TIP3    H266014   0.759   5.423   4.428  0.2452 -1.1058 -0.1405
14867TIP3   OH266015   6.000   1.310   4.353 -0.1626 -0.2971  0.7714
14867TIP3    H166016   5.953   1.383   4.311  1.2339  0.3283  0.2342
14867TIP3    H266017   6.089   1.342   4.363  0.0421 -1.2647  2.2630
14868TIP3   OH266018   1.884   5.906   5.261 -0.1269  0.3467  0.7547
14868TIP3    H166019   1.829   5.880   5.335 -0.4514 -0.3940  0.2695
14868TIP3    H266020   1.924   5.824   5.231 -0.5918  0.5053 -0.3551
14869TIP3   OH266021   2.123   3.254  13.827  0.2964 -0.0204 -0.1187
14869TIP3    H166022   2.133   3.200  13.749 -2.0534  0.9310 -1.1648
14869TIP3    H266023   2.086   3.195  13.893  1.1117 -0.5214 -0.0979
14870TIP3   OH266024   2.664   3.239   0.645 -0.1017 -0.4537 -0.1026
14870TIP3    H166025   2.665   3.201   0.557 -2.4224 -0.0992 -0.3522
14870TIP3    H266026   2.661   3.164   0.704 -0.4466 -0.6800 -0.4099
14871TIP3   OH266027   4.351   0.094  16.735  0.7643 -0.4638 -0.4167
14871TIP3    H166028   4.295   0.170  16.720 -0.3025 -0.9259  1.0663
14871TIP3    H266029   4.305   0.021  16.693  2.3669 -0.1645 -2.9046
14872TIP3   OH266030   1.505   2.400  16.489  0.1458 -0.1466  0.0702
14872TIP3    H166031   1.594   2.397  16.524 -0.2627  1.7406  1.4389
14872TIP3    H266032   1.451   2.426  16.563 -1.4419 -0.3960 -0.9502
14873TIP3   OH266033   3.126   2.417   4.915  0.0192 -0.0995  0.0657
14873TIP3    H166034   3.202   2.382   4.869 -0.5850  0.1074 -1.1218
14873TIP3    H266035   3.073   2.459   4.847 -0.3658  1.2003  1.1033
14874TIP3   OH266036   6.561   5.925  16.896 -0.0849 -0.5233 -0.1355
14874TIP3    H166037   6.640   5.968  16.928  2.0123 -2.0701 -2.8241
14874TIP3    H266038   6.535   5.976  16.819 -1.7592 -0.0705  0.6729
14875TIP3   OH266039   4.391   2.297  10.686  0.1349  0.2767 -0.3042
14875TIP3    H166040   4.398   2.391  10.705  1.3966 -0.0298  0.9290
14875TIP3    H266041   4.299   2.284  10.659 -0.8421  1.4123  2.2115
14876TIP3   OH266042   4.281   3.388   3.901  0.2170 -0.0384  0.3458
14876TIP3    H166043   4.250   3.358   3.987  0.1715 -1.3076 -0.0904
14876TIP3    H266044   4.234   3.333   3.838 -0.4059  1.4752 -0.5534
14877TIP3   OH266045   0.724   2.351   5.502  0.1227  0.0772  0.5009
14877TIP3    H166046   0.730   2.387   5.414 -1.0162  1.2440  0.8587
14877TIP3    H266047   0.644   2.299   5.501  1.2258 -1.7023  0.2804
14878TIP3   OH266048   3.753   4.129   5.164  0.4523  0.0624 -0.3959
14878TIP3    H166049   3.780   4.043   5.131  1.3127 -0.2426  1.0554
14878TIP3    H266050   3.834   4.176   5.180  0.0077  0.8158 -0.3117
14879TIP3   OH266051   2.447   2.758   4.076  0.7289  0.1024 -0.0689
14879TIP3    H166052   2.433   2.790   4.165 -1.2681 -0.5415 -0.0955
14879TIP3    H266053   2.399   2.820   4.021  0.2292 -0.6360 -0.4824
14880TIP3   OH266054   4.532   3.318   6.115 -0.5144  0.0868 -0.5554
14880TIP3    H166055   4.546   3.275   6.031 -1.7506  2.4237 -2.0456
14880TIP3    H266056   4.440   3.302   6.136 -0.0787 -0.9695  0.6947
14881TIP3   OH266057   5.692   1.394  14.304 -0.3497 -0.4921 -0.1359
14881TIP3    H166058   5.667   1.306  14.331  1.6788 -1.3395 -0.8471
14881TIP3    H266059   5.717   1.385  14.213 -0.9536  1.0291 -0.4846
14882TIP3   OH266060   2.620   0.530   5.430 -0.5289  0.5590 -0.5989
14882TIP3    H166061   2.540   0.524   5.378 -0.8871  0.6775 -0.0695
14882TIP3    H266062   2.667   0.449   5.411 -1.0570  0.2159 -0.4565
14883TIP3   OH266063   6.022   1.827   1.096  0.6435 -0.2125 -0.1032
14883TIP3    H166064   6.076   1.831   1.017  0.2676 -0.2566 -0.3683
14883TIP3    H266065   6.033   1.913   1.137  1.7609 -0.5916  0.4262
14884TIP3   OH266066   3.353   0.927   5.654 -0.0562 -0.2590  0.3627
14884TIP3    H166067   3.442   0.940   5.685  0.9169 -1.7790 -1.6036
14884TIP3    H266068   3.333   1.006   5.604 -0.5877  0.9373  2.3670
14885TIP3   OH266069   0.184   1.519   0.458 -0.0494  0.5378  0.2125
14885TIP3    H166070   0.232   1.437   0.443  0.9446  1.2696 -0.7913
14885TIP3    H266071   0.134   1.532   0.377 -1.7019 -0.0204  1.1050
14886TIP3   OH266072   6.571   5.287   1.626  0.1881 -0.1182 -0.2165
14886TIP3    H166073   6.577   5.231   1.549  0.7291 -0.0379 -0.2381
14886TIP3    H266074   6.633   5.358   1.609 -1.5531  1.3159 -0.8613
14887TIP3   OH266075   1.032   3.835  13.499 -0.1552 -0.9210 -0.0892
14887TIP3    H166076   0.952   3.860  13.546  0.0221 -0.9056  0.2046
14887TIP3    H266077   1.092   3.805  13.567 -0.0737 -1.3742 -0.3530
14888TIP3   OH266078   1.029   5.214  13.578 -0.8128 -0.8672  0.1832
14888TIP3    H166079   0.959   5.213  13.513  1.6014 -0.9947 -2.6308
14888TIP3    H266080   1.029   5.304  13.612 -0.8786 -0.1633 -1.5632
14889TIP3   OH266081   1.862   3.674  14.276  0.0310  0.5638  0.4445
14889TIP3    H166082   1.916   3.731  14.220  0.9670  0.2480  1.0048
14889TIP3    H266083   1.780   3.722  14.287  0.9858  2.0613  1.3232
14890TIP3   OH266084   5.072   2.137  16.157  0.0530 -0.5221 -0.4062
14890TIP3    H166085   5.018   2.129  16.078  0.2037 -1.3414 -0.4385
14890TIP3    H266086   5.080   2.047  16.189 -1.5893 -0.0233  1.6152
14891TIP3   OH266087   6.582   6.445  13.794  0.6220  0.3033 -0.0999
14891TIP3    H166088   6.536   6.437  13.878  1.1952  0.8380  0.2727
14891TIP3    H266089   6.602   6.355  13.769 -2.0006 -0.0905 -1.0699
14892TIP3   OH266090   3.193   1.609  14.115  0.0754 -0.3196 -0.0685
14892TIP3    H166091   3.122   1.671  14.130  0.2581 -0.4684  1.6282
14892TIP3    H266092   3.169   1.563  14.035  0.3178  2.4567 -1.8832
14893TIP3   OH266093   3.815   2.499   6.507 -0.0197 -0.4304 -0.2479
14893TIP3    H166094   3.895   2.453   6.535  0.9573  0.5059 -1.3900
14893TIP3    H266095   3.767   2.514   6.589  1.2642 -0.4804  0.5576
14894TIP3   OH266096   1.677   4.683  16.677  0.4725  0.7349  0.1818
14894TIP3    H166097   1.616   4.609  16.676  0.4345  0.7706 -0.2458
14894TIP3    H266098   1.661   4.726  16.761  2.3294 -1.2578  1.6556
14895TIP3   OH266099   0.731   3.435   0.128 -0.0011 -0.2202  0.0025
14895TIP3    H166100   0.647   3.391   0.144  0.2558 -0.4582  0.7574
14895TIP3    H266101   0.751   3.477   0.211 -0.4982  1.8072 -0.8616
14896TIP3   OH266102   5.334   5.553  13.532 -0.6320 -0.5462  0.1708
14896TIP3    H166103   5.261   5.544  13.470  0.0072 -1.2914 -0.4946
14896TIP3    H266104   5.343   5.466  13.570  0.3705 -0.6416 -0.2777
14897TIP3   OH266105   1.938   4.988  12.176  0.4130  0.2255  0.6222
14897TIP3    H166106   1.961   5.078  12.201  1.9450  0.0412 -0.0227
14897TIP3    H266107   1.940   4.989  12.081 -2.9155  0.2999  0.4226
14898TIP3   OH266108   5.978   2.923  14.808 -0.0183 -0.0406  0.2731
14898TIP3    H166109   6.002   2.856  14.744 -0.9133 -0.8592  0.7841
14898TIP3    H266110   6.062   2.954  14.842  0.4106 -0.7741 -0.0821
14899TIP3   OH266111   2.694   3.593  15.695 -0.3752 -0.5727  0.0285
14899TIP3    H166112   2.641   3.513  15.701 -1.1445 -0.0361  0.5792
14899TIP3    H266113   2.645   3.658  15.746  0.2777  0.2313 -0.3498
14900TIP3   OH266114   0.539   2.549   2.744 -0.1327  0.2742  0.0184
14900TIP3    H166115   0.609   2.598   2.700 -0.5864  0.0915 -0.9367
14900TIP3    H266116   0.464   2.557   2.685 -0.2584 -1.4268 -0.0842
14901TIP3   OH266117   3.168   1.030  12.315  0.1113 -0.0693  0.6062
14901TIP3    H166118   3.123   0.949  12.339 -1.1634  0.8630  1.5177
14901TIP3    H266119   3.189   1.072  12.399  0.4965  0.6804  0.1500
14902TIP3   OH266120   5.825   0.874  15.397  0.0668 -0.0770  0.2562
14902TIP3    H166121   5.758   0.821  15.354  2.3809 -1.6934 -1.6323
14902TIP3    H266122   5.782   0.958  15.415 -2.8268 -1.5098  0.4954
14903TIP3   OH266123   2.116   4.164   4.804 -0.4733  0.5194 -0.2408
14903TIP3    H166124   2.033   4.119   4.786  0.3673 -0.9447 -0.6278
14903TIP3    H266125   2.160   4.168   4.719 -1.0354  3.2572 -0.4758
14904TIP3   OH266126   3.780   3.299  11.831  0.2547 -0.4645 -0.9562
14904TIP3    H166127   3.839   3.284  11.905 -1.7891 -0.5972  0.7524
14904TIP3    H266128   3.834   3.287  11.754  2.8123  0.9226  0.4868
14905TIP3   OH266129   4.601   0.135  10.484 -0.1989  0.2676  0.2315
14905TIP3    H166130   4.654   0.084  10.545  0.1244  0.1303 -0.1601
14905TIP3    H266131   4.649   0.218  10.474 -0.1232  0.1958 -0.0177
14906TIP3   OH266132   4.548   2.791   4.288 -0.3940 -0.1961  0.1602
14906TIP3    H166133   4.623   2.736   4.310 -0.5961 -0.9700 -1.0123
14906TIP3    H266134   4.537   2.848   4.365  0.5316 -0.9983  0.9172
14907TIP3   OH266135   1.898   6.433  11.155 -0.3778 -0.0504  0.2636
14907TIP3    H166136   1.808   6.404  11.146 -0.8479  1.3522  0.1223
14907TIP3    H266137   1.911   6.493  11.081  0.6582 -0.2255  0.2900
14908TIP3   OH266138   4.386   4.770   4.122 -0.0123  0.1673  0.2711
14908TIP3    H166139   4.364   4.862   4.107  1.7023  0.4314 -1.0799
14908TIP3    H266140   4.341   4.723   4.051 -0.6325 -0.0108  0.7744
14909TIP3   OH266141   2.377   3.306   1.466 -0.1940  0.2546  0.2123
14909TIP3    H166142   2.344   3.389   1.500  1.0902  1.6803 -1.7960
14909TIP3    H266143   2.427   3.269   1.539 -0.5689  1.3683  1.0709
14910TIP3   OH266144   2.041   2.679   4.853 -0.2276  0.3898  0.5608
14910TIP3    H166145   2.115   2.726   4.892  0.1431  1.3965 -1.2363
14910TIP3    H266146   1.972   2.745   4.847  0.2840  0.8012 -1.9598
14911TIP3   OH266147   2.292   6.124  14.715  0.3008  0.3595  0.2225
14911TIP3    H166148   2.243   6.133  14.633  0.9726 -2.7938 -0.6823
14911TIP3    H266149   2.353   6.198  14.715 -1.3672  1.8043 -0.8759
14912TIP3   OH266150   2.835   1.763  16.776  0.9378 -0.4947  0.3925
14912TIP3    H166151   2.855   1.782  16.868  1.4592  0.0599  0.1709
14912TIP3    H266152   2.845   1.669  16.768  0.3824 -0.6159  1.0273
14913TIP3   OH266153   5.325   5.444   3.076  0.7683 -0.1815  0.8756
14913TIP3    H166154   5.364   5.371   3.123  1.6771 -1.0962 -1.1530
14913TIP3    H266155   5.303   5.408   2.990 -1.1158  1.2987  0.6664
14914TIP3   OH266156   6.151   4.528  16.905  0.5689  0.4516  0.5027
14914TIP3    H166157   6.061   4.511  16.933  0.3796  1.0956  0.3094
14914TIP3    H266158   6.141   4.568  16.818  1.1743 -2.7526 -1.1795
14915TIP3   OH266159   1.153   4.112   6.206 -0.2588  0.0776 -0.8341
14915TIP3    H166160   1.088   4.108   6.276  0.2287  0.3975 -0.3434
14915TIP3    H266161   1.193   4.199   6.216 -0.0087  0.0278 -1.3511
14916TIP3   OH266162   1.242   3.536   0.715  0.1704  0.0240  0.1888
14916TIP3    H166163   1.272   3.546   0.805 -1.2100  0.3465  0.6447
14916TIP3    H266164   1.152   3.570   0.716  0.4167  0.8640 -1.5013
14917TIP3   OH266165   4.398   6.274   6.051  0.1865  0.2860 -0.1145
14917TIP3    H166166   4.304   6.262   6.034  0.2838  0.0531 -0.4733
14917TIP3    H266167   4.435   6.187   6.045  0.5115  0.4468 -0.4531
14918TIP3   OH266168   5.823   0.020  13.313 -0.7607  0.1718 -0.0705
14918TIP3    H166169   5.896   0.013  13.252  0.7949 -1.1273  1.8262
14918TIP3    H266170   5.841   0.099  13.363 -1.4484  0.6318 -0.5288
14919TIP3   OH266171   6.640   4.542  16.223 -0.1739  0.4486  0.0442
14919TIP3    H166172   6.731   4.532  16.252 -0.3865  0.9124  0.9209
14919TIP3    H266173   6.603   4.607  16.283 -0.5204  1.8241 -1.5934
14920TIP3   OH266174   4.582   0.140  14.275 -0.3046 -0.0203  0.9770
14920TIP3    H166175   4.491   0.117  14.254  0.4406 -1.4304 -1.0357
14920TIP3    H266176   4.590   0.232  14.251 -0.8201 -0.2976 -0.3517
14921TIP3   OH266177   5.403   4.723  14.367  0.1857 -0.0482  0.0348
14921TIP3    H166178   5.358   4.795  14.411  1.3233 -0.2515  1.6215
14921TIP3    H266179   5.337   4.686  14.308 -0.8859  1.2973  0.3325
14922TIP3   OH266180   3.724   1.281  12.414  0.3727 -0.5175  0.3601
14922TIP3    H166181   3.720   1.187  12.430  0.5220 -0.4813  0.6022
14922TIP3    H266182   3.724   1.289  12.318 -2.5888 -0.6599  0.2518
14923TIP3   OH266183   3.623   1.352   0.618  0.7018 -0.0912 -0.0082
14923TIP3    H166184   3.681   1.288   0.577  0.4328 -0.9554  0.9298
14923TIP3    H266185   3.555   1.299   0.661  2.2826  0.5413  3.6661
14924TIP3   OH266186   4.069   5.480   3.286 -0.0835  0.2778  0.4122
14924TIP3    H166187   4.042   5.426   3.360  1.4253 -0.5662  0.3642
14924TIP3    H266188   4.150   5.441   3.255 -0.4770  0.8370 -1.4662
14925TIP3   OH266189   0.182   0.196  13.915 -0.1426 -0.1186  0.0138
14925TIP3    H166190   0.161   0.110  13.951 -0.0880  0.6408  1.9769
14925TIP3    H266191   0.277   0.205  13.928 -0.0948  0.1112 -0.4772
14926TIP3   OH266192   0.236   4.132   4.876  0.3411 -0.7171 -0.3534
14926TIP3    H166193   0.175   4.108   4.807  1.8484  0.4345 -2.1805
14926TIP3    H266194   0.200   4.212   4.914 -0.1198 -0.9577 -0.2813
14927TIP3   OH266195   6.424   0.313  15.683 -0.5412 -0.4553  0.0972
14927TIP3    H166196   6.374   0.280  15.608  0.4661 -2.4751  0.2626
14927TIP3    H266197   6.434   0.237  15.741 -2.0425  1.2299  2.7715
14928TIP3   OH266198   5.232   3.972   3.434  0.3809 -0.1284  0.7061
14928TIP3    H166199   5.219   3.894   3.380  0.0278  0.0741  0.5004
14928TIP3    H266200   5.213   4.046   3.376  0.5515  0.1106  0.9471
14929TIP3   OH266201   0.890   4.951   4.432 -0.3045  0.5057  0.0254
14929TIP3    H166202   0.817   4.909   4.477  1.7900 -1.7875  1.5303
14929TIP3    H266203   0.964   4.943   4.493  1.3498  2.3888 -1.5649
14930TIP3   OH266204   6.506   4.786   4.554  0.5134  0.6181  0.2160
14930TIP3    H166205   6.528   4.872   4.517 -0.9138  0.4383 -1.1619
14930TIP3    H266206   6.411   4.784   4.554  0.5250 -0.8887  0.4623
14931TIP3   OH266207   6.119   2.862  15.172  0.2018  0.1240 -0.2472
14931TIP3    H166208   6.072   2.943  15.151  0.0768 -0.0169 -0.5117
14931TIP3    H266209   6.078   2.831  15.253  0.0265  0.1458 -0.3277
14932TIP3   OH266210   2.968   2.293  13.430  0.4526 -0.0749  0.0469
14932TIP3    H166211   2.912   2.371  13.427 -0.9388 -1.0149  0.4861
14932TIP3    H266212   3.035   2.315  13.495  0.0945  0.7613  0.1582
14933TIP3   OH266213   6.405   4.649  13.258  0.4563 -0.4402  0.6864
14933TIP3    H166214   6.497   4.633  13.278  0.4746  0.8505  1.7785
14933TIP3    H266215   6.360   4.635  13.341 -0.4822 -1.9097 -0.0253
14934TIP3   OH266216   2.255   5.008   6.597  0.9593 -0.0406  0.1936
14934TIP3    H166217   2.216   4.923   6.575 -0.9152  0.8527 -0.1756
14934TIP3    H266218   2.312   5.028   6.523  0.8807 -0.6676 -0.0416
14935TIP3   OH266219   2.916   0.991  15.516  0.3521 -0.3626 -0.1279
14935TIP3    H166220   2.987   1.015  15.575  0.8400 -0.1405 -0.7992
14935TIP3    H266221   2.836   1.017  15.563  0.8280  3.5428 -1.1403
14936TIP3   OH266222   6.349   4.045   2.302  0.2862  0.1764 -0.0005
14936TIP3    H166223   6.264   3.999   2.301 -0.0020  0.6891 -1.0053
14936TIP3    H266224   6.326   4.138   2.301  0.8526  0.3180 -0.5496
14937TIP3   OH266225   6.176   3.520  14.467 -0.5943 -0.0145  0.1371
14937TIP3    H166226   6.172   3.592  14.403 -0.1481 -1.2791 -1.3888
14937TIP3    H266227   6.225   3.556  14.541 -3.3118  2.3380  0.9725
14938TIP3   OH266228   0.759   6.145   0.335  0.1517 -0.6769  0.8336
14938TIP3    H166229   0.787   6.231   0.367 -0.8644  0.2058 -0.5053
14938TIP3    H266230   0.837   6.109   0.293  0.1420  0.4045 -0.1755
14939TIP3   OH266231   3.770   3.388  17.172 -0.5345 -0.3383 -0.1397
14939TIP3    H166232   3.820   3.460  17.209  0.4638  0.0970 -2.1835
14939TIP3    H266233   3.819   3.363  17.093 -2.5780 -1.0978 -1.2362
14940TIP3   OH266234   4.839   3.322   5.112  0.3617  0.7249 -0.5030
14940TIP3    H166235   4.821   3.304   5.020 -0.2974 -0.8633 -0.0865
14940TIP3    H266236   4.913   3.266   5.134  0.5915  1.1808 -0.0783
14941TIP3   OH266237   5.768   3.515  10.901  0.4670 -0.6190  0.0803
14941TIP3    H166238   5.719   3.464  10.837 -1.9479 -0.0437  1.3739
14941TIP3    H266239   5.704   3.540  10.967  2.9037 -1.6926  3.1174
14942TIP3   OH266240   4.894   3.967   3.868  0.1687 -0.2418  0.4354
14942TIP3    H166241   4.932   3.996   3.785  2.0788 -0.4101  1.1990
14942TIP3    H266242   4.848   4.043   3.902  3.0526  1.2415  1.2585
14943TIP3   OH266243   4.764   6.000   4.398 -0.0795  0.1830  0.1173
14943TIP3    H166244   4.802   6.034   4.316 -0.6229  0.0436 -0.1963
14943TIP3    H266245   4.755   5.906   4.383 -0.6077  0.2233  0.1611
14944TIP3   OH266246   4.379   4.470  15.817  0.2431 -0.0673  0.4938
14944TIP3    H166247   4.342   4.382  15.808  1.7004 -0.8616  1.8299
14944TIP3    H266248   4.394   4.498  15.727 -1.8974 -0.4081 -0.0345
14945TIP3   OH266249   2.001   2.260  16.874  0.2840  0.5543 -0.5876
14945TIP3    H166250   1.992   2.258  16.969 -0.5953 -0.5609 -0.6742
14945TIP3    H266251   1.923   2.308  16.844 -1.8048 -2.7325 -0.9267
14946TIP3   OH266252   0.304   5.010   0.328  0.0553  0.0303  0.0639
14946TIP3    H166253   0.282   5.073   0.260  0.5366 -0.6843 -0.7855
14946TIP3    H266254   0.233   4.946   0.326 -0.3309  0.4291  0.7844
14947TIP3   OH266255   1.179   2.425  12.873  0.0874 -0.0956 -0.0977
14947TIP3    H166256   1.197   2.407  12.781  1.1965  2.5711 -0.5007
14947TIP3    H266257   1.106   2.487  12.871  0.1442  0.0100  0.8280
14948TIP3   OH266258   4.090   0.692  11.484 -0.0477 -0.2222 -0.0775
14948TIP3    H166259   4.120   0.608  11.520 -2.3324 -0.5220  1.3405
14948TIP3    H266260   4.100   0.754  11.556 -0.6752  0.1454 -0.2992
14949TIP3   OH266261   2.644   5.202  15.624 -0.3316 -0.2366  0.3388
14949TIP3    H166262   2.560   5.164  15.598  0.0975 -0.0485 -1.4708
14949TIP3    H266263   2.680   5.239  15.543  0.4985  1.6683  1.5009
14950TIP3   OH266264   1.900   4.526  16.950  0.1577 -0.5713  0.3125
14950TIP3    H166265   1.838   4.545  16.880 -0.2624 -0.9576  0.5752
14950TIP3    H266266   1.980   4.571  16.924 -0.2392 -0.0497 -0.0135
14951TIP3   OH266267   2.026   1.099  15.130 -0.2821  0.0363 -0.3997
14951TIP3    H166268   2.075   1.033  15.080  1.7859  1.2934 -0.1713
14951TIP3    H266269   1.950   1.120  15.075  0.7904 -0.1576 -2.0383
14952TIP3   OH266270   3.066   0.764   4.334  0.0503 -0.1122 -0.0995
14952TIP3    H166271   3.096   0.796   4.419  0.2882 -0.1075 -0.1843
14952TIP3    H266272   3.133   0.701   4.307 -0.9034 -1.4285  0.5146
14953TIP3   OH266273   6.057   5.657   6.233 -0.2871  0.3550 -0.6213
14953TIP3    H166274   5.969   5.639   6.200 -1.0255  1.6491  0.5362
14953TIP3    H266275   6.049   5.740   6.280  1.0622 -0.5606  1.3999
14954TIP3   OH266276   4.184   3.318  13.558  0.4375 -0.5204 -0.0431
14954TIP3    H166277   4.211   3.382  13.492  1.6279 -0.1852  0.7436
14954TIP3    H266278   4.089   3.316  13.551  0.3442  1.4678  0.0286
14955TIP3   OH266279   5.040   1.778  13.647  1.2329 -0.2819 -0.1799
14955TIP3    H166280   5.115   1.754  13.701 -0.1027 -2.0931  0.9965
14955TIP3    H266281   4.968   1.725  13.681 -0.3929  0.7483 -1.8184
14956TIP3   OH266282   5.829   5.263   2.810 -0.0392 -0.3203 -0.7004
14956TIP3    H166283   5.762   5.325   2.838  0.4080 -0.5418  0.9674
14956TIP3    H266284   5.801   5.234   2.723 -1.2579  0.7671 -0.6882
14957TIP3   OH266285   3.129   5.119   6.475  0.4957 -0.8867 -0.0362
14957TIP3    H166286   3.201   5.180   6.456  0.9449 -1.3416  0.1645
14957TIP3    H266287   3.054   5.175   6.492  0.4060 -0.4255 -1.8016
14958TIP3   OH266288   3.039   5.059  12.434 -0.8687  1.0208  0.6362
14958TIP3    H166289   3.043   5.093  12.523 -1.8644  0.6059  0.8452
14958TIP3    H266290   3.121   5.089  12.394  0.2592  0.0680  2.0870
14959TIP3   OH266291   2.236   4.150   4.572 -0.4349  0.3466 -0.0946
14959TIP3    H166292   2.263   4.091   4.502 -1.5442 -0.0898 -0.1731
14959TIP3    H266293   2.231   4.236   4.529 -0.6058  0.1714 -0.4315
14960TIP3   OH266294   1.753   0.701   4.488 -0.5430 -0.4666  0.5350
14960TIP3    H166295   1.822   0.645   4.453  0.2185 -0.2739  1.6582
14960TIP3    H266296   1.796   0.785   4.505 -1.3537  0.0492  0.1056
14961TIP3   OH266297   5.538   1.420  17.129  0.0655 -0.1466  0.2162
14961TIP3    H166298   5.547   1.492  17.191 -2.6717  1.2287 -0.8275
14961TIP3    H266299   5.553   1.459  17.043  3.4209 -1.9432 -0.1736
14962TIP3   OH266300   5.400   5.296   4.922 -0.2978  0.2157  0.4123
14962TIP3    H166301   5.332   5.292   4.989 -1.7256 -0.7644 -1.0341
14962TIP3    H266302   5.388   5.216   4.871 -0.9166  2.0326 -2.5265
14963TIP3   OH266303   5.833   2.986  10.766  0.8409  0.3224  0.1916
14963TIP3    H166304   5.786   2.914  10.808  1.7099 -1.4115 -1.6755
14963TIP3    H266305   5.764   3.048  10.743 -0.5800 -1.9015 -1.9823
14964TIP3   OH266306   1.174   4.020  14.204  0.3392 -0.1827  0.3324
14964TIP3    H166307   1.144   3.980  14.122  0.4034 -0.7478  0.5792
14964TIP3    H266308   1.112   4.092  14.219 -0.1682 -0.5908  0.2144
14965TIP3   OH266309   4.481   4.249   4.867  0.0752 -0.5178  0.3814
14965TIP3    H166310   4.534   4.256   4.787  2.5460 -0.2213  1.9303
14965TIP3    H266311   4.480   4.338   4.902 -0.4386 -0.7699  1.0180
14966TIP3   OH266312   4.359   5.003  11.342 -0.7388 -0.3389 -0.0075
14966TIP3    H166313   4.342   5.092  11.311  0.5990 -0.1680 -0.2873
14966TIP3    H266314   4.452   5.001  11.363 -0.1338 -2.3227 -2.3223
14967TIP3   OH266315   1.359   5.423  11.455  0.4210  0.5519 -0.3234
14967TIP3    H166316   1.407   5.342  11.438  1.9458  1.1332  0.9331
14967TIP3    H266317   1.285   5.421  11.394 -0.5066 -2.5260  0.7033
14968TIP3   OH266318   3.304   0.350  16.415 -0.1553 -0.6098  0.3754
14968TIP3    H166319   3.337   0.358  16.325  3.7447  0.7395  1.6902
14968TIP3    H266320   3.227   0.407  16.417 -0.0184 -0.2100 -1.9687
14969TIP3   OH266321   5.255   5.626   0.182 -0.1085  0.5719 -0.5323
14969TIP3    H166322   5.214   5.576   0.253 -1.0566  1.1062 -0.6923
14969TIP3    H266323   5.295   5.559   0.126 -1.8275 -0.0847 -1.0345
14970TIP3   OH266324   3.460   0.975  13.564 -0.6789 -0.4699 -0.0006
14970TIP3    H166325   3.538   1.028  13.548 -1.5146  0.3765 -1.5561
14970TIP3    H266326   3.477   0.892  13.521 -0.9201 -0.0069 -1.0113
14971TIP3   OH266327   3.550   5.897   1.516  0.3542 -0.1945 -0.4585
14971TIP3    H166328   3.575   5.831   1.581  0.9808  0.0637 -0.4284
14971TIP3    H266329   3.563   5.981   1.562 -0.6784 -0.0438 -0.4065
14972TIP3   OH266330   4.015   1.242  11.990  0.2562  0.2195 -0.2268
14972TIP3    H166331   3.981   1.185  11.922  2.5741 -0.6018 -0.7753
14972TIP3    H266332   3.938   1.286  12.025 -1.1207 -0.0418 -2.7055
14973TIP3   OH266333   1.561   4.729  16.053  0.1755 -0.0233  0.0558
14973TIP3    H166334   1.600   4.653  16.011 -0.1584  1.0114 -2.2665
14973TIP3    H266335   1.624   4.754  16.121  0.6366 -1.8765  0.3862
14974TIP3   OH266336   0.413   4.982  12.229  0.0982 -0.3795 -0.1677
14974TIP3    H166337   0.378   5.034  12.157  0.5431  1.0348  0.5895
14974TIP3    H266338   0.508   4.987  12.218  0.1444 -1.2481 -0.2171
14975TIP3   OH266339   6.336   3.396  11.076  0.5718  0.0098 -0.2329
14975TIP3    H166340   6.397   3.323  11.066  0.1748 -0.4655  0.7207
14975TIP3    H266341   6.260   3.358  11.120  1.3194  1.4455  2.5053
14976TIP3   OH266342   5.980   2.769   2.492 -0.6654 -0.4496 -0.0560
14976TIP3    H166343   5.954   2.777   2.400 -2.0971  0.4615  0.3856
14976TIP3    H266344   5.944   2.685   2.521 -1.3566 -0.1406  0.0006
14977TIP3   OH266345   4.063   2.453   6.330  0.7373  0.3041 -0.5377
14977TIP3    H166346   3.973   2.459   6.296  0.8282  0.5856 -0.7323
14977TIP3    H266347   4.052   2.428   6.422  0.4782 -0.1744 -0.6959
14978TIP3   OH266348   3.311   4.208  15.233  0.0163 -0.8036  0.1977
14978TIP3    H166349   3.396   4.201  15.276  0.3995 -0.5156 -0.4986
14978TIP3    H266350   3.247   4.205  15.304  0.6367 -0.3203  0.7785
14979TIP3   OH266351   6.165   1.476   5.038 -0.4919 -0.4409  0.1703
14979TIP3    H166352   6.085   1.528   5.030 -0.1650  0.2660  1.2103
14979TIP3    H266353   6.222   1.529   5.095  1.0015 -0.5806 -1.1295
14980TIP3   OH266354   2.311   0.918   0.076 -0.5857  0.1910 -0.5329
14980TIP3    H166355   2.260   0.942  -0.001  1.6450  1.4977 -1.6989
14980TIP3    H266356   2.288   0.983   0.142 -1.1685  0.1430 -0.6850
14981TIP3   OH266357   2.254   6.650   3.456 -0.7497 -0.1194  0.7396
14981TIP3    H166358   2.214   6.686   3.377  2.3906 -0.7574 -1.3162
14981TIP3    H266359   2.204   6.569   3.473 -2.1610  0.5889  0.1170
14982TIP3   OH266360   5.859   2.294  13.715  0.3589  0.1816  0.7408
14982TIP3    H166361   5.831   2.309  13.624 -0.6976  1.2012  1.2042
14982TIP3    H266362   5.782   2.257  13.758  0.8542 -0.2977  1.2280
14983TIP3   OH266363   2.513   4.180   1.581  0.2760 -0.4098  0.4355
14983TIP3    H166364   2.426   4.210   1.555  0.7419  0.5020 -0.1191
14983TIP3    H266365   2.526   4.099   1.532  0.3756  0.2989 -0.7441
14984TIP3   OH266366   6.283   5.789   2.422 -0.5126 -0.4551 -0.2333
14984TIP3    H166367   6.242   5.873   2.443 -0.7953 -0.9946  1.6218
14984TIP3    H266368   6.335   5.806   2.344 -1.6703  1.0754 -0.7216
14985TIP3   OH266369   1.297   2.938   4.520  0.3711  0.3039  0.1387
14985TIP3    H166370   1.327   2.848   4.509  0.8517  0.5293 -0.4763
14985TIP3    H266371   1.360   2.977   4.580  0.5335  0.4057 -0.0970
14986TIP3   OH266372   6.038   0.634  11.535  0.3760 -0.2269  0.2361
14986TIP3    H166373   6.035   0.725  11.564  0.8843  0.3276 -1.3683
14986TIP3    H266374   5.948   0.602  11.547  0.1408  0.5468  0.6062
14987TIP3   OH266375   2.742   2.168   3.347 -0.5725  0.1536  0.4400
14987TIP3    H166376   2.808   2.140   3.411  1.5276 -1.1861 -2.0722
14987TIP3    H266377   2.732   2.261   3.362  0.0241 -0.0549  2.5170
14988TIP3   OH266378   2.469   4.040  16.384  0.0796  0.1613  0.5419
14988TIP3    H166379   2.376   4.018  16.385  0.3938 -1.3352  0.0407
14988TIP3    H266380   2.506   3.990  16.457  1.0716 -2.4116 -1.5396
14989TIP3   OH266381   1.926   1.975  16.188  0.2945  0.0823  0.3280
14989TIP3    H166382   1.997   1.914  16.210  0.7714  1.1734  1.9817
14989TIP3    H266383   1.971   2.048  16.144 -0.2374 -0.5454 -1.3651
14990TIP3   OH266384   4.993   0.489  13.731  0.4036 -0.2698 -0.3829
14990TIP3    H166385   4.923   0.430  13.762 -1.0860  1.2635 -0.6688
14990TIP3    H266386   5.029   0.527  13.811  0.7306 -0.8588 -0.2457
14991TIP3   OH266387   0.694   0.953  15.196  0.6123 -0.1799 -0.1211
14991TIP3    H166388   0.741   0.885  15.147  2.2321 -0.1039  1.2374
14991TIP3    H266389   0.683   0.916  15.284 -0.2788  0.5473  0.0912
14992TIP3   OH266390   5.204   0.921   4.726  0.3157  0.0553  0.2761
14992TIP3    H166391   5.282   0.929   4.670  0.2911 -2.2222 -0.1618
14992TIP3    H266392   5.150   0.996   4.702  1.5021  0.6101 -0.8047
14993TIP3   OH266393   3.606   6.053  11.161  0.8907 -0.4494 -0.4094
14993TIP3    H166394   3.544   5.981  11.157  1.5104 -1.1270  1.4052
14993TIP3    H266395   3.552   6.131  11.172  0.3234 -0.9798  0.6605
14994TIP3   OH266396   1.437   0.559   0.759  0.0017  0.2191  0.0844
14994TIP3    H166397   1.502   0.565   0.829  0.4992  1.6940 -0.4722
14994TIP3    H266398   1.456   0.633   0.701 -1.0511 -0.3624 -1.0625
14995TIP3   OH266399   4.155   3.668   0.983 -0.4230  0.1274 -0.1945
14995TIP3    H166400   4.098   3.744   0.985  0.5583  0.8722 -0.0246
14995TIP3    H266401   4.230   3.692   1.038  0.4337 -0.5189 -1.0490
14996TIP3   OH266402   4.196   0.879   4.746  0.0317  0.0341 -0.0766
14996TIP3    H166403   4.269   0.875   4.685 -0.8943  1.2924 -1.3524
14996TIP3    H266404   4.195   0.793   4.788  1.8857 -0.1891 -0.4070
14997TIP3   OH266405   2.666   5.107   6.371 -0.0632 -0.6431  0.0888
14997TIP3    H166406   2.656   5.012   6.368 -0.5896 -0.6126  0.7700
14997TIP3    H266407   2.580   5.140   6.395  0.6479 -0.1533  2.1728
14998TIP3   OH266408   2.345   0.446   0.215 -0.2212 -0.1792 -0.4717
14998TIP3    H166409   2.310   0.527   0.179 -0.3627  0.6952  1.4806
14998TIP3    H266410   2.430   0.434   0.173 -0.1029  1.1236 -0.6215
14999TIP3   OH266411   5.563   0.476   1.190  0.3570 -0.3125 -0.1964
14999TIP3    H166412   5.522   0.461   1.275 -1.4494 -0.0101 -0.9556
14999TIP3    H266413   5.595   0.390   1.163  1.2863 -0.3421  0.9277
15000TIP3   OH266414   1.923   3.273  12.328 -0.1401 -0.3326  0.1842
15000TIP3    H166415   1.940   3.185  12.363  0.3870 -0.5867 -0.6645
15000TIP3    H266416   1.986   3.282  12.256 -1.9607 -0.3318 -1.5018
15001TIP3   OH266417   2.176   0.056   1.967 -0.0499  0.0592  0.3840
15001TIP3    H166418   2.242   0.126   1.967  0.1747 -0.1509  0.5534
15001TIP3    H266419   2.221  -0.019   1.930 -1.0121  0.6543 -2.1488
15002TIP3   OH266420   0.197   2.743   0.044  0.1372 -0.1255 -0.0891
15002TIP3    H166421   0.243   2.826   0.026  0.6246 -0.1283  1.0301
15002TIP3    H266422   0.166   2.753   0.134 -0.5293 -0.8447 -0.2342
15003TIP3   OH266423   0.725   5.390   4.209 -0.1616  0.4730 -0.1900
15003TIP3    H166424   0.787   5.368   4.139  1.4337  0.0788  1.2672
15003TIP3    H266425   0.661   5.448   4.167  0.0978 -0.6044 -2.2125
15004TIP3   OH266426   0.810   3.517  13.199 -0.1354  0.8384  0.0411
15004TIP3    H166427   0.752   3.549  13.129 -0.3277 -0.1075 -0.2482
15004TIP3    H266428   0.869   3.590  13.216  0.3830  0.8388 -1.6216
15005TIP3   OH266429   2.554   0.124  12.595  0.3793 -0.3529  0.4345
15005TIP3    H166430   2.555   0.133  12.500  1.8037 -2.5334  0.1758
15005TIP3    H266431   2.640   0.087  12.617  0.1203  0.1811  2.5962
15006TIP3   OH266432   2.028   3.326   5.027 -0.8504  0.0059  0.0867
15006TIP3    H166433   2.048   3.233   5.035 -0.2916  0.0863 -0.3202
15006TIP3    H266434   2.078   3.368   5.097 -0.7863  0.0424  0.0191
15007TIP3   OH266435   6.420   3.319   4.270  0.5019 -0.5839  0.1419
15007TIP3    H166436   6.452   3.378   4.202 -1.2132 -1.1947 -1.3024
15007TIP3    H266437   6.389   3.377   4.340  0.0152  0.2052 -0.6938
15008TIP3   OH266438   4.041   3.804  15.903 -0.0579 -0.4755  0.0516
15008TIP3    H166439   4.074   3.882  15.948 -0.0415 -0.9857  0.9684
15008TIP3    H266440   4.120   3.755  15.880 -0.0967 -0.7271  0.4377
15009TIP3   OH266441   5.682   3.451  12.783 -0.5800 -0.8014 -0.2423
15009TIP3    H166442   5.732   3.530  12.805 -2.9436  1.2284 -1.5931
15009TIP3    H266443   5.727   3.414  12.708  0.2114 -0.3548  0.0036
15010TIP3   OH266444   0.861   4.230   2.565 -0.0104 -0.5988  0.7571
15010TIP3    H166445   0.791   4.165   2.555  0.5663 -1.1029 -0.1297
15010TIP3    H266446   0.841   4.273   2.647  0.6736 -3.2488  2.4475
15011TIP3   OH266447   1.144   2.441  12.559  0.7292 -0.3798  0.4062
15011TIP3    H166448   1.074   2.506  12.559 -0.1857 -1.2228 -2.8690
15011TIP3    H266449   1.221   2.490  12.529  0.1169 -0.6209 -1.7306
15012TIP3   OH266450   5.631   2.120   3.413 -0.2518  0.2348 -0.6774
15012TIP3    H166451   5.591   2.073   3.340 -0.8003  0.8866 -0.8022
15012TIP3    H266452   5.583   2.089   3.490 -1.9548  1.9624 -0.9549
15013TIP3   OH266453   3.239   0.868  12.958  0.1034  0.4085 -0.1212
15013TIP3    H166454   3.259   0.815  13.036 -1.8099 -1.2831 -0.6834
15013TIP3    H266455   3.323   0.908  12.934  0.8958  0.4548  2.3864
15014TIP3   OH266456   6.140   2.195  12.867 -0.0403 -0.1362 -0.3271
15014TIP3    H166457   6.189   2.135  12.923  1.3274 -0.3169 -1.6678
15014TIP3    H266458   6.144   2.156  12.780 -0.6226  1.0290 -0.9016
15015TIP3   OH266459   0.243   5.315   1.182  0.4969  0.1181  0.4245
15015TIP3    H166460   0.287   5.328   1.099 -0.7653  1.7394 -0.0341
15015TIP3    H266461   0.271   5.388   1.237  1.9024 -1.3246  1.7456
15016TIP3   OH266462   1.882   1.596  11.304 -0.1818  0.2204  0.2904
15016TIP3    H166463   1.890   1.689  11.325 -0.1029  0.4822 -0.8034
15016TIP3    H266464   1.835   1.595  11.220  1.1932 -0.6425 -0.5004
15017TIP3   OH266465   2.292   3.543  13.099 -0.6077 -0.2819 -0.2622
15017TIP3    H166466   2.227   3.582  13.041 -1.3571 -1.8389 -0.5303
15017TIP3    H266467   2.280   3.449  13.087  1.9462 -0.6175 -0.5804
15018TIP3   OH266468   5.685   2.751  14.445  0.6568  0.1322 -0.1789
15018TIP3    H166469   5.748   2.807  14.399 -2.4211  1.0123 -3.8497
15018TIP3    H266470   5.643   2.810  14.508  0.9989  0.5594 -0.3428
15019TIP3   OH266471   2.040   5.049   4.378 -0.0180 -0.1687  0.1365
15019TIP3    H166472   2.046   4.987   4.451  0.9003 -0.4878 -0.1947
15019TIP3    H266473   1.981   5.007   4.315 -1.9919  0.7550  1.2917
15020TIP3   OH266474   3.599   4.442  17.325 -0.1358 -0.1293  0.2254
15020TIP3    H166475   3.594   4.365  17.268  1.5744 -0.8082  0.9473
15020TIP3    H266476   3.675   4.427  17.380 -0.3517  1.6327  1.0821
15021TIP3   OH266477   4.046   4.555  17.346 -0.0228 -0.2992  0.5960
15021TIP3    H166478   4.136   4.523  17.334  0.1425  0.4713 -0.4038
15021TIP3    H266479   4.032   4.552  17.440  1.9460  1.8868  1.0535
15022TIP3   OH266480   0.942   5.846  12.291  0.3514  0.2451  0.1629
15022TIP3    H166481   0.933   5.923  12.235  1.6263 -0.1457 -0.6120
15022TIP3    H266482   0.868   5.790  12.266  0.4072  0.4612 -0.5038
15023TIP3   OH266483   1.820   5.106  13.902 -0.2692 -0.2631  0.2601
15023TIP3    H166484   1.874   5.053  13.961 -1.2655  0.0909  1.5325
15023TIP3    H266485   1.770   5.164  13.960 -1.1937  0.1890 -0.9380
15024TIP3   OH266486   4.593   3.997   1.744  0.9667 -0.1427  0.2051
15024TIP3    H166487   4.522   4.059   1.762 -0.6255 -1.5132 -1.0742
15024TIP3    H266488   4.594   3.940   1.821  0.5919 -0.1794  0.1879
15025TIP3   OH266489   5.984   2.921   6.175  0.0853 -0.1463 -0.2517
15025TIP3    H166490   6.001   2.888   6.263  0.3323  0.9425  0.1228
15025TIP3    H266491   6.064   2.966   6.149 -0.1754  0.0089 -0.8187
15026TIP3   OH266492   6.018   3.549  11.003  0.2547 -0.1939  0.0077
15026TIP3    H166493   5.935   3.563  10.957  1.6459  0.2149 -2.6375
15026TIP3    H266494   6.004   3.471  11.056 -1.7650 -0.2014 -0.4617
15027TIP3   OH266495   5.620   1.662   6.163 -0.3367 -0.1745 -0.3274
15027TIP3    H166496   5.638   1.595   6.229 -0.9690 -0.4537 -0.4350
15027TIP3    H266497   5.650   1.624   6.081 -0.4234 -0.2048 -0.3445
15028TIP3   OH266498   1.846   4.851  11.806 -0.0911 -0.0562 -0.3410
15028TIP3    H166499   1.770   4.799  11.832  0.3951 -1.2933 -1.2679
15028TIP3    H266500   1.909   4.838  11.877 -0.4774  0.3913  0.0870
15029TIP3   OH266501   3.546   6.633  15.302 -0.1252  0.4696 -0.6576
15029TIP3    H166502   3.526   6.543  15.274  1.1671  0.3256 -1.1864
15029TIP3    H266503   3.530   6.633  15.396  0.7517 -0.5995 -0.4883
15030TIP3   OH266504   5.822   6.556  10.490 -0.1856  0.2242 -0.1018
15030TIP3    H166505   5.835   6.620  10.420 -0.0964  1.8422  1.3200
15030TIP3    H266506   5.753   6.594  10.544 -1.1568 -1.6110  0.0062
15031TIP3   OH266507   2.000   6.442   4.268 -0.7454 -0.0271 -0.8880
15031TIP3    H166508   2.055   6.508   4.310 -1.1186 -0.1542 -0.1783
15031TIP3    H266509   2.029   6.359   4.305 -1.6172 -0.0660 -0.2584
15032TIP3   OH266510   4.374   5.666   3.914 -0.3647 -0.0839 -0.0606
15032TIP3    H166511   4.418   5.617   3.844 -3.4413 -0.4987 -1.8897
15032TIP3    H266512   4.336   5.598   3.970 -0.3154  0.2366  0.3639
15033TIP3   OH266513   6.554   1.506  16.414 -0.4242 -0.3480  0.5495
15033TIP3    H166514   6.518   1.422  16.385  0.0594 -0.5446  0.5100
15033TIP3    H266515   6.505   1.572  16.364  0.4072 -0.6821 -0.7538
15034TIP3   OH266516   2.016   5.800   2.627  0.6913  0.1476 -0.5978
15034TIP3    H166517   2.011   5.878   2.572  0.3052  0.7394  0.2661
15034TIP3    H266518   2.014   5.833   2.717 -2.1946 -0.9662 -0.1696
15035TIP3   OH266519   0.888   4.750   4.918  0.2574 -0.5576 -0.3487
15035TIP3    H166520   0.933   4.706   4.990 -0.2323 -1.7628 -0.7612
15035TIP3    H266521   0.819   4.801   4.961 -0.5158 -1.8614 -0.0030
15036TIP3   OH266522   2.496   1.821  12.210  0.3067  0.0991 -0.4481
15036TIP3    H166523   2.584   1.786  12.196 -0.2063 -0.2870 -3.4564
15036TIP3    H266524   2.442   1.744  12.228  0.6189  0.4049  2.1472
15037TIP3   OH266525   0.369   4.275  16.379 -0.4169  0.1112 -0.2083
15037TIP3    H166526   0.422   4.351  16.354  0.5882 -0.0096  1.4450
15037TIP3    H266527   0.404   4.203  16.327 -0.7264  0.5633 -1.0614
15038TIP3   OH266528   4.711   6.548  12.805  1.0759  0.4134  0.0470
15038TIP3    H166529   4.640   6.603  12.773  0.2163  0.1042  1.3395
15038TIP3    H266530   4.777   6.610  12.836  1.5328  0.7043 -1.4441
15039TIP3   OH266531   1.111   4.622  10.762  0.4062 -0.2748  0.1944
15039TIP3    H166532   1.184   4.569  10.731 -1.0761 -1.9678 -0.5524
15039TIP3    H266533   1.054   4.632  10.685 -1.6732 -1.6601  1.4803
15040TIP3   OH266534   0.148   1.028   1.729 -0.1486  0.2239 -0.4939
15040TIP3    H166535   0.235   0.995   1.707 -0.2064 -0.5795  0.3740
15040TIP3    H266536   0.089   0.979   1.672 -0.2136 -1.0712  0.6266
15041TIP3   OH266537   2.049   0.746   2.599 -0.1137  0.7347  0.5126
15041TIP3    H166538   2.103   0.672   2.626  0.4877  1.0721  0.2581
15041TIP3    H266539   2.111   0.817   2.586 -0.4240  0.7168 -1.3006
15042TIP3   OH266540   1.266   4.377   6.293  0.1744  0.2661 -0.6389
15042TIP3    H166541   1.332   4.359   6.360 -0.0164 -2.8723 -1.1348
15042TIP3    H266542   1.204   4.436   6.335  1.2772  0.2402  1.1296
15043TIP3   OH266543   4.565   4.715  12.506 -0.3173 -1.1404  0.0774
15043TIP3    H166544   4.652   4.752  12.489 -0.5610 -0.6852 -0.2086
15043TIP3    H266545   4.518   4.724  12.423 -1.9303  2.2054  1.1523
15044TIP3   OH266546   2.467   3.186  13.735 -0.3564 -0.1412  0.0279
15044TIP3    H166547   2.399   3.214  13.675 -0.2278  0.2462  0.0568
15044TIP3    H266548   2.444   3.096  13.758 -1.1007  0.1272  0.3773
15045TIP3   OH266549   3.467   5.219   4.291 -0.4806  0.3561  0.6787
15045TIP3    H166550   3.439   5.135   4.256  3.1834 -0.1558 -1.6105
15045TIP3    H266551   3.464   5.208   4.386 -2.8735 -1.2374  0.4915
15046TIP3   OH266552   6.133   0.093  16.203 -0.4327  0.1078 -0.5044
15046TIP3    H166553   6.066   0.134  16.149  0.2744  2.5237  0.3311
15046TIP3    H266554   6.168   0.164  16.257  2.3705 -1.1733 -0.4488
15047TIP3   OH266555   0.736   3.976   1.733  0.6154  0.1685  0.1525
15047TIP3    H166556   0.828   4.003   1.743  1.2153 -1.7799  0.3225
15047TIP3    H266557   0.714   3.936   1.817 -0.6201  1.1493  0.3319
15048TIP3   OH266558   6.285   4.726   4.791 -1.0190 -0.2299  0.1471
15048TIP3    H166559   6.301   4.632   4.785 -0.7219 -0.2509  1.0902
15048TIP3    H266560   6.267   4.742   4.883 -0.1773  0.7693  0.1599
15049TIP3   OH266561   0.877   1.713  14.608 -0.1370  0.2690 -0.8815
15049TIP3    H166562   0.930   1.651  14.658 -0.8852  0.4607  0.1623
15049TIP3    H266563   0.791   1.673  14.603 -0.8007  1.4634  0.3201
15050TIP3   OH266564   3.570   5.985  13.166 -0.0352  0.0046  0.3671
15050TIP3    H166565   3.540   6.008  13.255 -0.0681 -1.3041  0.7185
15050TIP3    H266566   3.621   6.060  13.138 -1.5377  1.2400  0.7635
15051TIP3   OH266567   0.891   4.389  13.670 -0.6457  0.1579 -0.5281
15051TIP3    H166568   0.934   4.373  13.754 -1.7514 -0.9511 -0.1388
15051TIP3    H266569   0.878   4.484  13.668  1.7848  0.5544 -0.6909
15052TIP3   OH266570   5.846   5.215   1.590  0.1057 -0.3462  0.3000
15052TIP3    H166571   5.823   5.297   1.633 -0.7513  0.0843 -0.9241
15052TIP3    H266572   5.897   5.241   1.514 -0.2073 -0.9369 -0.1191
15053TIP3   OH266573   0.249   6.652   5.074  0.4299 -0.0783  0.6412
15053TIP3    H166574   0.236   6.601   5.154 -1.5710 -1.8341 -0.6925
15053TIP3    H266575   0.184   6.721   5.079 -0.6908 -1.0451 -0.0651
15054TIP3   OH266576   1.846   2.747   0.038  0.2628 -0.1327  0.0871
15054TIP3    H166577   1.891   2.687  -0.021  1.4449  0.5665  0.2484
15054TIP3    H266578   1.753   2.728   0.025  0.5826 -1.4246 -0.4489
15055TIP3   OH266579   6.092   5.765   3.476 -0.2119 -0.4526 -0.3824
15055TIP3    H166580   6.186   5.782   3.479 -0.1836 -0.6100  2.0313
15055TIP3    H266581   6.084   5.670   3.464 -0.0339 -0.5050 -0.0952
15056TIP3   OH266582   3.699   3.895   1.550  0.2326  0.1167 -0.2283
15056TIP3    H166583   3.761   3.828   1.579  1.9256  0.9397 -1.7531
15056TIP3    H266584   3.749   3.977   1.553 -1.5708  1.2326  0.9097
15057TIP3   OH266585   2.835   1.565   2.264 -0.4529 -0.5774  0.1453
15057TIP3    H166586   2.887   1.494   2.225  1.3913  0.8765 -0.1907
15057TIP3    H266587   2.835   1.546   2.357  1.9026  0.0665  0.3387
15058TIP3   OH266588   2.612   1.552  12.718 -0.2166 -0.0896 -0.2257
15058TIP3    H166589   2.625   1.459  12.697 -0.4342  0.3586 -2.5858
15058TIP3    H266590   2.523   1.571  12.689 -0.4034  0.7348  0.8252
15059TIP3   OH266591   4.189   3.577  13.154  0.0510  0.9958 -0.1479
15059TIP3    H166592   4.184   3.671  13.135 -0.2522  1.4720  2.0904
15059TIP3    H266593   4.236   3.572  13.237 -0.0186 -0.8418 -0.1916
15060TIP3   OH266594   4.867   2.702   0.270 -0.1010 -0.0078 -0.1201
15060TIP3    H166595   4.900   2.721   0.182  0.8609  0.4469  0.3192
15060TIP3    H266596   4.941   2.661   0.315 -0.6854 -0.5432  0.3868
15061TIP3   OH266597   6.019   6.243  11.206  0.0631 -0.3371 -0.2012
15061TIP3    H166598   5.988   6.225  11.295 -1.0649  1.6683 -0.1319
15061TIP3    H266599   6.082   6.314  11.216 -3.0723  2.8514 -1.2608
15062TIP3   OH266600   1.233   5.105  14.771 -0.9856 -0.0657 -0.0193
15062TIP3    H166601   1.290   5.182  14.775 -1.6700  0.5533 -1.6631
15062TIP3    H266602   1.293   5.033  14.750 -0.8120  0.6447 -2.1463
15063TIP3   OH266603   5.558   0.287  11.735 -0.4415  0.4429 -0.1792
15063TIP3    H166604   5.594   0.200  11.753 -0.3448  0.7958  1.5190
15063TIP3    H266605   5.510   0.277  11.653  1.5496 -0.6017 -1.2654
15064TIP3   OH266606   0.765   4.827  12.481  0.4421  0.0310 -1.1703
15064TIP3    H166607   0.802   4.775  12.552 -0.5393  0.3101 -0.4236
15064TIP3    H266608   0.802   4.790  12.401  2.1968  0.2105 -0.4921
15065TIP3   OH266609   6.146   1.978  14.846  0.2060  0.0825 -0.2935
15065TIP3    H166610   6.131   1.892  14.808  0.9023  0.4516 -1.4602
15065TIP3    H266611   6.205   1.963  14.919 -0.8414 -0.5985  0.4408
15066TIP3   OH266612   0.184   2.801  12.247 -0.3481 -0.0930 -0.1663
15066TIP3    H166613   0.173   2.737  12.318 -3.2139  0.2570 -0.1764
15066TIP3    H266614   0.147   2.882  12.282 -0.2913  0.5305 -1.4830
15067TIP3   OH266615   1.253   0.699   2.184  0.1371  0.0568 -0.3691
15067TIP3    H166616   1.342   0.681   2.154  0.0193  2.2221 -2.3183
15067TIP3    H266617   1.262   0.771   2.246 -0.3004  1.1775 -1.5543
15068TIP3   OH266618   6.344   6.269   2.689 -0.2190 -0.0253 -0.0888
15068TIP3    H166619   6.268   6.325   2.676  0.9563  1.6186 -0.2249
15068TIP3    H266620   6.376   6.250   2.601 -0.3245 -0.4941 -0.0269
15069TIP3   OH266621   0.538   3.799  16.183  0.2004 -0.3686 -0.4953
15069TIP3    H166622   0.622   3.764  16.153  0.5575  0.8857 -1.0483
15069TIP3    H266623   0.476   3.774  16.114  0.3757 -0.2448 -0.7027
15070TIP3   OH266624   4.371   6.129  15.247 -0.4184 -0.1091 -0.4513
15070TIP3    H166625   4.309   6.103  15.315  0.4441 -0.9511  0.0288
15070TIP3    H266626   4.451   6.081  15.267  0.8249  1.9089 -0.3118
15071TIP3   OH266627   6.080   3.775  14.293  0.3683  0.3413  0.1082
15071TIP3    H166628   6.088   3.746  14.202 -0.8259  0.8909 -0.1832
15071TIP3    H266629   6.005   3.727  14.326 -0.2076  1.3677  0.3129
15072TIP3   OH266630   6.360   3.301   3.158 -0.5553  0.1913  0.5992
15072TIP3    H166631   6.266   3.310   3.142 -0.1201  1.1940 -1.7155
15072TIP3    H266632   6.388   3.388   3.183  0.0433  0.3361 -0.5265
15073TIP3   OH266633   2.985   1.053   6.382  0.3348  0.2647 -0.3044
15073TIP3    H166634   2.920   0.994   6.421 -2.5234  1.4681 -2.8492
15073TIP3    H266635   3.056   0.996   6.354  0.5966 -1.0942  2.7417
15074TIP3   OH266636   3.702   5.575  15.091  0.7072 -0.0222 -0.2550
15074TIP3    H166637   3.645   5.502  15.114  1.6771 -0.5557  0.5245
15074TIP3    H266638   3.735   5.554  15.004 -0.9611  0.7428 -1.1246
15075TIP3   OH266639   1.348   3.292  12.318 -0.1565 -0.7894 -0.3221
15075TIP3    H166640   1.308   3.211  12.351 -2.2006  0.2964 -0.0093
15075TIP3    H266641   1.285   3.360  12.339  1.3185  0.8504 -0.9967
15076TIP3   OH266642   4.393   1.977  11.241 -0.1363  0.4211 -0.2859
15076TIP3    H166643   4.349   1.939  11.317 -0.4006  0.2708 -0.5093
15076TIP3    H266644   4.392   1.907  11.176  0.7424  0.3039 -0.1801
15077TIP3   OH266645   3.935   2.195  14.977  0.4409 -0.2105 -0.6182
15077TIP3    H166646   4.026   2.216  14.953  0.6644 -1.3835 -0.8404
15077TIP3    H266647   3.893   2.172  14.894 -0.0645  0.2852 -0.5098
15078TIP3   OH266648   2.284   5.737   1.404 -0.1164 -0.7587 -0.4253
15078TIP3    H166649   2.344   5.670   1.373  0.8199 -0.1692  0.0529
15078TIP3    H266650   2.229   5.692   1.468  0.9365 -0.9441  0.3783
15079TIP3   OH266651   1.989   0.601  14.062 -0.1884 -0.0575 -0.3563
15079TIP3    H166652   2.067   0.628  14.013  1.0947 -1.6586  0.6991
15079TIP3    H266653   1.990   0.505  14.059 -2.2138 -0.1254 -0.4098
15080TIP3   OH266654   0.927   4.196   1.711  0.2002  0.2536  0.4168
15080TIP3    H166655   0.877   4.254   1.769 -0.3962  1.4882 -1.2639
15080TIP3    H266656   0.877   4.195   1.629  1.3579 -0.9294 -0.3150
15081TIP3   OH266657   4.131   6.435   1.149 -0.2489 -0.0290 -0.4142
15081TIP3    H166658   4.137   6.526   1.120 -1.3285 -0.7006 -3.0316
15081TIP3    H266659   4.212   6.394   1.119  1.0843  0.3301  2.3109
15082TIP3   OH266660   2.477   6.739   5.960  0.1877  0.4637 -0.3152
15082TIP3    H166661   2.476   6.678   5.886 -1.6626 -1.3528  1.1202
15082TIP3    H266662   2.405   6.800   5.942 -1.2698 -0.8971  0.6240
15083TIP3   OH266663   2.601   5.072   4.059  0.2161 -0.1352  0.0622
15083TIP3    H166664   2.618   5.142   3.997  0.7347  0.8905  1.3248
15083TIP3    H266665   2.642   4.994   4.020  0.9688  0.5995 -0.6362
15084TIP3   OH266666   3.564   1.259   5.498 -0.6925  0.0057 -0.4615
15084TIP3    H166667   3.590   1.337   5.449 -1.0268  2.5935  3.0598
15084TIP3    H266668   3.646   1.229   5.538 -0.6503 -1.2578 -1.4338
15085TIP3   OH266669   4.545   0.121   1.163 -0.0204  0.3573 -0.2663
15085TIP3    H166670   4.457   0.086   1.147  1.0323 -2.6643 -0.1408
15085TIP3    H266671   4.566   0.168   1.082 -1.2568 -0.0408 -0.8535
15086TIP3   OH266672   2.228   1.829   0.034  0.1084 -0.2275  0.1427
15086TIP3    H166673   2.199   1.849   0.123 -0.5444 -2.3038  0.4613
15086TIP3    H266674   2.324   1.836   0.038  0.1444 -0.9924  1.2344
15087TIP3   OH266675   5.073   3.887   1.297  0.2645  0.5967  0.0650
15087TIP3    H166676   5.152   3.903   1.348  0.9713  0.2525 -0.9053
15087TIP3    H266677   5.068   3.960   1.235  0.9267 -0.3949 -1.2070
15088TIP3   OH266678   1.123   3.815   5.416 -0.6179 -0.0025 -0.2089
15088TIP3    H166679   1.041   3.773   5.443 -1.3720  0.8374 -1.1162
15088TIP3    H266680   1.185   3.794   5.486 -1.0112 -2.4222 -0.4937
15089TIP3   OH266681   6.467   5.060  13.144 -0.9926 -0.4793  0.2518
15089TIP3    H166682   6.414   5.133  13.174 -0.9517  0.8595 -2.6141
15089TIP3    H266683   6.557   5.087  13.161 -1.0015 -0.0954 -0.2970
15090TIP3   OH266684   3.890   4.150   3.433  0.0059  0.4269  0.2987
15090TIP3    H166685   3.885   4.244   3.419  2.0648  0.4568 -0.7033
15090TIP3    H266686   3.974   4.137   3.479 -1.0340 -0.7947  1.9990
15091TIP3   OH266687   5.586   1.206  12.272 -0.3207  0.2519 -0.2599
15091TIP3    H166688   5.578   1.127  12.218  1.4548 -0.7128  0.8060
15091TIP3    H266689   5.577   1.175  12.362 -0.6950  1.4456  0.1308
15092TIP3   OH266690   1.248   5.470   5.263  0.4703  0.2965 -0.7389
15092TIP3    H166691   1.340   5.458   5.285 -0.3813 -0.1400  3.5060
15092TIP3    H266692   1.218   5.539   5.322 -2.6176 -2.0708  0.8125
15093TIP3   OH266693   6.695   4.865   5.179 -0.1346  0.7069 -0.3836
15093TIP3    H166694   6.770   4.893   5.127  0.7863 -0.4361  0.2651
15093TIP3    H266695   6.728   4.860   5.268 -0.2148 -2.1913 -0.4086
15094TIP3   OH266696   5.585   3.877   4.541 -0.3901  0.2354 -0.3327
15094TIP3    H166697   5.624   3.962   4.518 -0.3290 -0.7474 -4.7263
15094TIP3    H266698   5.491   3.894   4.542 -0.3663  0.4454 -0.9383
15095TIP3   OH266699   3.238   5.231  14.698 -0.0162  0.2201  0.0410
15095TIP3    H166700   3.322   5.261  14.664 -0.2742  2.0424  0.8710
15095TIP3    H266701   3.259   5.190  14.782  0.0609  0.4948  0.1544
15096TIP3   OH266702   2.384   1.508  13.494  0.2009  0.0060  0.2118
15096TIP3    H166703   2.319   1.571  13.522  0.3844  0.7678 -1.0117
15096TIP3    H266704   2.468   1.550  13.511  0.3442 -0.2756  0.2171
15097TIP3   OH266705   2.196   3.948   5.121  0.0022  0.1448  0.1196
15097TIP3    H166706   2.266   3.883   5.133 -0.4592 -0.7052 -1.5439
15097TIP3    H266707   2.126   3.900   5.078 -1.0971  1.3238  0.5501
15098TIP3   OH266708   3.077   6.038  11.821 -0.0697  0.0780 -0.2533
15098TIP3    H166709   3.172   6.049  11.821  0.3130 -2.2816 -2.5451
15098TIP3    H266710   3.049   6.068  11.735 -1.5049  1.0224  0.4934
15099TIP3   OH266711   0.937   0.884   1.450 -0.5278  0.2727 -0.7645
15099TIP3    H166712   0.883   0.817   1.408 -0.1519 -0.2639 -0.4061
15099TIP3    H266713   0.883   0.919   1.520 -0.5091 -0.0910 -0.5634
15100TIP3   OH266714   6.461   0.354   3.692 -0.4117 -0.1248 -0.3406
15100TIP3    H166715   6.455   0.396   3.778  3.6415  1.2795 -0.5539
15100TIP3    H266716   6.448   0.424   3.629  0.4481 -0.3484 -0.7892
15101TIP3   OH266717   5.777   2.895  13.794  0.0647  0.6749 -0.0199
15101TIP3    H166718   5.746   2.984  13.808 -1.6159  0.0810  0.3457
15101TIP3    H266719   5.767   2.852  13.879 -4.0504 -1.1887 -1.1643
15102TIP3   OH266720   1.298   4.468  10.590 -0.1790  0.3480 -0.5138
15102TIP3    H166721   1.259   4.447  10.505  0.5605 -2.0457 -0.3433
15102TIP3    H266722   1.371   4.526  10.569 -1.2857  1.4990 -1.2698
15103TIP3   OH266723   1.908   5.012  16.889  0.4325 -0.6268  0.4677
15103TIP3    H166724   1.848   5.039  16.819  0.4930  0.7181  0.9107
15103TIP3    H266725   1.988   5.062  16.872  0.8765 -1.2172  0.8014
15104TIP3   OH266726   0.149   6.555   4.834 -0.4609 -0.1492 -0.1126
15104TIP3    H166727   0.167   6.607   4.912  0.1883 -1.1748  0.4348
15104TIP3    H266728   0.060   6.521   4.847 -0.1297 -0.8133  0.4831
15105TIP3   OH266729   6.753   1.938   3.286 -0.3937  0.1995  0.5293
15105TIP3    H166730   6.815   1.931   3.359  0.0733 -0.7328  0.0516
15105TIP3    H266731   6.759   1.854   3.241 -1.3266  0.4438 -0.0759
15106TIP3   OH266732   4.731   3.602  12.164 -0.0445  0.1394 -0.0189
15106TIP3    H166733   4.822   3.583  12.139 -0.2175  1.1016 -1.5263
15106TIP3    H266734   4.684   3.604  12.081 -0.8754  2.4897  0.4335
15107TIP3   OH266735   3.948   5.347  13.954  0.1381 -0.4334  0.2532
15107TIP3    H166736   4.039   5.367  13.974  0.0791 -0.9112  1.0356
15107TIP3    H266737   3.906   5.339  14.039 -0.0589 -2.9401 -0.0058
15108TIP3   OH266738   3.984   2.825   6.443 -0.3753  0.6509 -0.4248
15108TIP3    H166739   4.046   2.874   6.389 -1.3840  2.4901 -0.0094
15108TIP3    H266740   4.035   2.751   6.477  1.9138  2.5923  0.6864
15109TIP3   OH266741   5.946   5.369  11.837 -1.2086 -0.0672  0.8301
15109TIP3    H166742   5.921   5.315  11.913 -2.2790 -2.9029 -1.3485
15109TIP3    H266743   5.872   5.360  11.776 -0.3501  2.0188 -0.6132
15110TIP3   OH266744   4.053   4.662  14.030 -0.0193  0.2578 -0.3316
15110TIP3    H166745   3.990   4.590  14.028  0.8524 -0.4879 -1.4018
15110TIP3    H266746   4.105   4.647  14.109 -0.2765  0.1269 -0.1830
15111TIP3   OH266747   2.915   2.719  16.378 -0.4430  0.4384  0.0189
15111TIP3    H166748   2.889   2.793  16.432 -1.1847  0.0460  0.2139
15111TIP3    H266749   2.866   2.730  16.296  1.7233  1.8008 -1.1921
15112TIP3   OH266750   3.576   0.308   2.192 -0.0611  0.2535  0.9308
15112TIP3    H166751   3.577   0.278   2.283 -0.3254 -1.2796  0.4508
15112TIP3    H266752   3.559   0.402   2.199  3.2817  0.8848  2.6118
15113TIP3   OH266753   3.019   2.114  12.355  0.5671 -0.2751 -0.3663
15113TIP3    H166754   3.074   2.182  12.393  0.1346 -0.4050  0.5068
15113TIP3    H266755   3.069   2.033  12.367  1.4407 -0.0583 -2.1022
15114TIP3   OH266756   1.834   4.834   0.985  0.4622 -0.0665  0.2736
15114TIP3    H166757   1.790   4.817   1.068 -1.1959  1.8986 -0.1120
15114TIP3    H266758   1.921   4.865   1.009  0.1075  0.1808  1.2732
15115TIP3   OH266759   5.440   2.900  11.425 -0.6970 -0.4468 -0.1679
15115TIP3    H166760   5.362   2.846  11.411 -1.8702  1.2134 -0.3590
15115TIP3    H266761   5.432   2.971  11.361  0.6696  0.0923  0.2170
15116TIP3   OH266762   5.678   3.716   1.356  0.2202 -0.0800 -0.4369
15116TIP3    H166763   5.661   3.771   1.279  0.1473 -2.5607 -2.3199
15116TIP3    H266764   5.764   3.677   1.338  2.1854  2.2824  2.7468
15117TIP3   OH266765   5.472   3.311   3.196 -0.2156  0.0503  0.3736
15117TIP3    H166766   5.404   3.342   3.136 -2.0762 -0.0030  2.3533
15117TIP3    H266767   5.538   3.380   3.194 -1.6510  1.5054  0.4683
15118TIP3   OH266768   1.452   3.155  15.021 -0.5014  0.2061 -0.9153
15118TIP3    H166769   1.507   3.118  15.091  0.3837 -1.1566 -2.2744
15118TIP3    H266770   1.494   3.238  14.999 -1.2219  1.0237  0.6476
15119TIP3   OH266771   4.385   4.962   4.494 -0.0388  0.2231 -0.4593
15119TIP3    H166772   4.342   4.879   4.472  2.4903 -1.4122  0.2635
15119TIP3    H266773   4.443   4.940   4.566  0.3135  2.8145  0.1528
15120TIP3   OH266774   4.947   5.463   2.491 -0.4760  0.1091  0.1808
15120TIP3    H166775   4.938   5.381   2.443 -0.4305  0.1986  0.0184
15120TIP3    H266776   4.858   5.497   2.498 -0.4306  0.3315 -0.2585
15121TIP3   OH266777   0.501   4.658   1.800  0.3028 -0.4712 -0.1787
15121TIP3    H166778   0.472   4.570   1.774 -0.3443 -0.2184 -0.3178
15121TIP3    H266779   0.430   4.716   1.773  0.0712 -0.0708  1.2072
15122TIP3   OH266780   3.634   5.265   2.457  0.1899 -1.0327  0.1175
15122TIP3    H166781   3.556   5.313   2.429  0.2864 -1.0619 -0.2174
15122TIP3    H266782   3.609   5.223   2.539 -0.2460 -1.2815 -0.1379
15123TIP3   OH266783   5.091   1.966   2.483  0.0020  0.1620  0.2184
15123TIP3    H166784   5.002   1.936   2.465  0.5200 -1.2361 -0.1475
15123TIP3    H266785   5.146   1.917   2.422  0.9973  1.2512  0.2041
15124TIP3   OH266786   0.796   1.100   0.478 -0.1156  0.1651 -0.5714
15124TIP3    H166787   0.776   1.043   0.552  0.1449  0.1239 -0.5294
15124TIP3    H266788   0.748   1.181   0.495  0.0573  0.2077 -0.2848
15125TIP3   OH266789   5.647   2.227   3.109 -0.2258 -0.3530 -0.5544
15125TIP3    H166790   5.574   2.182   3.151 -0.1527 -0.4102 -0.4888
15125TIP3    H266791   5.705   2.251   3.181 -0.2847 -0.1165 -0.5833
15126TIP3   OH266792   4.606   1.870   2.150  0.4011  0.2875 -0.1890
15126TIP3    H166793   4.632   1.801   2.089 -0.6498 -0.5935  0.3275
15126TIP3    H266794   4.513   1.885   2.131  0.4301  1.0352  0.2241
15127TIP3   OH266795   4.637   4.307  14.584  1.3975  0.1518 -0.4456
15127TIP3    H166796   4.609   4.305  14.676  2.3727  0.3832 -0.1269
15127TIP3    H266797   4.720   4.354  14.586 -0.2597  3.4239 -1.9392
15128TIP3   OH266798   0.368   3.323   1.523 -0.4702 -0.0658 -0.5718
15128TIP3    H166799   0.391   3.343   1.432 -0.6499 -1.7764 -1.0412
15128TIP3    H266800   0.316   3.242   1.517 -1.6962  0.5665  0.9458
15129TIP3   OH266801   3.502   4.979  15.445  0.1861  0.4518 -0.0737
15129TIP3    H166802   3.580   5.036  15.445  0.3263  0.2828 -1.3893
15129TIP3    H266803   3.531   4.899  15.490  0.5583  0.6725  0.0836
15130TIP3   OH266804   6.445   3.901  15.024 -0.1405  0.5676 -0.2320
15130TIP3    H166805   6.463   3.974  15.082  1.2843 -0.0461  0.1290
15130TIP3    H266806   6.380   3.935  14.962 -0.3859  1.7509  0.6475
15131TIP3   OH266807   5.893   2.050  17.001 -0.0508  0.4409 -0.1818
15131TIP3    H166808   5.877   2.139  16.971 -0.8486  0.2179 -0.4400
15131TIP3    H266809   5.900   1.998  16.920  2.9817  0.6437 -0.1645
15132TIP3   OH266810   0.048   3.722   5.863  0.0636  0.3886 -0.4090
15132TIP3    H166811  -0.039   3.743   5.830  0.2983  0.6346 -0.8882
15132TIP3    H266812   0.068   3.792   5.925  0.5581  1.2463 -1.4847
15133TIP3   OH266813   1.116   4.185  17.154  0.7283  0.1070 -0.2510
15133TIP3    H166814   1.049   4.242  17.191  0.7018  1.3574 -2.0941
15133TIP3    H266815   1.068   4.108  17.124  0.3564  0.2979 -0.1499
15134TIP3   OH266816   6.184   2.997   3.000 -0.1374 -0.0354  0.1896
15134TIP3    H166817   6.213   3.023   2.912  1.3601 -2.3991 -0.1424
15134TIP3    H266818   6.089   2.998   2.996 -0.0913  0.9579 -1.1163
15135TIP3   OH266819   6.569   6.419  12.367  0.3079  0.2746  0.2934
15135TIP3    H166820   6.614   6.430  12.451  0.0053  1.3356  0.3245
15135TIP3    H266821   6.493   6.477  12.373  1.3904  1.9574 -1.5098
15136TIP3   OH266822   1.921   2.480   4.604 -0.4717  0.1945  0.4566
15136TIP3    H166823   1.973   2.400   4.613 -0.8282 -0.3333 -1.5803
15136TIP3    H266824   1.859   2.477   4.677  0.8817 -0.2859  1.6330
15137TIP3   OH266825   1.681   5.494  17.108 -0.2670 -0.0935 -0.1409
15137TIP3    H166826   1.636   5.486  17.023  0.7509  2.0691 -0.9733
15137TIP3    H266827   1.756   5.434  17.101  0.0570  0.3872 -0.9792
15138TIP3   OH266828   3.115   0.987  10.760 -0.1566  0.3787  0.0242
15138TIP3    H166829   3.154   1.025  10.681  2.3895 -2.0612 -0.0525
15138TIP3    H266830   3.022   0.978  10.739  0.4899 -0.5449 -2.9169
15139TIP3   OH266831   6.586   6.456  14.854  0.4032  0.1964 -0.0522
15139TIP3    H166832   6.566   6.459  14.760  2.9226 -1.7512 -0.7564
15139TIP3    H266833   6.528   6.388  14.888  0.8017 -0.4436 -0.6172
15140TIP3   OH266834   3.471   3.867  15.465 -0.6353 -0.3507  0.5674
15140TIP3    H166835   3.551   3.818  15.484 -2.1916 -2.8036  1.1981
15140TIP3    H266836   3.414   3.850  15.540 -1.4534  2.1052  0.5794
15141TIP3   OH266837   4.438   3.676   1.097  0.5567 -0.2734  0.0798
15141TIP3    H166838   4.521   3.655   1.054  0.0439  0.0455 -1.0853
15141TIP3    H266839   4.459   3.672   1.191  1.1968 -3.1409 -0.0773
15142TIP3   OH266840   1.631   3.566   0.121 -0.0078 -0.0594  0.3183
15142TIP3    H166841   1.666   3.654   0.133 -0.2963  0.3087 -1.3308
15142TIP3    H266842   1.577   3.572   0.042  1.4431 -2.1228 -0.9305
15143TIP3   OH266843   4.113   3.817  12.996  0.6328  0.4556 -0.5664
15143TIP3    H166844   4.138   3.905  12.967  1.6835 -0.1960 -1.7690
15143TIP3    H266845   4.126   3.762  12.919 -0.6879 -0.6506 -0.0394
15144TIP3   OH266846   3.794   5.635   1.991 -0.2497  0.3946 -0.7539
15144TIP3    H166847   3.753   5.553   2.019 -0.6520  0.2130 -1.8412
15144TIP3    H266848   3.876   5.638   2.040 -0.3070 -0.5723 -0.5713
15145TIP3   OH266849   1.384   1.824   0.871 -0.3356 -0.3022  0.5662
15145TIP3    H166850   1.347   1.788   0.791  0.9753  1.7879 -1.0914
15145TIP3    H266851   1.457   1.766   0.892  0.1562 -0.1162 -0.5643
15146TIP3   OH266852   2.821   4.546  10.881 -0.1941  0.0424 -0.0489
15146TIP3    H166853   2.915   4.559  10.893 -0.1300 -1.5362  1.7563
15146TIP3    H266854   2.812   4.451  10.868 -1.3580  0.4299 -2.7601
15147TIP3   OH266855   4.366   5.971  11.324 -0.0483  0.3332  0.0083
15147TIP3    H166856   4.357   5.882  11.359 -1.1094  0.9384  1.4022
15147TIP3    H266857   4.370   5.959  11.229  0.1932 -1.2251  0.1821
15148TIP3   OH266858   4.763   4.612  13.067  0.5523 -0.3389  0.1732
15148TIP3    H166859   4.820   4.688  13.058 -0.6797  0.6257  0.3287
15148TIP3    H266860   4.815   4.548  13.116  1.8848  0.0877 -0.6406
15149TIP3   OH266861   0.039   0.423   0.742 -0.8218 -0.1967 -0.4219
15149TIP3    H166862   0.063   0.339   0.704 -1.5589  0.4229 -2.3787
15149TIP3    H266863  -0.052   0.436   0.717 -0.6627  1.2809 -0.3539
15150TIP3   OH266864   1.050   2.675  16.718 -0.0558 -0.7769 -0.2216
15150TIP3    H166865   1.041   2.679  16.813 -2.5376 -2.4517 -0.2910
15150TIP3    H266866   1.063   2.766  16.691 -1.1329 -0.0253  1.6059
15151TIP3   OH266867   3.954   2.692  11.608  0.5179 -0.5130  0.1887
15151TIP3    H166868   3.887   2.668  11.672  1.1918 -2.0967  0.3622
15151TIP3    H266869   3.907   2.737  11.539 -0.7208 -1.4533  0.3788
15152TIP3   OH266870   3.939   5.016   1.350  0.2660  0.3065  0.3234
15152TIP3    H166871   3.976   5.050   1.268 -0.0389 -0.9300 -0.3381
15152TIP3    H266872   3.967   5.080   1.416  0.4890  1.3452 -0.7325
15153TIP3   OH266873   6.155   6.408  10.780 -0.5919 -0.1788  0.5132
15153TIP3    H166874   6.103   6.344  10.732  1.5018 -2.5565  1.2121
15153TIP3    H266875   6.165   6.371  10.867  1.1955  0.7667  0.7664
15154TIP3   OH266876   0.195   3.886   5.005  0.3268 -0.2875  0.2229
15154TIP3    H166877   0.200   3.977   4.975  1.4920 -0.4621 -0.1830
15154TIP3    H266878   0.234   3.887   5.093 -1.7756 -0.0234  1.2068
15155TIP3   OH266879   5.642   6.330  14.104 -0.0844 -0.1092  0.1087
15155TIP3    H166880   5.664   6.271  14.032 -0.4081 -1.0933  0.8013
15155TIP3    H266881   5.727   6.359  14.139  0.0957  1.1474 -1.2448
15156TIP3   OH266882   2.305   4.761  14.860 -0.1190 -0.7888  0.2038
15156TIP3    H166883   2.291   4.826  14.929 -0.2104 -0.1397 -0.4246
15156TIP3    H266884   2.217   4.734  14.835 -0.0948 -0.7881  0.1179
15157TIP3   OH266885   4.321   0.570  11.797 -0.0006 -0.2479 -0.5226
15157TIP3    H166886   4.393   0.601  11.742  0.4641 -0.4221 -0.0193
15157TIP3    H266887   4.316   0.476  11.780  0.3058 -0.3425 -0.0736
15158TIP3   OH266888   4.394   3.633  13.834 -0.4987  0.0481 -0.2182
15158TIP3    H166889   4.452   3.707  13.850 -1.9176  1.2223 -0.2798
15158TIP3    H266890   4.423   3.566  13.896  2.0768 -0.1309 -1.4942
15159TIP3   OH266891   0.122   2.121   4.060 -0.0279  0.8017  0.4753
15159TIP3    H166892   0.100   2.060   3.990 -0.3559 -1.1532  2.1974
15159TIP3    H266893   0.038   2.152   4.092  0.0213 -0.1025  1.5040
15160TIP3   OH266894   4.114   6.665  14.103 -0.5373 -0.0929  0.3504
15160TIP3    H166895   4.114   6.643  14.010  2.4420  1.0300 -0.0243
15160TIP3    H266896   4.021   6.669  14.127 -1.3824 -0.8567 -2.4249
15161TIP3   OH266897   6.421   2.426  11.463  0.0704 -0.0116 -0.6189
15161TIP3    H166898   6.340   2.434  11.412  1.0425  0.3767 -2.1751
15161TIP3    H266899   6.460   2.513  11.459  1.7039 -0.7439 -1.9467
15162TIP3   OH266900   4.629   6.014   4.658  0.1253 -0.7514 -0.2036
15162TIP3    H166901   4.704   5.998   4.601  0.3565 -2.7826  0.5859
15162TIP3    H266902   4.568   6.065   4.604  1.1312 -0.9832 -1.6047
15163TIP3   OH266903   1.326   3.106   0.628 -0.2770  0.4096  0.1805
15163TIP3    H166904   1.315   3.011   0.627  0.1122  0.2811  2.5919
15163TIP3    H266905   1.391   3.123   0.560 -0.8598 -0.9651 -0.7552
15164TIP3   OH266906   1.330   5.222   1.045 -0.3300  0.6686  0.4391
15164TIP3    H166907   1.326   5.318   1.049  1.6986  0.9317 -1.8494
15164TIP3    H266908   1.238   5.195   1.038 -0.9141  2.4605  0.6502
15165TIP3   OH266909   4.871   2.017   4.513  0.5111 -0.0883 -0.3269
15165TIP3    H166910   4.857   1.931   4.552  0.2883  0.1796  0.1887
15165TIP3    H266911   4.824   2.013   4.430  3.3599 -1.6910 -2.0529
15166TIP3   OH266912   4.367   6.553  11.826 -0.3504 -0.0907 -0.2116
15166TIP3    H166913   4.314   6.630  11.804 -1.1282 -0.2000  1.1564
15166TIP3    H266914   4.428   6.584  11.892  0.6418 -0.2173 -1.0417
15167TIP3   OH266915   4.495   0.907  16.263 -0.5795 -0.4945  0.1566
15167TIP3    H166916   4.481   0.932  16.354 -3.2909 -1.1131  0.0061
15167TIP3    H266917   4.517   0.989  16.218  2.0796 -0.3765  1.4930
15168TIP3   OH266918   3.809   4.191   1.879  0.8702 -0.7538 -0.4974
15168TIP3    H166919   3.841   4.101   1.867  1.2526 -0.4328 -2.1980
15168TIP3    H266920   3.722   4.190   1.839  0.8520 -0.3798 -0.4651
15169TIP3   OH266921   1.697   0.908   3.117 -0.0577  0.5163  0.0610
15169TIP3    H166922   1.733   0.996   3.105  3.1685  0.2430  4.7452
15169TIP3    H266923   1.646   0.914   3.198  2.6722 -2.2828  2.2141
15170TIP3   OH266924   3.347   0.046  16.927 -0.6496 -0.1760  0.4154
15170TIP3    H166925   3.345   0.032  16.832 -0.9148  0.9645  0.2357
15170TIP3    H266926   3.372   0.138  16.937  0.6705 -0.6182  1.4969
15171TIP3   OH266927   5.148   0.701  11.217 -0.4025  0.2975 -0.3755
15171TIP3    H166928   5.165   0.628  11.158  1.4578 -1.1059  1.7276
15171TIP3    H266929   5.183   0.778  11.173  1.0175 -0.7202 -1.0687
15172TIP3   OH266930   6.374   3.332   5.997  0.0689 -0.1211  0.3295
15172TIP3    H166931   6.319   3.351   6.073  1.4588 -0.4329  1.4632
15172TIP3    H266932   6.462   3.325   6.033  0.6300 -1.2864 -1.1626
15173TIP3   OH266933   5.492   3.884  12.100 -0.4172  0.2174 -0.2789
15173TIP3    H166934   5.580   3.872  12.136 -0.6404 -1.3177 -0.1635
15173TIP3    H266935   5.500   3.858  12.008 -0.3349  2.0167 -0.8259
15174TIP3   OH266936   5.513   6.379   4.782  0.0116 -0.7262 -0.2345
15174TIP3    H166937   5.445   6.333   4.733 -1.1996 -0.1563  0.8590
15174TIP3    H266938   5.539   6.451   4.725  0.5995 -1.6598 -1.1771
15175TIP3   OH266939   1.617   3.723   1.739 -0.3132 -0.1395  0.0870
15175TIP3    H166940   1.600   3.691   1.828  0.5630 -2.4012 -0.4842
15175TIP3    H266941   1.677   3.659   1.701  1.2451  2.0339 -1.3846
15176TIP3   OH266942   3.011   4.638  15.856  0.5433  0.7923 -0.0695
15176TIP3    H166943   2.919   4.628  15.833  0.9054  0.3558 -1.4659
15176TIP3    H266944   3.040   4.549  15.879  0.5091  1.0105  0.8565
15177TIP3   OH266945   4.106   0.714  10.882 -0.1710  0.6641  0.5719
15177TIP3    H166946   4.097   0.802  10.920 -0.5280  1.3223 -0.9508
15177TIP3    H266947   4.021   0.697  10.842  0.1132 -0.1074  0.2912
15178TIP3   OH266948   1.263   4.561  15.866 -1.0952  0.1906  0.1141
15178TIP3    H166949   1.171   4.555  15.842 -1.6687 -0.0434  2.1455
15178TIP3    H266950   1.263   4.566  15.962  1.0839 -2.0082  0.3489
15179TIP3   OH266951   1.655   4.593   0.236 -0.5556 -0.1186 -0.7690
15179TIP3    H166952   1.706   4.640   0.169 -0.1570 -0.2456 -0.5579
15179TIP3    H266953   1.565   4.600   0.206 -0.4730  0.5615 -0.8762
15180TIP3   OH266954   4.832   4.115  11.208  0.2776 -0.3296  0.4810
15180TIP3    H166955   4.786   4.032  11.200 -0.1275 -0.0219 -0.6709
15180TIP3    H266956   4.763   4.180  11.223  0.5315 -0.1270  0.7855
15181TIP3   OH266957   1.516   3.836   0.767  0.0001  0.0426  0.4631
15181TIP3    H166958   1.476   3.752   0.789 -0.0854 -0.0006  0.1513
15181TIP3    H266959   1.492   3.894   0.839 -0.0882 -0.1516  0.5913
15182TIP3   OH266960   5.419   2.795   1.952 -0.1798  0.2701 -0.0708
15182TIP3    H166961   5.377   2.881   1.946 -1.3160 -0.3216 -0.9407
15182TIP3    H266962   5.488   2.798   1.886 -1.1184  0.0423 -1.0829
15183TIP3   OH266963   4.131   0.720   0.072  0.2074  1.0129 -0.1751
15183TIP3    H166964   4.078   0.659   0.123  0.1386  0.4750 -0.8744
15183TIP3    H266965   4.190   0.759   0.136  2.2081 -1.8279 -0.0561
15184TIP3   OH266966   4.944   4.065   5.244 -0.6988  0.1013  0.3755
15184TIP3    H166967   4.957   3.985   5.295  0.9783  1.0455  1.5534
15184TIP3    H266968   4.893   4.122   5.301 -0.7662  0.3362  0.0827
15185TIP3   OH266969   0.894   4.241  11.342 -0.4342  0.6123 -0.4789
15185TIP3    H166970   0.917   4.289  11.263 -1.0637  1.9605  0.1182
15185TIP3    H266971   0.799   4.254  11.352 -0.5612 -0.4870 -0.1157
15186TIP3   OH266972   1.664   0.186   1.187  0.3402 -0.0557 -0.3165
15186TIP3    H166973   1.657   0.123   1.115  1.2304 -0.0357 -0.4356
15186TIP3    H266974   1.649   0.134   1.266  1.0824 -0.4352 -0.4128
15187TIP3   OH266975   0.406   3.120   5.415 -0.2284  0.0658 -0.7518
15187TIP3    H166976   0.484   3.101   5.363  0.0342 -1.9812  0.2670
15187TIP3    H266977   0.405   3.215   5.424  0.7532  0.3337 -2.8592
15188TIP3   OH266978   1.165   6.108  15.203  0.1499 -0.1134  0.1536
15188TIP3    H166979   1.210   6.160  15.270  1.0763 -0.5737 -0.1024
15188TIP3    H266980   1.105   6.053  15.253 -0.9651  1.2731  0.4271
15189TIP3   OH266981   3.916   2.864  13.949  0.0531 -0.1639  0.1348
15189TIP3    H166982   3.966   2.905  13.878  2.5685  0.0641  1.8844
15189TIP3    H266983   3.934   2.920  14.025 -1.8370 -0.8816  1.1552
15190TIP3   OH266984   1.503   1.138   0.860  0.5810  0.1755 -0.0347
15190TIP3    H166985   1.457   1.057   0.841  0.4533 -0.0034  1.0182
15190TIP3    H266986   1.466   1.201   0.798 -0.3007 -0.2261  0.0699
15191TIP3   OH266987   0.848   6.392  13.545 -0.3509  0.1239  0.0760
15191TIP3    H166988   0.911   6.320  13.544 -0.6466 -0.1678  1.0003
15191TIP3    H266989   0.899   6.469  13.522 -0.0256 -0.3649 -0.9319
15192TIP3   OH266990   2.076   5.096   0.919 -0.2668  0.9214  0.3900
15192TIP3    H166991   2.070   5.184   0.955 -2.9479  0.3024  1.6811
15192TIP3    H266992   2.048   5.106   0.828  0.0742  1.4881  0.3409
15193TIP3   OH266993   4.453   1.554   1.810  0.1042  0.4299  0.2255
15193TIP3    H166994   4.383   1.611   1.840  1.2259  0.3921  3.1823
15193TIP3    H266995   4.510   1.611   1.758 -0.1313  1.3761  0.9858
15194TIP3   OH266996   2.903   3.171   0.217 -0.3702  0.3448  0.5042
15194TIP3    H166997   2.957   3.235   0.264 -1.3495  0.5423  1.3943
15194TIP3    H266998   2.942   3.167   0.130  0.1289  1.6478  0.6391
15195TIP3   OH266999   3.956   0.190   3.265  0.0523  0.1445 -0.3947
15195TIP3    H167000   4.022   0.136   3.221 -1.8257 -1.2866 -1.5873
15195TIP3    H267001   4.007   0.248   3.322  2.3087 -1.0744 -1.0518
15196TIP3   OH267002   1.651   0.670   1.872 -0.1842 -0.6560  0.0155
15196TIP3    H167003   1.594   0.616   1.927  0.9251 -1.6841  0.2093
15196TIP3    H267004   1.631   0.760   1.897 -2.1166 -0.9371 -0.3361
15197TIP3   OH267005   4.720   3.525   5.730  0.0132 -0.0423 -0.0177
15197TIP3    H167006   4.648   3.565   5.779 -1.0146 -0.7365 -0.9160
15197TIP3    H267007   4.760   3.597   5.682 -1.6945  0.0135 -1.4650
15198TIP3   OH267008   1.672   0.521   3.471 -0.2270  0.0063  0.1293
15198TIP3    H167009   1.748   0.561   3.514 -0.0587 -0.7477  0.5412
15198TIP3    H267010   1.627   0.474   3.541 -2.0117  1.7711  0.2750
15199TIP3   OH267011   0.050   5.069  15.318  0.0278  0.0110  0.2474
15199TIP3    H167012   0.120   5.110  15.267 -0.7347 -0.0586 -0.8929
15199TIP3    H267013   0.005   5.142  15.361  0.1152  0.1532  0.0979
15200TIP3   OH267014   3.770   1.186   6.105  0.2806 -0.3874  0.2554
15200TIP3    H167015   3.777   1.091   6.120 -0.3991 -0.2680  1.4016
15200TIP3    H267016   3.684   1.197   6.064 -0.9505  0.0076  2.8067
15201TIP3   OH267017   2.984   0.936   6.068 -0.0029  0.4255 -0.2356
15201TIP3    H167018   3.055   0.908   6.009 -0.0349 -0.9625  0.3416
15201TIP3    H267019   3.026   0.942   6.154 -0.5543 -0.3847  0.1073
15202TIP3   OH267020   6.008   1.870   4.090 -0.1757  0.5240  0.4024
15202TIP3    H167021   6.097   1.890   4.061  0.4347 -0.8787  1.2295
15202TIP3    H267022   6.010   1.885   4.185 -0.5077 -0.5156  0.5870
15203TIP3   OH267023   3.826   3.666  16.563 -0.1942 -0.2279 -0.1793
15203TIP3    H167024   3.851   3.574  16.557  1.8759  0.2874 -0.2488
15203TIP3    H267025   3.770   3.681  16.486  0.5807 -1.1183 -0.9479
15204TIP3   OH267026   1.122   0.321   2.979  0.4263 -0.2956  0.0197
15204TIP3    H167027   1.118   0.298   2.886 -0.3710  1.8216 -0.5101
15204TIP3    H267028   1.100   0.414   2.982  2.7837  0.2793  2.1045
15205TIP3   OH267029   1.763   0.262  16.249  0.2939  0.6506 -0.8325
15205TIP3    H167030   1.806   0.196  16.303 -2.0834 -0.0602  0.3492
15205TIP3    H267031   1.750   0.337  16.308  2.0307  1.8542 -1.8707
15206TIP3   OH267032   0.992   2.078   2.235  0.4743 -0.0281 -0.1412
15206TIP3    H167033   1.056   2.039   2.294 -0.7200  0.7811  1.7849
15206TIP3    H267034   1.025   2.167   2.220 -0.6711  0.7686  1.7424
15207TIP3   OH267035   2.916   3.572  13.867 -0.4475 -0.3314 -0.4183
15207TIP3    H167036   2.836   3.524  13.847 -1.5541  0.0688  2.6193
15207TIP3    H267037   2.973   3.509  13.910 -1.0466  0.4286  1.6132
15208TIP3   OH267038   1.059   4.472   0.080 -0.1810 -0.2723 -0.3509
15208TIP3    H167039   1.137   4.441   0.126  0.2119  1.4213  0.1881
15208TIP3    H267040   1.003   4.508   0.148 -1.1055 -0.7623 -0.8284
15209TIP3   OH267041   0.059   3.207   2.878  0.1443 -0.5607 -0.4363
15209TIP3    H167042   0.133   3.145   2.875  0.6736  0.0060  0.4775
15209TIP3    H267043   0.098   3.288   2.910 -0.8525 -0.2134 -0.0837
15210TIP3   OH267044   2.595   2.407   2.321 -0.0416  0.0615  0.2342
15210TIP3    H167045   2.533   2.414   2.394 -1.5792  1.6460 -1.1543
15210TIP3    H267046   2.676   2.446   2.355  0.0453 -1.4383  1.8583
15211TIP3   OH267047   0.332   2.229   0.401 -0.0966  0.4340  0.1407
15211TIP3    H167048   0.334   2.139   0.433  0.4774 -1.0822 -3.5666
15211TIP3    H267049   0.243   2.259   0.418 -0.2471 -0.7354  1.6045
15212TIP3   OH267050   4.124   2.080   0.707  0.7426 -0.2424  0.1019
15212TIP3    H167051   4.107   2.126   0.625 -2.8011 -0.3475  0.6176
15212TIP3    H267052   4.204   2.120   0.741  0.8179  1.6731 -2.0576
15213TIP3   OH267053   4.323   6.304  16.945 -0.1445 -0.6522 -0.0177
15213TIP3    H167054   4.280   6.376  16.990  0.0324  0.1044 -1.0144
15213TIP3    H267055   4.267   6.286  16.870  0.9148 -0.0553 -0.9966
15214TIP3   OH267056   0.707   4.932  17.107 -0.3393 -0.2132  0.8476
15214TIP3    H167057   0.688   4.888  17.190 -2.7340 -1.0227 -0.0121
15214TIP3    H267058   0.633   4.908  17.051  1.8126 -0.7929 -1.9682
15215TIP3   OH267059   4.175   0.232  12.083  0.0101 -0.4941 -0.4300
15215TIP3    H167060   4.138   0.306  12.131  0.0491 -0.4411 -0.4830
15215TIP3    H267061   4.098   0.182  12.054 -0.0353 -0.1205 -0.9643
15216TIP3   OH267062   1.742   2.785   6.448 -0.2470 -0.1041 -0.3509
15216TIP3    H167063   1.705   2.756   6.530  2.1663 -2.0554  0.1779
15216TIP3    H267064   1.763   2.877   6.462 -0.2515 -0.3051  1.0633
15217TIP3   OH267065   6.635   0.361  15.509 -0.0274 -0.3692  0.6807
15217TIP3    H167066   6.601   0.372  15.597 -1.1699 -1.6771  0.4296
15217TIP3    H267067   6.627   0.267  15.491  1.3182 -0.3286 -0.3739
15218TIP3   OH267068   3.531   0.155   3.814  0.1472 -0.5077  0.2128
15218TIP3    H167069   3.493   0.067   3.814  1.2142 -0.9913 -0.6543
15218TIP3    H267070   3.625   0.140   3.806  0.3197  0.7204 -0.2403
15219TIP3   OH267071   3.823   5.343  15.833 -0.4903 -0.2608 -0.1992
15219TIP3    H167072   3.916   5.323  15.831 -0.8143 -2.2043  1.2025
15219TIP3    H267073   3.819   5.434  15.863  0.9492  0.0956 -1.0004
15220TIP3   OH267074   2.000   6.552   2.656  0.1709 -0.5510 -0.4294
15220TIP3    H167075   2.017   6.572   2.748  1.2887 -2.8045 -0.0805
15220TIP3    H267076   2.023   6.633   2.610 -2.4024  1.3763  1.3470
15221TIP3   OH267077   1.081   0.345  13.536 -0.6925 -0.3058  0.2652
15221TIP3    H167078   1.143   0.368  13.467  1.0512 -2.5791  0.9462
15221TIP3    H267079   1.095   0.251  13.551 -1.6913 -0.1158  3.0251
15222TIP3   OH267080   4.785   2.220  15.270  0.6851  0.5100  0.1106
15222TIP3    H167081   4.753   2.146  15.218 -1.2439  0.4535  1.2704
15222TIP3    H267082   4.751   2.297  15.224 -1.7066  0.4364  1.5830
15223TIP3   OH267083   4.019   1.126  15.583  0.1847 -0.3071  0.0787
15223TIP3    H167084   3.991   1.035  15.588  1.1445 -0.5747  3.0733
15223TIP3    H267085   4.104   1.123  15.540 -0.8091 -0.4592 -1.9789
15224TIP3   OH267086   4.358   2.833  12.823  0.5837 -0.0692  0.1176
15224TIP3    H167087   4.394   2.871  12.903  0.7577  1.9122 -0.8401
15224TIP3    H267088   4.408   2.752  12.809  0.7206 -0.3137  1.8307
15225TIP3   OH267089   4.201   2.183  15.678 -0.0582  0.5471  0.2696
15225TIP3    H167090   4.260   2.253  15.652 -0.1568  0.5809  0.1376
15225TIP3    H267091   4.194   2.127  15.600  2.5540 -1.3983  1.2810
15226TIP3   OH267092   0.303   0.005   3.533  0.0970 -0.3864  0.4287
15226TIP3    H167093   0.318  -0.088   3.515  0.2704 -0.5849  1.5692
15226TIP3    H267094   0.312   0.013   3.628 -1.4856  0.5068  0.5403
15227TIP3   OH267095   3.039   4.616  16.831 -0.1695  0.0620 -0.3617
15227TIP3    H167096   3.019   4.573  16.747 -1.8745 -1.3805  0.7110
15227TIP3    H267097   3.132   4.639  16.825  1.1981 -4.6606 -0.7136
15228TIP3   OH267098   3.725   3.186   0.540  0.5209  0.2099 -0.0862
15228TIP3    H167099   3.817   3.194   0.562  0.4615 -1.8415  1.1126
15228TIP3    H267100   3.695   3.108   0.587 -1.5730  0.2272 -1.2596
15229TIP3   OH267101   5.744   4.767  12.273 -0.0374 -0.1564 -0.6563
15229TIP3    H167102   5.833   4.780  12.305 -0.5810 -0.3791  1.0358
15229TIP3    H267103   5.756   4.731  12.185  1.5084  1.8383 -1.3466
15230TIP3   OH267104   5.677   6.501   2.313  0.1934 -0.3129 -0.3456
15230TIP3    H167105   5.588   6.524   2.337 -0.3705 -0.9567 -1.7355
15230TIP3    H267106   5.724   6.585   2.316 -0.3400 -0.0350  0.7816
15231TIP3   OH267107   5.562   2.011  11.827  0.2322 -0.0027 -1.5381
15231TIP3    H167108   5.564   2.019  11.732  0.2359  1.1180 -1.4576
15231TIP3    H267109   5.649   2.041  11.856 -0.5740  2.0321 -1.0532
15232TIP3   OH267110   6.270   0.126   2.652  0.1934 -0.4058  0.3936
15232TIP3    H167111   6.297   0.156   2.566  4.3434  0.4963  1.7896
15232TIP3    H267112   6.237   0.204   2.696 -3.5654 -1.1659 -0.6989
15233TIP3   OH267113   1.958   0.655  17.305  0.1043 -0.2726 -0.5091
15233TIP3    H167114   1.934   0.664  17.397 -0.0903 -0.6721 -0.5194
15233TIP3    H267115   2.053   0.639  17.306  0.1625  0.0830 -0.3997
15234TIP3   OH267116   2.994   2.832  12.806  0.1047  0.4303 -0.0118
15234TIP3    H167117   3.022   2.742  12.822  0.7131  0.0526 -2.7083
15234TIP3    H267118   2.900   2.832  12.827  0.5555 -0.1610  2.2739
15235TIP3   OH267119   6.592   1.106  14.306 -0.2539 -0.0432 -0.0753
15235TIP3    H167120   6.582   1.014  14.281 -2.0851  0.3678 -0.9831
15235TIP3    H267121   6.677   1.131  14.269  0.2940 -1.3759  0.2406
15236TIP3   OH267122   3.942   0.972  14.410 -0.4467  0.6400  0.0107
15236TIP3    H167123   3.918   0.931  14.494  0.3494  0.6570  0.2554
15236TIP3    H267124   3.912   0.910  14.344 -2.1547  1.1737  0.2449
15237TIP3   OH267125   5.629   3.710   2.496  0.3699  0.3567 -0.7778
15237TIP3    H167126   5.595   3.749   2.416 -1.3966 -0.8362 -0.6750
15237TIP3    H267127   5.617   3.616   2.483  0.3730  0.1262  0.7554
15238TIP3   OH267128   2.129   6.218   0.337  0.1725 -0.2994 -0.2370
15238TIP3    H167129   2.099   6.300   0.377  0.1914 -0.8443  0.9432
15238TIP3    H267130   2.199   6.244   0.278  1.0509  0.4209  1.0715
15239TIP3   OH267131   5.050   3.015  15.379  0.7530  0.0519  0.8633
15239TIP3    H167132   5.051   3.109  15.362 -0.5232 -0.0083  0.3679
15239TIP3    H267133   5.142   2.992  15.389  1.1472  1.1809  0.0370
15240TIP3   OH267134   3.139   6.074   4.518 -0.2077  0.4608  0.5311
15240TIP3    H167135   3.112   6.082   4.609 -0.4516  1.7944  0.3725
15240TIP3    H267136   3.235   6.071   4.522 -0.1964  0.9907  0.8185
15241TIP3   OH267137   1.638   6.605   2.733  0.1793  0.3546  0.2872
15241TIP3    H167138   1.580   6.533   2.709  1.2137 -0.1413 -0.8237
15241TIP3    H267139   1.683   6.627   2.651  1.1116  1.1335  0.9926
15242TIP3   OH267140   1.179   3.372   0.497  0.7181  0.5692  0.3482
15242TIP3    H167141   1.228   3.290   0.499  0.4262  0.3754 -0.1758
15242TIP3    H267142   1.181   3.404   0.587  0.9439  0.0529  0.5291
15243TIP3   OH267143   5.943   3.317   1.319  0.4517 -0.3506  0.4103
15243TIP3    H167144   5.991   3.398   1.304  0.1879 -0.2835 -0.0896
15243TIP3    H267145   5.855   3.346   1.344  0.8953 -0.4469  2.2769
15244TIP3   OH267146   4.640   4.452  15.891  0.0908 -0.2388 -0.0536
15244TIP3    H167147   4.685   4.536  15.885  0.1587 -0.2985 -0.4295
15244TIP3    H267148   4.550   4.471  15.868  0.1027 -0.2650 -0.1224
15245TIP3   OH267149   2.065   5.570   1.252  0.3581  0.0863  0.2101
15245TIP3    H167150   2.061   5.515   1.331  1.7243  0.7822  0.7885
15245TIP3    H267151   2.084   5.658   1.285 -0.6662  0.7064 -0.7928
15246TIP3   OH267152   2.354   3.028   3.604  0.2361  0.0097 -0.3484
15246TIP3    H167153   2.420   3.046   3.671 -0.2263  0.7884 -0.0802
15246TIP3    H267154   2.296   3.105   3.607 -0.2452 -0.3140 -1.0930
15247TIP3   OH267155   0.380   4.618   4.037  0.1449  0.1278  0.2137
15247TIP3    H167156   0.366   4.644   4.128  2.2227  0.3982  0.5220
15247TIP3    H267157   0.442   4.545   4.043 -1.6610 -1.5936 -0.8906
15248TIP3   OH267158   5.316   4.753   5.476  0.2384  0.3625 -0.6944
15248TIP3    H167159   5.270   4.669   5.482  1.1860 -0.0517  1.6317
15248TIP3    H267160   5.365   4.747   5.394  0.2559 -1.3563 -0.6065
15249TIP3   OH267161   5.844   6.716   2.328  0.1352 -0.2249  0.2706
15249TIP3    H167162   5.923   6.748   2.372 -0.1189 -0.1672  0.6797
15249TIP3    H267163   5.778   6.782   2.346 -0.2220 -0.6653  0.5901
15250TIP3   OH267164   1.935   4.337   4.038  0.1042  0.2317 -0.2851
15250TIP3    H167165   1.982   4.416   4.066  0.0549  0.4778 -0.8809
15250TIP3    H267166   1.910   4.355   3.947 -3.0915  1.0775  0.6256
15251TIP3   OH267167   5.297   2.299   2.424  0.0817  0.2582  0.0904
15251TIP3    H167168   5.391   2.297   2.405  0.0573 -0.8684  0.0122
15251TIP3    H267169   5.256   2.261   2.346 -0.2508 -1.4046  1.0206
15252TIP3   OH267170   3.942   5.962  13.202 -0.0353 -0.2959 -0.2882
15252TIP3    H167171   3.975   5.920  13.122 -0.0882  1.5039 -1.3139
15252TIP3    H267172   4.021   5.983  13.252 -0.0606 -3.2628  1.2178
15253TIP3   OH267173   1.295   2.555   3.319 -0.1191 -0.0609 -0.2313
15253TIP3    H167174   1.256   2.559   3.407  0.4949  0.2698  0.0323
15253TIP3    H267175   1.330   2.466   3.312 -1.7311 -0.6878 -0.8380
15254TIP3   OH267176   0.422   5.119  16.966 -0.1344 -0.5814  0.0664
15254TIP3    H167177   0.391   5.146  16.880 -0.3695 -2.3029 -0.4154
15254TIP3    H267178   0.512   5.092  16.952  0.9407  2.1171  1.0150
15255TIP3   OH267179   2.381   6.055  12.581 -0.0008  0.0868 -0.1979
15255TIP3    H167180   2.330   6.031  12.504  0.7778 -1.4451 -0.2885
15255TIP3    H267181   2.328   6.026  12.656 -0.2684  0.5583 -0.2079
15256TIP3   OH267182   5.457   3.064   2.790  0.5314  0.3093 -0.0719
15256TIP3    H167183   5.510   3.056   2.711  0.6571  0.6550 -0.0232
15256TIP3    H267184   5.492   3.141   2.835 -1.2053  1.7304 -0.9906
15257TIP3   OH267185   6.589   1.935  11.424 -0.2929 -0.7921  0.2546
15257TIP3    H167186   6.542   1.980  11.494  0.0298 -1.3954  0.8681
15257TIP3    H267187   6.525   1.873  11.389 -0.4854 -0.4234 -0.0654
15258TIP3   OH267188   4.010   3.919   5.818  0.4670 -0.1430 -0.5054
15258TIP3    H167189   4.035   3.829   5.797  2.2825  0.4967 -1.2790
15258TIP3    H267190   4.012   3.964   5.734  0.0998  0.7528 -0.0409
15259TIP3   OH267191   1.402   6.626  15.112 -0.4235  0.0515 -0.2926
15259TIP3    H167192   1.389   6.538  15.146 -0.8990  0.5145  0.7797
15259TIP3    H267193   1.329   6.677  15.147 -1.8964  0.2423 -3.3645
15260TIP3   OH267194   1.306   2.766  12.798 -0.1314 -0.4467  0.4075
15260TIP3    H167195   1.365   2.779  12.724 -1.5685  2.5118 -0.3460
15260TIP3    H267196   1.361   2.780  12.875  0.9029 -1.4659 -0.1072
15261TIP3   OH267197   6.240   4.917  12.818 -0.0964 -0.2085 -1.0591
15261TIP3    H167198   6.167   4.858  12.804 -1.0149 -0.0207  2.0536
15261TIP3    H267199   6.286   4.881  12.895  0.9551  1.5900 -0.7744
15262TIP3   OH267200   0.367   3.876  12.068  0.4169 -0.2138  0.5246
15262TIP3    H167201   0.380   3.905  12.158 -0.8087 -0.9160  0.9461
15262TIP3    H267202   0.387   3.953  12.015 -2.1240  1.2853  1.5714
15263TIP3   OH267203   3.364   0.254   5.989  0.1293 -0.2840  0.3915
15263TIP3    H167204   3.406   0.317   6.049 -3.1478  0.7228  1.8339
15263TIP3    H267205   3.359   0.173   6.040  0.0805 -0.3252  0.3209
15264TIP3   OH267206   4.447   2.127   3.225  0.1165  0.5435  0.0304
15264TIP3    H167207   4.451   2.183   3.147  0.5222  1.4996  0.7068
15264TIP3    H267208   4.355   2.105   3.235 -0.0480  1.0744 -0.2730
15265TIP3   OH267209   0.870   0.552  16.823  0.2574 -0.9618  0.2160
15265TIP3    H167210   0.943   0.534  16.763 -0.1203 -0.8906 -0.2692
15265TIP3    H267211   0.840   0.466  16.852  0.4918 -0.9935  0.3716
15266TIP3   OH267212   4.192   2.154   3.170  0.0232  0.1900  0.2065
15266TIP3    H167213   4.102   2.135   3.197  0.5701  0.5681  2.5405
15266TIP3    H267214   4.194   2.249   3.160 -0.1547  0.0590 -1.2141
15267TIP3   OH267215   4.133   4.457   3.753 -0.1186  0.2133  0.0867
15267TIP3    H167216   4.140   4.531   3.693 -2.9888  1.3571  1.0098
15267TIP3    H267217   4.174   4.384   3.706  0.8075  1.8333 -1.7633
15268TIP3   OH267218   2.903   5.118  14.531 -0.0041 -0.2304 -0.7269
15268TIP3    H167219   2.889   5.149  14.621 -0.9057  0.5174 -1.1061
15268TIP3    H267220   2.973   5.174  14.498  0.5956 -0.7593 -0.3814
15269TIP3   OH267221   4.313   4.468  16.764  0.9269 -0.2554  0.3335
15269TIP3    H167222   4.296   4.413  16.841  2.0617 -0.0348  0.7674
15269TIP3    H267223   4.405   4.451  16.743  0.8452  0.2930 -0.4856
15270TIP3   OH267224   6.655   2.204  17.066 -0.1090  0.5257  0.4181
15270TIP3    H167225   6.572   2.165  17.037  0.2377  1.4853 -2.0865
15270TIP3    H267226   6.641   2.298  17.060  0.7369  0.7386  1.3950
15271TIP3   OH267227   4.037   5.877   6.122 -0.6927  0.2475 -0.2555
15271TIP3    H167228   4.073   5.902   6.207 -1.9393  0.7201  0.1741
15271TIP3    H267229   4.098   5.813   6.087  0.2313  0.5897  0.6658
15272TIP3   OH267230   4.243   1.100   3.351 -0.1399  0.6930  1.1567
15272TIP3    H167231   4.305   1.112   3.279  0.1560  2.5307  1.6708
15272TIP3    H267232   4.162   1.072   3.309  0.0855  1.5329  0.1357
15273TIP3   OH267233   0.443   4.901   0.778 -0.1746  0.2993  0.1675
15273TIP3    H167234   0.507   4.857   0.722 -0.2749 -2.7852  2.2312
15273TIP3    H267235   0.358   4.880   0.737 -0.1549 -0.5679  0.5474
15274TIP3   OH267236   4.506   1.409   5.290  0.2100 -0.2244 -0.5062
15274TIP3    H167237   4.472   1.490   5.329 -1.0292 -0.8617 -0.2196
15274TIP3    H267238   4.547   1.437   5.208 -1.4192  0.5304 -1.0896
15275TIP3   OH267239   1.490   4.090  13.438 -1.1593 -0.3154 -0.3483
15275TIP3    H167240   1.445   4.166  13.402 -0.9774 -0.9172 -1.9306
15275TIP3    H267241   1.582   4.102  13.413 -0.7696 -0.1264  1.0644
15276TIP3   OH267242   1.399   1.366  15.243 -0.0309 -0.2623  0.3615
15276TIP3    H167243   1.489   1.392  15.224  0.9315 -2.2386  1.8867
15276TIP3    H267244   1.387   1.285  15.194  0.1420 -1.6566  2.4642
15277TIP3   OH267245   3.699   3.319  16.382 -0.1785 -0.1485 -0.0767
15277TIP3    H167246   3.777   3.329  16.436 -1.0318 -0.1736  1.2032
15277TIP3    H267247   3.661   3.407  16.378  1.8355  0.7419 -3.8356
15278TIP3   OH267248   4.577   1.474   3.361  0.2452 -0.8818  0.4815
15278TIP3    H167249   4.668   1.502   3.359  0.4845 -1.6438 -1.0137
15278TIP3    H267250   4.572   1.414   3.436  0.8261 -0.4242  0.8999
15279TIP3   OH267251   0.171   1.438  12.014 -0.5045 -0.0627 -0.3891
15279TIP3    H167252   0.163   1.424  12.108 -0.0850  1.4934 -0.0969
15279TIP3    H267253   0.162   1.350  11.976 -3.2733 -0.4354  0.8886
15280TIP3   OH267254   5.384   3.890   2.317  0.4149  0.0011  0.4679
15280TIP3    H167255   5.384   3.984   2.297  1.4644  0.1765  1.2346
15280TIP3    H267256   5.306   3.878   2.371  1.4215  0.8786  2.2164
15281TIP3   OH267257   3.595   3.729  16.758  0.3118  0.0258  0.2713
15281TIP3    H167258   3.524   3.776  16.801  0.4261  0.1241  0.3555
15281TIP3    H267259   3.557   3.645  16.732 -0.1401  0.5131 -0.6712
15282TIP3   OH267260   4.714   1.770  12.589 -0.0060 -0.0215  0.6211
15282TIP3    H167261   4.726   1.843  12.529 -1.8170 -0.3407 -0.1933
15282TIP3    H267262   4.686   1.697  12.534 -1.4236 -0.4048  1.7702
15283TIP3   OH267263   3.908   4.188  13.574  0.2150  0.1602  0.4642
15283TIP3    H167264   3.902   4.114  13.633 -0.2019  0.2135  0.4908
15283TIP3    H267265   3.835   4.245  13.598 -0.3213 -0.1044 -0.4873
15284TIP3   OH267266   5.713   4.897  14.102 -0.2022 -0.0484  0.3281
15284TIP3    H167267   5.736   4.825  14.043  1.8479  0.2358  0.6982
15284TIP3    H267268   5.787   4.958  14.095 -1.6015  1.7384  0.4881
15285TIP3   OH267269   2.254   4.675  11.130 -0.2510  0.0924  0.6213
15285TIP3    H167270   2.309   4.742  11.090 -0.2363  0.6864  1.6030
15285TIP3    H267271   2.272   4.682  11.224 -3.6146  1.8568  1.2870
15286TIP3   OH267272   2.187   3.607   2.571  0.0871  0.1134 -0.2368
15286TIP3    H167273   2.208   3.543   2.638  0.2828 -0.8919 -1.2273
15286TIP3    H267274   2.270   3.648   2.549  0.0144  0.4829  0.1574
15287TIP3   OH267275   2.214   0.023  11.172  0.0623 -0.0377 -0.8714
15287TIP3    H167276   2.174   0.099  11.128  1.6687  0.9677 -0.6873
15287TIP3    H267277   2.266  -0.020  11.103  0.5095  0.0286 -0.5806
15288TIP3   OH267278   0.701   0.692  14.657  0.6566 -0.0992 -0.2810
15288TIP3    H167279   0.782   0.719  14.614 -0.3887  2.7544 -0.6559
15288TIP3    H267280   0.691   0.753  14.731 -1.6604  0.3657 -0.8995
15289TIP3   OH267281   0.316   5.597   0.997 -0.7541 -0.5690 -0.1305
15289TIP3    H167282   0.247   5.657   0.967 -0.6321 -1.0975 -1.5690
15289TIP3    H267283   0.322   5.532   0.928 -0.2685 -1.7504  0.9924
15290TIP3   OH267284   6.072   5.070  12.004  0.1591  0.2674  0.1324
15290TIP3    H167285   6.154   5.083  12.052 -0.9799 -0.9943  2.5812
15290TIP3    H267286   6.016   5.142  12.034 -0.8448 -1.0079  1.4199
15291TIP3   OH267287   4.766   1.182  13.410  0.0468 -0.2662  0.3352
15291TIP3    H167288   4.793   1.262  13.364 -1.2646  1.1310  1.8378
15291TIP3    H267289   4.764   1.207  13.502 -1.3662 -1.7330  0.7537
15292TIP3   OH267290   3.218   4.667  11.820  0.0169 -0.1382  1.0548
15292TIP3    H167291   3.163   4.590  11.809  0.5640 -0.3794 -0.2162
15292TIP3    H267292   3.168   4.724  11.878 -0.0064 -1.7993  2.7811
15293TIP3   OH267293   3.211   3.295   5.692 -0.1126  0.3646  0.1849
15293TIP3    H167294   3.301   3.274   5.718 -0.4671 -0.4348  0.7949
15293TIP3    H267295   3.221   3.361   5.624  0.9977 -0.8783 -0.9019
15294TIP3   OH267296   5.393   4.213  16.763  0.3829 -0.2402  0.2179
15294TIP3    H167297   5.374   4.119  16.764  0.5882 -0.2860 -0.1349
15294TIP3    H267298   5.332   4.250  16.827  1.1900 -0.7784  1.3535
15295TIP3   OH267299   0.729   3.549  14.184 -0.7859  0.2129  0.5377
15295TIP3    H167300   0.766   3.633  14.159  0.1745 -0.6159 -1.0270
15295TIP3    H267301   0.804   3.500  14.221 -0.4043 -1.1710 -1.8469
15296TIP3   OH267302   5.942   2.820   3.459 -0.5805  0.0658 -0.0869
15296TIP3    H167303   5.875   2.816   3.392 -1.2683 -0.9828  0.6330
15296TIP3    H267304   5.899   2.859   3.535 -0.2744 -0.2321  0.2489
15297TIP3   OH267305   3.056   4.204   0.759  0.0975  0.2946 -1.1573
15297TIP3    H167306   2.988   4.262   0.724 -0.8068 -1.2840 -2.1158
15297TIP3    H267307   3.010   4.122   0.778  1.2514  0.0041  0.6085
15298TIP3   OH267308   5.644   2.436  10.875 -0.3442  0.4747  0.7518
15298TIP3    H167309   5.627   2.502  10.942  0.0128  0.4295  0.8879
15298TIP3    H267310   5.612   2.475  10.794  2.1586  1.9130  0.3512
15299TIP3   OH267311   1.902   0.729   1.055  0.1664 -0.0008  0.2641
15299TIP3    H167312   1.838   0.798   1.038  0.5133  0.3917  0.5188
15299TIP3    H267313   1.881   0.698   1.143 -0.3635 -0.6384 -0.0796
15300TIP3   OH267314   3.848   2.021   0.250 -0.6097  0.3520 -0.1997
15300TIP3    H167315   3.786   1.951   0.233  0.5635 -0.6860 -0.3883
15300TIP3    H267316   3.883   2.002   0.338  0.5193  0.0379 -0.6929
15301TIP3   OH267317   0.283   2.062  11.321  0.1023 -0.1948  0.0354
15301TIP3    H167318   0.320   2.148  11.340  1.1676 -0.5720 -0.2733
15301TIP3    H267319   0.333   2.030  11.246  0.9794 -1.8370  1.2610
15302TIP3   OH267320   3.691   4.070  11.773 -0.1462 -0.7318 -0.0459
15302TIP3    H167321   3.609   4.088  11.726 -0.5187 -1.0427  0.4640
15302TIP3    H267322   3.662   4.026  11.853  0.6431 -2.3057 -0.6036
15303TIP3   OH267323   0.282   3.742   6.174 -0.1688  0.3293  0.1633
15303TIP3    H167324   0.275   3.719   6.082 -0.7362 -0.6765  0.4363
15303TIP3    H267325   0.243   3.667   6.220 -1.7282  1.6875  1.1262
15304TIP3   OH267326   5.601   0.798   6.281  0.2760  0.3612  0.7357
15304TIP3    H167327   5.696   0.805   6.271  0.2498  0.8949  0.8192
15304TIP3    H267328   5.573   0.887   6.303 -0.4647  0.6209 -1.0982
15305TIP3   OH267329   3.491   1.631  15.252  0.1574 -0.0077  0.4978
15305TIP3    H167330   3.551   1.606  15.181  2.0869  0.9042  1.7269
15305TIP3    H267331   3.486   1.726  15.247  0.1231  0.0477  1.4135
15306TIP3   OH267332   1.257   6.159  16.964  0.1086 -0.0364  0.0741
15306TIP3    H167333   1.349   6.183  16.959 -0.3755  2.2351  1.1005
15306TIP3    H267334   1.252   6.075  16.917  2.1164  1.3477 -2.9579
15307TIP3   OH267335   1.252   0.250  11.065  0.5892 -0.0872 -0.5415
15307TIP3    H167336   1.180   0.267  11.004  0.6852 -0.4069 -0.7457
15307TIP3    H267337   1.326   0.226  11.009  1.2362  1.5035 -0.4116
15308TIP3   OH267338   0.639   1.300  12.972 -0.0030  0.2920 -0.0001
15308TIP3    H167339   0.647   1.262  12.884 -1.1598 -1.9214  0.7802
15308TIP3    H267340   0.566   1.361  12.965 -0.3896 -0.2122 -0.4774
15309TIP3   OH267341   5.215   3.276  15.373 -0.3598  0.0751 -0.5687
15309TIP3    H167342   5.308   3.262  15.355 -0.3317  2.8786 -3.4814
15309TIP3    H267343   5.213   3.351  15.432 -0.8212 -1.3121  1.2703
15310TIP3   OH267344   4.334   5.434   3.083  0.6142  0.2970 -0.2489
15310TIP3    H167345   4.358   5.418   2.991 -1.2461  1.0828 -0.9259
15310TIP3    H267346   4.409   5.403   3.133  0.5909 -2.7196 -1.8662
15311TIP3   OH267347   4.055   2.400  13.415 -0.1485  0.4510 -0.0992
15311TIP3    H167348   3.978   2.457  13.414  0.4267  1.2610  0.5381
15311TIP3    H267349   4.129   2.460  13.418  0.5118 -0.3224 -0.5965
15312TIP3   OH267350   5.557   5.500  17.208  0.4958  0.2476  0.5735
15312TIP3    H167351   5.647   5.496  17.242  1.0191 -1.2142 -0.8591
15312TIP3    H267352   5.566   5.537  17.120 -0.2253 -0.4385  0.2000
15313TIP3   OH267353   3.391   4.540   3.989 -0.5218 -0.5111 -0.1404
15313TIP3    H167354   3.432   4.500   4.066 -0.1487 -1.7888 -0.9630
15313TIP3    H267355   3.345   4.617   4.023  1.9089  0.5552  0.9304
15314TIP3   OH267356   4.785   3.856  13.658  0.2915 -0.4634 -0.1321
15314TIP3    H167357   4.804   3.853  13.564  1.8333  0.8172  0.0888
15314TIP3    H267358   4.731   3.934  13.669 -0.5129 -1.0274 -0.0375
15315TIP3   OH267359   3.506   2.370  12.634 -0.1394 -0.5909 -0.6278
15315TIP3    H167360   3.522   2.294  12.578 -0.9663 -1.2353 -0.0083
15315TIP3    H267361   3.515   2.337  12.723 -2.0529 -0.3570 -0.3053
15316TIP3   OH267362   0.119   5.190   5.902 -0.2062 -0.4857  0.2819
15316TIP3    H167363   0.075   5.172   5.819  0.2395  0.3454 -0.1496
15316TIP3    H267364   0.210   5.205   5.878  0.3024 -1.9579  1.1338
15317TIP3   OH267365   3.229   4.745   3.568 -0.1050 -0.1342 -0.3881
15317TIP3    H167366   3.324   4.760   3.571 -0.1672  0.2498 -0.2838
15317TIP3    H267367   3.209   4.708   3.654 -0.5307  2.7801  0.9038
15318TIP3   OH267368   1.931   1.017  12.590  0.2101 -0.7657  0.7052
15318TIP3    H167369   1.946   1.098  12.638  1.2570 -0.8116  0.4806
15318TIP3    H267370   1.864   1.039  12.526 -0.0339 -0.2757  1.1220
15319TIP3   OH267371   2.235   0.970  16.431  0.5892 -0.3654 -0.5212
15319TIP3    H167372   2.235   1.020  16.513  1.3417 -2.1678  0.6360
15319TIP3    H267373   2.166   0.905  16.443  0.8729 -0.8030 -1.2289
15320TIP3   OH267374   6.101   5.072  15.337  0.3264 -0.2007  0.3340
15320TIP3    H167375   6.119   5.024  15.257  0.5273 -1.2748  1.0041
15320TIP3    H267376   6.175   5.133  15.345  2.2019 -2.4787  1.4744
15321TIP3   OH267377   0.923   2.752  14.840  0.0445 -0.0685 -0.1252
15321TIP3    H167378   0.948   2.775  14.750  0.7585 -0.8527 -0.1319
15321TIP3    H267379   1.005   2.729  14.883 -0.1310  1.2992  1.0469
15322TIP3   OH267380   0.342   2.094   2.452  0.0872 -0.0886 -0.2171
15322TIP3    H167381   0.410   2.161   2.446  1.1746 -1.1853 -0.6419
15322TIP3    H267382   0.336   2.074   2.546  1.3993 -0.9830 -0.2986
15323TIP3   OH267383   0.081   0.692  12.161 -0.0500 -0.0461  0.1486
15323TIP3    H167384   0.090   0.752  12.087  0.3735  0.0036  0.2335
15323TIP3    H267385   0.128   0.613  12.134 -0.0331 -0.0881  0.2986
15324TIP3   OH267386   2.777   0.515  11.966  0.1376  0.3401 -0.3328
15324TIP3    H167387   2.769   0.466  12.048  0.9143 -0.7723 -0.8989
15324TIP3    H267388   2.711   0.476  11.909 -0.6555  1.3609 -0.1436
15325TIP3   OH267389   5.510   2.845   6.059 -0.2088 -0.4397  0.5643
15325TIP3    H167390   5.509   2.769   6.118  0.9352 -4.2392 -3.7353
15325TIP3    H267391   5.603   2.869   6.055 -0.4849  0.8642  1.3671
15326TIP3   OH267392   3.737   0.634   2.552  0.5071 -0.1501 -0.0122
15326TIP3    H167393   3.704   0.719   2.522  0.2188 -0.8960 -1.9675
15326TIP3    H267394   3.709   0.628   2.643 -0.0678  1.5533 -0.0439
15327TIP3   OH267395   2.650   3.705   2.258  0.0564 -0.0249 -0.0485
15327TIP3    H167396   2.669   3.712   2.164  0.7879 -0.9731  0.0056
15327TIP3    H267397   2.561   3.670   2.262 -0.6459  1.6481 -0.3540
15328TIP3   OH267398   3.594   6.428   1.374 -0.5095  0.2875 -0.3778
15328TIP3    H167399   3.592   6.350   1.430  1.2870 -0.1996 -0.9312
15328TIP3    H267400   3.637   6.494   1.428 -1.4810  0.7343 -0.1311
15329TIP3   OH267401   1.064   2.096   1.751 -0.3355  0.2002 -0.7264
15329TIP3    H167402   0.997   2.037   1.716  0.4425 -0.3947 -1.2254
15329TIP3    H267403   1.017   2.178   1.767 -1.2989 -0.3639 -0.5747
15330TIP3   OH267404   0.600   5.481   1.485 -0.3334 -0.8296 -0.6482
15330TIP3    H167405   0.569   5.536   1.557  1.2260 -1.6992  0.7507
15330TIP3    H267406   0.556   5.516   1.407 -1.3934  0.6927  0.5845
15331TIP3   OH267407   5.100   3.784   6.406  0.1417 -0.1139  0.2325
15331TIP3    H167408   5.186   3.747   6.390 -1.0954 -3.5556  0.6562
15331TIP3    H267409   5.042   3.739   6.345 -1.7705  0.0105  1.8288
15332TIP3   OH267410   3.006   1.064   3.910 -0.4226 -0.5739 -0.5489
15332TIP3    H167411   3.080   1.125   3.911 -0.4635 -0.5289  0.1763
15332TIP3    H267412   2.973   1.065   4.000 -0.1509 -2.0034 -0.4101
15333TIP3   OH267413   4.334   0.803   1.963  0.2869 -0.1685  0.0642
15333TIP3    H167414   4.253   0.792   2.014 -0.3308 -2.4453 -1.2538
15333TIP3    H267415   4.306   0.846   1.883  0.7448  0.7528  0.3859
15334TIP3   OH267416   2.032   2.813   2.882 -0.3660 -0.1484  0.1352
15334TIP3    H167417   2.102   2.757   2.914  0.1191  0.2823 -0.1643
15334TIP3    H267418   2.008   2.867   2.957  0.5471  0.6374 -0.1303
15335TIP3   OH267419   0.702   1.554  10.892  0.5977  0.3664  0.2695
15335TIP3    H167420   0.664   1.467  10.880  1.9218  0.1844 -3.9599
15335TIP3    H267421   0.783   1.538  10.941  0.0946 -0.5162  0.8457
15336TIP3   OH267422   5.334   5.633   5.379  0.0371 -0.0319 -0.3737
15336TIP3    H167423   5.400   5.683   5.428  0.1194 -1.1315  0.6776
15336TIP3    H267424   5.372   5.547   5.368 -0.6487 -0.2643 -1.0165
15337TIP3   OH267425   4.178   5.585  12.557 -0.2974 -0.1396 -0.0743
15337TIP3    H167426   4.129   5.658  12.596 -0.1482  0.1111 -0.3490
15337TIP3    H267427   4.149   5.584  12.466 -1.3011 -1.2719  0.2323
15338TIP3   OH267428   3.121   3.261   1.386  0.0065 -0.0209  0.3491
15338TIP3    H167429   3.097   3.333   1.329 -1.9291  0.1424  1.2789
15338TIP3    H267430   3.202   3.227   1.350 -0.4524  0.9191 -1.6748
15339TIP3   OH267431   2.521   2.888   1.944  0.5637 -0.2950 -0.3017
15339TIP3    H167432   2.608   2.916   1.918  0.4526  0.2556 -0.0962
15339TIP3    H267433   2.535   2.820   2.010  0.8834 -2.6127 -2.5698
15340TIP3   OH267434   5.958   6.699  10.751  0.2738 -0.3887  0.2867
15340TIP3    H167435   5.892   6.703  10.682  0.3396  1.3677  0.2833
15340TIP3    H267436   5.947   6.612  10.789 -0.5931 -0.9314 -1.1077
15341TIP3   OH267437   1.439   5.813  16.286 -0.5187 -0.1542 -0.3159
15341TIP3    H167438   1.361   5.868  16.272  0.3101  0.7270 -1.6996
15341TIP3    H267439   1.483   5.813  16.201 -0.1682 -2.5115 -0.2051
15342TIP3   OH267440   2.724   5.256   5.455  0.2231  0.1198  0.7813
15342TIP3    H167441   2.801   5.225   5.504  1.6362  1.2573 -0.5817
15342TIP3    H267442   2.726   5.351   5.466  0.8015  0.4618 -1.6587
15343TIP3   OH267443   5.357   1.144  14.938  0.2152  0.5394 -0.5281
15343TIP3    H167444   5.406   1.154  14.857  0.7472 -0.5189 -0.3521
15343TIP3    H267445   5.282   1.089  14.915  0.7061 -0.2962 -0.1910
15344TIP3   OH267446   1.653   5.648  16.337  0.0177  0.4597 -0.0230
15344TIP3    H167447   1.579   5.709  16.344 -0.8575 -0.5811  0.1325
15344TIP3    H267448   1.680   5.633  16.428  0.2801  0.6597 -0.0664
15345TIP3   OH267449   5.824   6.315   5.180  0.3912 -0.1301  0.3730
15345TIP3    H167450   5.881   6.326   5.104  1.7087  1.1236  1.4807
15345TIP3    H267451   5.808   6.221   5.184  0.8677 -0.2993 -1.0408
15346TIP3   OH267452   0.223   0.479   1.517  0.2138  0.3560  0.4934
15346TIP3    H167453   0.194   0.388   1.519  0.7182  0.1776  0.0161
15346TIP3    H267454   0.292   0.484   1.583  2.5526 -0.4729 -1.7054
15347TIP3   OH267455   2.406   3.183   0.311 -0.1665  0.2824  0.7649
15347TIP3    H167456   2.495   3.212   0.333  0.3417 -0.7828  0.1624
15347TIP3    H267457   2.362   3.263   0.283  1.8068  0.2987 -2.8900
15348TIP3   OH267458   0.770   4.935  13.608  0.4530  0.0865  0.6648
15348TIP3    H167459   0.839   4.939  13.674  1.1396  1.0438 -0.0923
15348TIP3    H267460   0.690   4.920  13.659  1.1777 -0.9482  1.5594
15349TIP3   OH267461   2.270   3.773  14.955  0.0862 -0.3572  0.4068
15349TIP3    H167462   2.296   3.717  15.028  1.2912  1.2939  1.3144
15349TIP3    H267463   2.352   3.791  14.908 -0.5137 -0.5221 -0.7430
15350TIP3   OH267464   0.572   3.921  16.975  0.4790 -0.3353 -0.1495
15350TIP3    H167465   0.662   3.954  16.982  0.2474 -0.1219  2.6140
15350TIP3    H267466   0.525   3.991  16.930  1.5649 -0.3089 -1.3326
15351TIP3   OH267467   3.841   6.577   2.357  0.5600 -0.1955 -0.3312
15351TIP3    H167468   3.765   6.527   2.389  1.8681 -3.4142 -1.8046
15351TIP3    H267469   3.875   6.622   2.435 -1.6536 -0.2677  0.7548
15352TIP3   OH267470   0.509   2.291   4.462 -0.5798 -0.0764 -0.8431
15352TIP3    H167471   0.504   2.381   4.492 -0.8357 -0.8076  1.5093
15352TIP3    H267472   0.435   2.282   4.401 -2.7527  0.4453  1.5173
15353TIP3   OH267473   4.028   6.388  12.599  0.1577  0.2784 -0.2141
15353TIP3    H167474   4.020   6.357  12.690 -0.6279  1.9955  0.3514
15353TIP3    H267475   4.076   6.319  12.554  1.0047 -0.3953  1.6293
15354TIP3   OH267476   1.904   4.069   5.920 -0.0946 -0.8436 -0.6993
15354TIP3    H167477   1.975   4.116   5.876 -0.5327 -0.4002 -0.9478
15354TIP3    H267478   1.855   4.137   5.966 -0.6713 -1.0654 -0.9696
15355TIP3   OH267479   3.722   4.241   4.125  0.1573 -0.0123 -0.5656
15355TIP3    H167480   3.647   4.194   4.090 -0.6541 -0.8145  2.0749
15355TIP3    H267481   3.788   4.174   4.143  1.1684  0.5654 -1.8710
15356TIP3   OH267482   2.151   2.075  15.291  0.2595 -0.4592 -0.9396
15356TIP3    H167483   2.191   2.153  15.330 -1.2507 -0.1739  0.1016
15356TIP3    H267484   2.062   2.102  15.269  0.3443 -1.3173 -2.4783
15357TIP3   OH267485   0.091   5.298   1.455 -0.0480  0.1972 -0.0863
15357TIP3    H167486   0.091   5.392   1.440 -1.9506  0.1889 -0.3605
15357TIP3    H267487   0.077   5.260   1.368 -0.3960 -0.2927  0.1779
15358TIP3   OH267488   2.919   5.300   3.990  0.1143 -0.1454 -0.0470
15358TIP3    H167489   2.886   5.228   3.937 -0.4129  0.2733 -0.3058
15358TIP3    H267490   2.840   5.346   4.020  0.4126 -0.2812  0.9713
15359TIP3   OH267491   2.777   3.146  15.634 -0.1659  0.2921 -0.3335
15359TIP3    H167492   2.685   3.169  15.624  0.2816  1.8020 -1.2537
15359TIP3    H267493   2.820   3.182  15.557  0.9350 -2.0288 -0.8928
15360TIP3   OH267494   3.774   4.412  14.995  0.1437 -0.6265 -0.2436
15360TIP3    H167495   3.694   4.447  15.034 -0.1134 -0.2261 -1.1123
15360TIP3    H267496   3.844   4.443  15.053  0.0742  2.4980 -1.6468
15361TIP3   OH267497   3.668   1.016  15.898 -0.5097  0.0551 -0.3930
15361TIP3    H167498   3.645   1.088  15.956 -1.0231 -0.5328  0.1445
15361TIP3    H267499   3.711   1.058  15.823  1.7848  0.7060  1.1619
15362TIP3   OH267500   1.956   2.796  14.595 -0.1674  0.5705 -0.4214
15362TIP3    H167501   1.870   2.808  14.553  0.6145  1.5757 -1.8271
15362TIP3    H267502   2.010   2.755  14.527 -0.0835 -2.2157  1.1773
15363TIP3   OH267503   2.616   6.150   5.384  0.2126 -0.2634 -0.4172
15363TIP3    H167504   2.580   6.226   5.339  1.4777  0.9224  0.4758
15363TIP3    H267505   2.711   6.163   5.381  0.3765 -0.1855  2.4089
15364TIP3   OH267506   1.842   1.547  14.029 -0.4153  0.1154 -0.0357
15364TIP3    H167507   1.838   1.498  14.111 -0.9722 -0.3988 -0.3625
15364TIP3    H267508   1.891   1.626  14.051  0.9317 -0.8076  0.3716
15365TIP3   OH267509   4.243   0.205   1.276  0.1508  0.4550 -0.1305
15365TIP3    H167510   4.256   0.212   1.181 -1.2927  0.2666 -0.3716
15365TIP3    H267511   4.214   0.293   1.303 -1.1033  0.0762 -0.1789
15366TIP3   OH267512   0.842   3.769  14.389  0.6378 -0.1495  0.0909
15366TIP3    H167513   0.809   3.845  14.341 -0.3501  0.4135  1.5993
15366TIP3    H267514   0.937   3.779  14.386  0.5232  1.8617  1.2779
15367TIP3   OH267515   4.209   3.582  15.980 -0.0003 -0.2141 -0.1193
15367TIP3    H167516   4.233   3.524  15.909 -0.8213 -2.3030  1.2163
15367TIP3    H267517   4.267   3.559  16.052 -1.0043 -0.1075  0.7599
15368TIP3   OH267518   2.122   5.438   3.607 -0.6444  0.1174 -0.4096
15368TIP3    H167519   2.185   5.476   3.545 -0.0016  0.5243  0.4812
15368TIP3    H267520   2.113   5.503   3.676 -1.6943 -0.1448 -0.2801
15369TIP3   OH267521   4.672   1.343  15.575 -0.7974  0.0411  0.1663
15369TIP3    H167522   4.690   1.417  15.518 -1.9393 -0.2753 -0.6407
15369TIP3    H267523   4.600   1.372  15.631  1.7472  1.2122  3.1928
15370TIP3   OH267524   0.923   4.930   6.164 -0.1488 -0.3776 -0.1496
15370TIP3    H167525   0.985   4.869   6.205 -0.0233  0.3665  0.8247
15370TIP3    H267526   0.851   4.936   6.227 -0.1937  0.4179 -0.2705
15371TIP3   OH267527   0.701   4.739   4.484  0.2942  0.4291  0.2250
15371TIP3    H167528   0.667   4.801   4.549  0.4914  1.5901 -0.7483
15371TIP3    H267529   0.644   4.662   4.492  0.4974  0.4241  1.9572
15372TIP3   OH267530   2.925   3.151   1.971 -0.3114  0.2335  0.4879
15372TIP3    H167531   2.926   3.224   2.033  1.1185  0.8078 -0.1629
15372TIP3    H267532   3.008   3.105   1.988  0.5402  0.9047 -1.5238
15373TIP3   OH267533   4.698   1.832  13.068 -0.7413  0.1369  0.3825
15373TIP3    H167534   4.603   1.845  13.061 -0.5807  1.0532 -0.3054
15373TIP3    H267535   4.716   1.757  13.010 -0.9396  0.4968 -0.1530
15374TIP3   OH267536   2.292   1.678  16.868  1.0415  0.4390 -0.3955
15374TIP3    H167537   2.318   1.615  16.801 -0.5390  0.6534 -1.2719
15374TIP3    H267538   2.305   1.631  16.951  1.6195 -0.3681 -0.9294
15375TIP3   OH267539   4.716   5.909   3.137  0.5435 -0.3279 -0.0105
15375TIP3    H167540   4.732   5.890   3.045 -1.0362 -3.9918  0.2846
15375TIP3    H267541   4.802   5.934   3.172  1.6222 -0.9640 -2.0612
15376TIP3   OH267542   0.727   4.774   0.159  0.0578  0.2937 -0.0104
15376TIP3    H167543   0.772   4.859   0.161  3.0153 -1.1450 -0.1377
15376TIP3    H267544   0.649   4.787   0.212  0.6001  2.9798  0.2847
15377TIP3   OH267545   2.681   4.509   3.687  0.3146  0.4122  0.7635
15377TIP3    H167546   2.679   4.547   3.775 -1.2481  0.9834  0.5137
15377TIP3    H267547   2.611   4.553   3.640  0.3552 -0.7228 -0.4318
15378TIP3   OH267548   0.881   3.518   2.119 -0.0686 -0.3943  0.6561
15378TIP3    H167549   0.870   3.423   2.122 -0.3096 -0.4105 -0.3959
15378TIP3    H267550   0.882   3.539   2.026 -1.8964  0.8327  0.8553
15379TIP3   OH267551   4.153   0.780  11.744  0.1323  0.6188  0.3322
15379TIP3    H167552   4.134   0.825  11.826 -0.9027 -1.7088  1.4393
15379TIP3    H267553   4.207   0.705  11.769 -0.9686 -0.6535 -0.9493
15380TIP3   OH267554   1.763   3.763  11.841  0.5360 -0.1000 -0.0366
15380TIP3    H167555   1.719   3.684  11.872  1.1838 -0.7382 -0.6973
15380TIP3    H267556   1.841   3.731  11.796  0.5915  0.8935 -0.6820
15381TIP3   OH267557   0.532   3.264   3.169 -0.0996  0.0200 -0.3470
15381TIP3    H167558   0.496   3.335   3.221  3.0793 -1.1013  3.9845
15381TIP3    H267559   0.574   3.307   3.094 -0.3915  2.4289  0.7856
15382TIP3   OH267560   1.956   0.831   3.927 -0.8093  0.3419 -0.0487
15382TIP3    H167561   2.030   0.845   3.986 -1.8325  0.1959  1.3416
15382TIP3    H267562   1.932   0.739   3.940 -1.3564  0.4412 -0.3036
15383TIP3   OH267563   1.834   0.297   2.616 -0.0039 -0.1126  0.2355
15383TIP3    H167564   1.824   0.271   2.708 -1.2357 -0.5732 -0.0054
15383TIP3    H267565   1.827   0.392   2.617  2.5999  0.1509  0.8967
15384TIP3   OH267566   4.455   2.107  15.412  0.3304  0.3070 -0.2941
15384TIP3    H167567   4.373   2.059  15.424  1.3656 -1.3517  0.5710
15384TIP3    H267568   4.433   2.198  15.434 -0.7839 -0.4747  2.1542
15385TIP3   OH267569   2.923   0.033  10.627 -0.5363 -0.8138 -0.0071
15385TIP3    H167570   2.859  -0.030  10.595  0.7596 -1.1997 -2.0613
15385TIP3    H267571   2.968   0.063  10.548  1.4902 -0.2261  1.2951
15386TIP3   OH267572   2.697   5.430   2.327 -0.1308  0.4309  0.2056
15386TIP3    H167573   2.738   5.381   2.256 -1.7656 -0.6373 -0.0441
15386TIP3    H267574   2.606   5.399   2.329 -0.9986  2.7775  0.6445
15387TIP3   OH267575   2.153   4.529   2.571 -0.1447  0.1730  0.2493
15387TIP3    H167576   2.170   4.460   2.508 -0.6222  0.0507  0.2525
15387TIP3    H267577   2.140   4.484   2.654  1.5519  0.3964  0.6732
15388TIP3   OH267578   1.692   0.972  17.344 -0.0677 -0.1020  0.1265
15388TIP3    H167579   1.641   1.050  17.368  0.7804  0.9782 -1.4185
15388TIP3    H267580   1.627   0.902  17.337 -1.1607  0.9404 -0.4845
15389TIP3   OH267581   1.572   3.730  14.577 -0.8705 -0.3833 -0.2013
15389TIP3    H167582   1.579   3.819  14.612 -1.3217  1.3195 -3.9574
15389TIP3    H267583   1.618   3.676  14.641 -0.8828  2.4362  2.4448
15390TIP3   OH267584   0.120   2.081   0.127 -0.0158  0.0909 -0.0148
15390TIP3    H167585   0.029   2.074   0.156  0.0205  0.0360  0.0880
15390TIP3    H267586   0.161   2.001   0.160 -0.1309 -0.2902 -0.7887
15391TIP3   OH267587   4.693   1.375   2.498  0.0611  0.0409  0.9694
15391TIP3    H167588   4.753   1.323   2.551 -1.4105 -1.3953  1.3272
15391TIP3    H267589   4.690   1.331   2.413  0.4670  0.8436  0.5274
15392TIP3   OH267590   3.627   1.826  15.624  0.2132 -0.1702  0.2333
15392TIP3    H167591   3.589   1.859  15.706  0.5023  0.4717  0.1164
15392TIP3    H267592   3.552   1.796  15.573 -0.0449  0.2246  0.3806
15393TIP3   OH267593   5.739   3.184  16.734 -0.3288 -0.1211 -0.4972
15393TIP3    H167594   5.813   3.135  16.769  0.0435  0.9110  0.2225
15393TIP3    H267595   5.754   3.274  16.763 -0.0307  0.8357 -3.2919
15394TIP3   OH267596   3.215   6.664  16.171 -0.5134 -0.0912 -0.0633
15394TIP3    H167597   3.233   6.682  16.079  0.6200  0.4079  0.2433
15394TIP3    H267598   3.120   6.648  16.174 -0.8880  1.6796 -1.0265
15395TIP3   OH267599   2.302   4.476  12.629  0.4819 -0.5457 -0.2455
15395TIP3    H167600   2.368   4.417  12.594 -0.3302 -0.3954 -2.1877
15395TIP3    H267601   2.219   4.439  12.600 -0.2755 -0.3895  1.5955
15396TIP3   OH267602   1.002   4.077   0.151  0.5839 -0.1376 -0.6926
15396TIP3    H167603   0.966   4.129   0.223  1.0146 -0.8202  0.0449
15396TIP3    H267604   0.936   4.010   0.133  0.0194  0.6589 -1.6568
15397TIP3   OH267605   3.585   6.404   0.134  0.1770 -0.3159  0.4707
15397TIP3    H167606   3.622   6.348   0.066  1.3318 -1.8102  2.2225
15397TIP3    H267607   3.634   6.485   0.128  1.5817 -1.1224  0.7043
15398TIP3   OH267608   0.876   1.333  14.143  0.3959 -0.0233 -0.0882
15398TIP3    H167609   0.882   1.238  14.137 -1.2740 -0.1962  0.6558
15398TIP3    H267610   0.789   1.354  14.111  1.3537  1.4536 -1.9515
15399TIP3   OH267611   2.855   3.921   5.421  0.1452 -0.0709 -0.1135
15399TIP3    H167612   2.858   3.827   5.407  0.5550  0.0116 -0.6227
15399TIP3    H267613   2.789   3.933   5.490  0.2985 -0.7443  0.1567
15400TIP3   OH267614   5.822   3.129  14.493  0.3160 -0.3674 -0.2290
15400TIP3    H167615   5.891   3.192  14.474  1.5232 -1.2855  0.9643
15400TIP3    H267616   5.744   3.182  14.506  0.6858  0.6728 -1.9391
15401TIP3   OH267617   5.280   1.968   0.579  0.1250  0.0443  0.1829
15401TIP3    H167618   5.309   1.906   0.512  1.1679 -0.5350  1.1363
15401TIP3    H267619   5.192   1.939   0.601 -0.2591  0.2761 -0.9576
15402TIP3   OH267620   2.718   6.282   2.019 -0.6495 -0.4210  0.3762
15402TIP3    H167621   2.739   6.193   2.047 -0.0130 -0.0626  1.0783
15402TIP3    H267622   2.628   6.276   1.986  0.1608 -1.7758 -1.7488
15403TIP3   OH267623   4.478   2.418  14.864 -0.0190 -0.2058  0.3652
15403TIP3    H167624   4.537   2.457  14.799 -0.4179  1.3000  0.8616
15403TIP3    H267625   4.506   2.327  14.870  2.8498  0.6320  1.1977
15404TIP3   OH267626   3.246   5.816   0.912  0.2287 -0.4997 -0.3988
15404TIP3    H167627   3.175   5.822   0.976  0.3483 -0.3649 -0.2774
15404TIP3    H267628   3.326   5.824   0.964  0.4166 -2.5515 -0.2807
15405TIP3   OH267629   3.505   0.717   5.976  0.1173 -0.4178  0.3749
15405TIP3    H167630   3.524   0.660   6.050 -0.6593 -1.9830 -0.5764
15405TIP3    H267631   3.573   0.697   5.911  0.4498  0.5089  0.4204
15406TIP3   OH267632   6.152   6.328   0.715  0.0459 -0.0666 -0.2997
15406TIP3    H167633   6.213   6.262   0.683 -0.4353 -0.6955  0.0570
15406TIP3    H267634   6.178   6.409   0.670 -0.9176 -1.0078 -2.7082
15407TIP3   OH267635   1.842   0.395   3.672 -0.5036  0.0758  0.3054
15407TIP3    H167636   1.877   0.339   3.741  2.1704  0.8136 -0.3545
15407TIP3    H267637   1.909   0.394   3.604 -1.4344  2.1976 -0.7274
15408TIP3   OH267638   5.717   6.420   0.657  0.3794 -0.8008 -0.0933
15408TIP3    H167639   5.678   6.459   0.735  0.6010 -1.5307  0.3886
15408TIP3    H267640   5.788   6.365   0.689  1.3940 -0.0216 -0.9197
15409TIP3   OH267641   1.136   2.271  10.445 -0.4192 -0.4464 -0.3200
15409TIP3    H167642   1.201   2.292  10.378 -0.2624  1.7195  0.4497
15409TIP3    H267643   1.100   2.187  10.417  0.4967 -0.1934 -2.4489
15410TIP3   OH267644   0.002   5.019  14.306  0.1603 -0.0861 -0.0800
15410TIP3    H167645  -0.028   4.939  14.349 -0.4436  0.2477  0.1325
15410TIP3    H267646   0.090   4.997  14.274  1.2640  0.0875  2.5669
15411TIP3   OH267647   6.434   1.409   3.195 -0.3283  0.2015  0.1004
15411TIP3    H167648   6.343   1.424   3.169  0.4688  1.1574 -2.4904
15411TIP3    H267649   6.477   1.493   3.182  1.5318 -0.9566 -1.7866
15412TIP3   OH267650   5.576   3.377  17.078 -0.2047  0.2584 -0.2177
15412TIP3    H167651   5.599   3.470  17.072  0.4810  0.1997  1.1557
15412TIP3    H267652   5.571   3.359  17.172 -0.9529 -0.9582 -0.4595
15413TIP3   OH267653   5.161   2.918   1.200 -0.0556  0.1362  0.3212
15413TIP3    H167654   5.230   2.877   1.149  0.0286 -1.4313  1.6143
15413TIP3    H267655   5.087   2.857   1.194 -0.4798  0.5645  0.9811
15414TIP3   OH267656   0.272   0.605   4.870 -0.4380 -0.1254 -0.3192
15414TIP3    H167657   0.276   0.699   4.883 -0.2669  0.1951 -2.2888
15414TIP3    H267658   0.361   0.581   4.844 -0.7930 -0.5789 -1.1622
15415TIP3   OH267659   3.020   0.674   0.025  0.7653  0.2340  0.2297
15415TIP3    H167660   3.030   0.730  -0.052  0.0190  2.9091  1.9473
15415TIP3    H267661   3.076   0.599   0.007  0.3885  0.5812 -3.0155
15416TIP3   OH267662   6.414   4.055   0.172  0.2308 -0.6304 -0.0157
15416TIP3    H167663   6.321   4.073   0.183  0.3511 -0.2232  0.3496
15416TIP3    H267664   6.419   3.960   0.161 -0.3214 -0.5533 -1.0229
15417TIP3   OH267665   4.834   0.555  15.926  0.2668  0.4543 -0.5685
15417TIP3    H167666   4.812   0.577  15.836  0.6312 -2.7902 -1.5902
15417TIP3    H267667   4.806   0.464  15.936  0.2950  0.6670  2.6083
15418TIP3   OH267668   5.802   3.355   2.632 -1.0725  0.3168 -0.4522
15418TIP3    H167669   5.735   3.339   2.698  0.7519 -1.0373  1.1812
15418TIP3    H267670   5.873   3.400   2.679  0.7034 -1.5757 -1.1591
15419TIP3   OH267671   4.076   0.896   3.662 -0.4200 -0.3792 -0.1815
15419TIP3    H167672   3.997   0.919   3.613 -0.4816 -0.9994 -0.3844
15419TIP3    H267673   4.043   0.850   3.739 -0.3663  1.2193  0.8363
15420TIP3   OH267674   2.875   3.979   0.780  0.0807  0.0658 -0.0689
15420TIP3    H167675   2.816   3.908   0.757 -0.8705  0.8615 -0.1641
15420TIP3    H267676   2.835   4.020   0.857  0.9982  0.0600  0.4317
15421TIP3   OH267677   1.858   6.512  13.850 -0.3459 -0.0006  0.0065
15421TIP3    H167678   1.840   6.447  13.781  0.1919 -0.2244  0.0729
15421TIP3    H267679   1.943   6.549  13.826 -1.1390  1.4927 -0.6560
15422TIP3   OH267680   3.029   1.289  16.647 -0.0835  0.6432 -0.2467
15422TIP3    H167681   3.005   1.197  16.641 -2.5998  1.2229 -0.0933
15422TIP3    H267682   3.094   1.293  16.717 -0.1897 -0.9634 -0.0289
15423TIP3   OH267683   3.233   2.060   1.807 -0.0546 -0.0704 -0.2560
15423TIP3    H167684   3.163   2.121   1.828 -0.1164 -0.8332  2.1530
15423TIP3    H267685   3.215   1.984   1.863  2.7561 -0.2076  0.6260
15424TIP3   OH267686   5.532   3.907   1.555 -0.0693  0.4582 -0.0099
15424TIP3    H167687   5.599   3.863   1.503 -0.1812  1.5115 -1.0784
15424TIP3    H267688   5.574   3.921   1.640 -0.3155 -2.4359  0.6959
15425TIP3   OH267689   5.081   1.636   0.080 -0.5436 -0.3991 -0.0446
15425TIP3    H167690   5.061   1.590  -0.001 -0.2039 -1.0734  0.2464
15425TIP3    H267691   5.177   1.639   0.083 -0.3775  3.7925 -2.0015
15426TIP3   OH267692   5.937   0.152  14.493 -0.0987  0.0199  0.5544
15426TIP3    H167693   5.988   0.071  14.486 -0.0837  0.0544  0.2778
15426TIP3    H267694   6.002   0.222  14.491 -0.1962  0.0876 -0.3524
15427TIP3   OH267695   2.909   3.649  16.202  0.5347 -0.2222  0.5517
15427TIP3    H167696   2.968   3.723  16.218 -0.5720  1.1259 -1.2258
15427TIP3    H267697   2.853   3.678  16.130 -1.1776 -2.1052  1.0271
15428TIP3   OH267698   0.503   5.809  12.325  0.1072  0.3037 -0.7397
15428TIP3    H167699   0.557   5.740  12.364  0.1949 -0.3658 -1.9738
15428TIP3    H267700   0.431   5.762  12.283 -0.6540  1.0849 -0.3386
15429TIP3   OH267701   4.099   5.909   5.236 -0.2891 -0.3338 -0.0619
15429TIP3    H167702   4.096   5.915   5.141  1.6465  1.6617 -0.0800
15429TIP3    H267703   4.015   5.943   5.265 -2.1105 -3.6087 -1.0033
15430TIP3   OH267704   4.061   1.381   5.217  0.0295 -0.3370  0.3149
15430TIP3    H167705   4.081   1.400   5.309 -0.4938  0.3187  0.2963
15430TIP3    H267706   4.034   1.465   5.181  0.9079 -0.4414 -0.6280
15431TIP3   OH267707   5.673   4.522  12.649  0.0301  0.2768  0.1095
15431TIP3    H167708   5.602   4.459  12.661 -0.2056  0.9094  2.6144
15431TIP3    H267709   5.718   4.524  12.734  2.8349  0.2120 -1.2556
15432TIP3   OH267710   2.368   4.469   6.669 -0.1885 -0.6603  0.0573
15432TIP3    H167711   2.409   4.554   6.690  1.0593 -1.3077  0.3503
15432TIP3    H267712   2.277   4.491   6.649  0.2970  0.8629 -0.6739
15433TIP3   OH267713   1.292   1.039  15.921 -0.4343  0.6067  0.1484
15433TIP3    H167714   1.248   0.954  15.920 -1.3453  1.0480  0.9454
15433TIP3    H267715   1.367   1.027  15.864 -0.4352 -0.7954  0.3901
15434TIP3   OH267716   5.567   2.306  12.268 -0.2804 -0.1328 -0.2170
15434TIP3    H167717   5.500   2.374  12.254  1.5417  1.4283 -2.1785
15434TIP3    H267718   5.647   2.344  12.232  1.2027 -2.7654  0.0420
15435TIP3   OH267719   3.973   3.278   6.621  0.0015 -0.4656  0.5436
15435TIP3    H167720   3.988   3.266   6.528  0.6620  0.6492  0.4834
15435TIP3    H267721   4.052   3.323   6.652 -0.0969 -1.0488  1.6880
15436TIP3   OH267722   4.662   0.880  12.011  0.4293  0.5106 -0.4502
15436TIP3    H167723   4.643   0.805  11.954 -0.5876  1.0549 -0.8617
15436TIP3    H267724   4.608   0.864  12.089  1.4769 -0.0048  0.1920
15437TIP3   OH267725   1.620   3.083  14.541 -0.0937 -0.0159  0.4860
15437TIP3    H167726   1.629   2.988  14.546 -0.7032 -0.0452  1.5100
15437TIP3    H267727   1.552   3.097  14.475  0.7778 -0.2210 -0.4794
15438TIP3   OH267728   1.186   6.251   2.167 -0.0901  0.0559 -0.2390
15438TIP3    H167729   1.090   6.249   2.173 -0.0681  0.8650  0.6081
15438TIP3    H267730   1.211   6.159   2.158 -0.8734 -0.3088  1.0392
15439TIP3   OH267731   2.081   6.171   5.761 -0.6782  0.2286  0.3544
15439TIP3    H167732   2.028   6.220   5.824 -0.0085  0.9516  0.3722
15439TIP3    H267733   2.156   6.228   5.744  0.3900 -1.0081  0.7676
15440TIP3   OH267734   6.642   6.486   4.379 -0.4359  0.2003 -0.2434
15440TIP3    H167735   6.716   6.483   4.439  0.7756  0.7104 -1.6567
15440TIP3    H267736   6.565   6.476   4.435  0.7423 -3.4730  0.9930
15441TIP3   OH267737   2.031   1.303   2.993 -0.0451  0.1979  1.0579
15441TIP3    H167738   1.975   1.373   2.959  1.6665  1.9692  1.7077
15441TIP3    H267739   2.116   1.320   2.953  0.3021 -1.8524  0.8543
15442TIP3   OH267740   4.690   5.604   2.901  0.0511 -0.0671  0.1137
15442TIP3    H167741   4.718   5.634   2.814 -1.3592  3.0257  0.6120
15442TIP3    H267742   4.766   5.619   2.957  0.6986 -1.3357 -0.3710
15443TIP3   OH267743   3.482   2.968  13.304 -0.3905 -0.4229 -0.0166
15443TIP3    H167744   3.462   3.061  13.296 -1.1735 -0.5457  0.4258
15443TIP3    H267745   3.398   2.927  13.322 -0.4745 -1.5090 -2.4616
15444TIP3   OH267746   1.991   0.842   1.416 -0.1276  0.8825 -0.2115
15444TIP3    H167747   1.917   0.822   1.359  0.5369 -1.3153 -0.3788
15444TIP3    H267748   1.964   0.811   1.502  0.6342 -0.0455 -0.2988
15445TIP3   OH267749   6.622   5.878  14.507  0.3254 -0.1795  0.2177
15445TIP3    H167750   6.533   5.862  14.473  0.6571 -1.4062 -0.1438
15445TIP3    H267751   6.635   5.972  14.496 -0.3032 -0.2359 -1.3189
15446TIP3   OH267752   0.434   4.948   3.257 -0.3806  0.3709 -0.1021
15446TIP3    H167753   0.468   4.975   3.342 -0.2361 -0.8275  0.2355
15446TIP3    H267754   0.353   4.997   3.247 -0.6148  0.1982  0.9153
15447TIP3   OH267755   1.612   4.961  13.356 -0.3845 -0.1252 -1.3743
15447TIP3    H167756   1.531   4.993  13.317 -0.8829  0.9707  0.4283
15447TIP3    H267757   1.615   5.004  13.442  2.3054  0.1592 -1.5470
15448TIP3   OH267758   0.006   1.106  16.777 -0.1236  0.2535 -0.1685
15448TIP3    H167759  -0.033   1.187  16.809 -0.2880 -0.0715  0.4704
15448TIP3    H267760  -0.046   1.083  16.700  0.3835  1.1313 -0.7990
15449TIP3   OH267761   0.373   6.421   0.289 -0.0433 -0.4059 -0.2042
15449TIP3    H167762   0.383   6.441   0.196  0.6638 -0.6413 -0.1841
15449TIP3    H267763   0.386   6.504   0.334  1.8438 -0.6697 -0.1858
15450TIP3   OH267764   6.183   4.907  14.306  0.0377 -0.0730 -0.1037
15450TIP3    H167765   6.152   4.959  14.380 -1.0642  0.3085 -0.8067
15450TIP3    H267766   6.121   4.834  14.300  0.5381 -0.4978 -0.2174
15451TIP3   OH267767   4.911   4.187   6.279 -0.0092  0.0415  0.2932
15451TIP3    H167768   4.824   4.184   6.239  0.2953  0.3295 -0.4212
15451TIP3    H267769   4.911   4.268   6.330 -0.7677 -0.8591  1.7800
15452TIP3   OH267770   2.716   2.644   1.884 -0.8068  0.4817 -0.0387
15452TIP3    H167771   2.745   2.729   1.916  0.1227 -0.6025  2.2223
15452TIP3    H267772   2.753   2.637   1.796 -2.6749  3.2146 -1.1656
15453TIP3   OH267773   6.021   5.618  16.023 -0.1667  0.7599  0.4626
15453TIP3    H167774   6.000   5.710  16.009  1.7148  1.6623  2.8702
15453TIP3    H267775   5.983   5.597  16.108  0.4617 -0.3229  0.4954
15454TIP3   OH267776   0.196   3.557   4.867  0.4430  0.6481 -0.0439
15454TIP3    H167777   0.128   3.625   4.863  0.6722  0.8502 -0.4317
15454TIP3    H267778   0.207   3.541   4.961  0.1893  0.9445  0.0384
15455TIP3   OH267779   1.842   6.423   2.493 -0.4562 -0.6556 -1.2461
15455TIP3    H167780   1.892   6.458   2.567  0.7324 -3.0150 -0.8469
15455TIP3    H267781   1.821   6.333   2.518 -0.4220 -1.3839 -3.5698
15456TIP3   OH267782   2.941   0.826  13.241  0.6374  0.5624 -0.9117
15456TIP3    H167783   2.905   0.776  13.169 -0.0538 -1.8431  0.9746
15456TIP3    H267784   3.022   0.780  13.265 -0.2839 -0.0769  1.2157
15457TIP3   OH267785   3.395   0.898  15.946  0.3683  0.1527 -0.4383
15457TIP3    H167786   3.474   0.931  15.903  0.5591  0.8132  0.4052
15457TIP3    H267787   3.323   0.929  15.891  0.6818 -0.9175 -1.5298
15458TIP3   OH267788   6.429   1.209   3.379 -0.1617 -0.4166  0.0411
15458TIP3    H167789   6.395   1.279   3.324  0.1268 -0.5260 -0.2817
15458TIP3    H267790   6.410   1.237   3.468 -0.6543 -0.2462 -0.1122
15459TIP3   OH267791   2.649   3.491   3.701 -0.2398 -0.0146  0.2336
15459TIP3    H167792   2.607   3.493   3.615  0.7003 -1.3704 -0.2829
15459TIP3    H267793   2.743   3.487   3.682 -0.0764 -2.1277  1.2623
15460TIP3   OH267794   0.466   5.276  14.426  0.2148 -0.3605  0.5393
15460TIP3    H167795   0.482   5.301  14.335 -0.4575 -2.6018 -0.2669
15460TIP3    H267796   0.371   5.287  14.437  0.6808  3.5696  2.2624
15461TIP3   OH267797   0.449   6.715  14.755  0.1545  0.4096 -0.3181
15461TIP3    H167798   0.496   6.658  14.694 -2.9929 -0.2357 -2.4259
15461TIP3    H267799   0.460   6.674  14.841  1.3640 -1.0208 -1.1134
15462TIP3   OH267800   3.111   4.329  16.817 -0.1386 -0.1586  0.0731
15462TIP3    H167801   3.041   4.264  16.808  1.0686 -1.3178 -1.5726
15462TIP3    H267802   3.114   4.373  16.732  0.0582  1.0425  0.6767
15463TIP3   OH267803   4.348   0.989   4.185 -0.0337 -0.6828  0.4363
15463TIP3    H167804   4.392   0.907   4.160  0.3192 -0.1138 -0.9045
15463TIP3    H267805   4.413   1.036   4.237  0.6210 -0.2611 -0.7362
15464TIP3   OH267806   6.367   6.233  16.461 -0.2416 -0.2945  0.0751
15464TIP3    H167807   6.275   6.252  16.444 -0.2054 -0.8342 -0.7809
15464TIP3    H267808   6.367   6.144  16.495  0.0952 -0.9539 -1.5619
15465TIP3   OH267809   0.913   3.130   0.869  0.0642 -0.0998  0.4893
15465TIP3    H167810   0.934   3.082   0.949 -0.2245 -0.5173  0.3145
15465TIP3    H267811   0.997   3.166   0.840  0.2826 -0.5123  0.6110
15466TIP3   OH267812   6.492   1.779   3.474  0.0514 -0.2884 -0.7917
15466TIP3    H167813   6.551   1.708   3.499 -1.8604 -2.0125 -0.8932
15466TIP3    H267814   6.539   1.859   3.497  1.3946 -1.6271  1.4506
15467TIP3   OH267815   5.741   2.776  13.412  0.3371 -0.8380  0.4918
15467TIP3    H167816   5.774   2.686  13.414  3.3533  0.1257  0.0699
15467TIP3    H267817   5.705   2.786  13.324  1.8025 -1.1257 -0.1793
15468TIP3   OH267818   5.880   1.299   3.066  0.0977 -0.8587 -0.2343
15468TIP3    H167819   5.889   1.309   3.161 -1.4672  0.3483 -0.1701
15468TIP3    H267820   5.884   1.205   3.052 -0.6283 -1.1278  1.1613
15469TIP3   OH267821   3.600   3.147  17.100  0.1374 -0.3416  0.1794
15469TIP3    H167822   3.598   3.139  17.195  1.0960  0.4375  0.2883
15469TIP3    H267823   3.662   3.218  17.084 -0.4958 -0.0388 -1.0051
15470TIP3   OH267824   2.551   5.074  10.684 -0.2312  0.2573 -0.1152
15470TIP3    H167825   2.640   5.051  10.658 -0.2135  0.8555 -0.5855
15470TIP3    H267826   2.561   5.119  10.768 -0.1423 -0.1774  0.1070
15471TIP3   OH267827   4.226   4.550   3.110 -0.4189 -0.2359 -0.4359
15471TIP3    H167828   4.311   4.576   3.074 -0.8998 -0.1716 -1.5549
15471TIP3    H267829   4.249   4.495   3.185  0.6106  0.2576 -0.3680
15472TIP3   OH267830   2.065   1.399   3.878  0.3105  0.6005 -0.3603
15472TIP3    H167831   1.996   1.402   3.812  0.1678  0.5299 -0.2155
15472TIP3    H267832   2.034   1.458   3.947 -0.5452 -0.9057  0.6074
15473TIP3   OH267833   3.600   3.570  13.323 -0.2254 -0.1534  0.3869
15473TIP3    H167834   3.609   3.596  13.231  0.8502  1.8098  0.9798
15473TIP3    H267835   3.689   3.550  13.351 -0.3991  0.2596  1.2651
15474TIP3   OH267836   3.305   5.519   5.357  0.4067  0.1445  0.8251
15474TIP3    H167837   3.285   5.454   5.424  0.8367 -0.6502  0.2025
15474TIP3    H267838   3.395   5.501   5.332 -0.1762 -0.5135 -0.9657
15475TIP3   OH267839   0.616   5.520   4.697 -0.0713 -0.3985  0.4366
15475TIP3    H167840   0.531   5.486   4.670  0.0977 -1.1690  0.8436
15475TIP3    H267841   0.672   5.507   4.620 -0.6879  1.5625 -0.3912
15476TIP3   OH267842   5.696   4.981  11.983 -0.7434 -0.9068  0.1289
15476TIP3    H167843   5.694   4.885  11.980 -0.0047 -0.9228 -0.1435
15476TIP3    H267844   5.715   5.007  11.893 -0.6612 -0.5127  0.2599
15477TIP3   OH267845   4.861   2.850   2.748 -0.1966 -0.2073  0.1155
15477TIP3    H167846   4.862   2.932   2.700  1.4166  0.0225  0.5136
15477TIP3    H267847   4.846   2.876   2.839 -1.0254 -0.4804  0.0725
15478TIP3   OH267848   1.954   1.951   3.836 -0.4091  0.4882 -0.6988
15478TIP3    H167849   2.029   1.893   3.823 -0.7539 -0.0635 -0.2204
15478TIP3    H267850   1.988   2.022   3.890 -0.2196  0.2641 -0.5210
15479TIP3   OH267851   1.007   1.667   1.175 -0.6879  0.9672 -0.1605
15479TIP3    H167852   0.999   1.608   1.250  0.0209  0.5888 -0.3691
15479TIP3    H267853   1.092   1.710   1.187  0.7383 -1.0631 -2.0806
15480TIP3   OH267854   5.549   2.161  17.060  0.5966 -0.3194  0.3491
15480TIP3    H167855   5.578   2.192  16.974  0.9002 -0.8548  0.2560
15480TIP3    H267856   5.539   2.241  17.112 -1.4890  0.1901 -0.7438
15481TIP3   OH267857   6.338   4.901   2.414 -0.8985 -0.8362 -0.1197
15481TIP3    H167858   6.411   4.864   2.464 -0.0712  2.7173  1.6376
15481TIP3    H267859   6.379   4.937   2.335 -1.0668 -0.4920 -0.0507
15482TIP3   OH267860   1.480   2.424  12.441  0.1182  0.2678  0.6112
15482TIP3    H167861   1.526   2.464  12.367 -1.3380  0.3860 -0.2697
15482TIP3    H267862   1.548   2.375  12.487  0.7451 -1.4862 -1.9451
15483TIP3   OH267863   3.110   0.723   3.551 -0.1127  0.1046  0.2059
15483TIP3    H167864   3.169   0.652   3.527 -1.1478 -1.1646  1.2647
15483TIP3    H267865   3.053   0.734   3.475  1.0874  0.9632 -0.6063
15484TIP3   OH267866   3.249   3.456   4.992  0.1400 -0.1783 -0.4869
15484TIP3    H167867   3.173   3.474   5.048  0.5987 -0.4839  0.2379
15484TIP3    H267868   3.313   3.417   5.050  1.2037  0.8950 -0.8910
15485TIP3   OH267869   6.056   1.514  13.189  0.0367 -0.0916 -0.0775
15485TIP3    H167870   6.080   1.561  13.109  0.8821  0.1693  0.3230
15485TIP3    H267871   6.117   1.546  13.255  0.8312 -1.9405  0.1520
15486TIP3   OH267872   1.408   2.625  14.685  0.9970 -0.6606  0.0302
15486TIP3    H167873   1.380   2.711  14.717  0.9801 -0.8847  0.6281
15486TIP3    H267874   1.444   2.581  14.762 -1.2442 -2.1295  0.3591
15487TIP3   OH267875   2.101   1.525  12.468  0.0984 -0.3035  0.4434
15487TIP3    H167876   2.067   1.449  12.422 -0.4248 -1.2774  2.3617
15487TIP3    H267877   2.160   1.490  12.535 -0.1221  0.9639  1.3504
15488TIP3   OH267878   0.517   2.050  13.324 -0.2627  0.0146  0.1647
15488TIP3    H167879   0.438   2.104  13.322  0.0702  0.5607  1.2122
15488TIP3    H267880   0.489   1.966  13.286 -1.1924  0.3916 -0.0168
15489TIP3   OH267881   5.208   1.095  17.271 -0.1132 -0.2799 -0.1925
15489TIP3    H167882   5.195   1.044  17.192 -0.7620 -0.7343  0.1961
15489TIP3    H267883   5.121   1.129  17.293 -0.1010 -0.7856  0.7285
15490TIP3   OH267884   0.431   5.776  16.348 -0.3830 -0.1329  0.2236
15490TIP3    H167885   0.486   5.697  16.342 -1.0419 -0.5013 -2.1285
15490TIP3    H267886   0.342   5.743  16.338 -0.5528  1.0128 -3.3739
15491TIP3   OH267887   0.539   3.868  14.845 -0.2372 -0.2497 -0.3992
15491TIP3    H167888   0.606   3.799  14.849 -0.2735 -0.3839 -1.6878
15491TIP3    H267889   0.463   3.825  14.807 -1.6116 -0.4738  2.3652
15492TIP3   OH267890   1.279   1.103  15.501 -0.4238  0.1263 -0.7711
15492TIP3    H167891   1.328   1.040  15.554 -2.0813  0.2695  1.0026
15492TIP3    H267892   1.334   1.181  15.500 -0.7990  0.4951  1.6961
15493TIP3   OH267893   5.266   3.681  11.075  0.4035  0.6065  0.2194
15493TIP3    H167894   5.302   3.728  10.999  1.3636 -0.2378  0.1196
15493TIP3    H267895   5.212   3.612  11.036  0.4901  0.4862  0.3113
15494TIP3   OH267896   0.193   2.793  16.955 -0.0589  0.2992  0.0282
15494TIP3    H167897   0.244   2.791  16.874 -2.4431  0.4859 -1.5685
15494TIP3    H267898   0.223   2.873  16.999  0.4690  0.8452 -1.2534
15495TIP3   OH267899   4.179   1.506  17.194 -0.1689 -0.3369 -0.1060
15495TIP3    H167900   4.162   1.553  17.275 -1.7061 -1.3171  0.1850
15495TIP3    H267901   4.226   1.427  17.221 -0.3484 -0.4801 -0.2101
15496TIP3   OH267902   3.949   0.127   0.696 -0.9333 -0.1508 -0.8915
15496TIP3    H167903   4.011   0.109   0.766  0.4925 -1.6565 -2.4489
15496TIP3    H267904   3.878   0.064   0.708 -0.6170 -0.5044 -0.8743
15497TIP3   OH267905   3.856   4.271  15.869  0.0759 -0.1251 -0.6950
15497TIP3    H167906   3.913   4.203  15.832  0.0073 -0.1498 -0.7553
15497TIP3    H267907   3.909   4.312  15.937 -0.3090 -1.0355  0.1818
15498TIP3   OH267908   0.816   5.830  12.547 -0.3972 -0.8283 -0.2408
15498TIP3    H167909   0.892   5.854  12.494 -0.8292  0.1451 -0.4427
15498TIP3    H267910   0.831   5.738  12.569  0.1912 -1.0256 -1.3633
15499TIP3   OH267911   1.411   4.488  12.708  0.1796  0.1994  0.5290
15499TIP3    H167912   1.479   4.445  12.657 -1.0171 -0.5081 -0.5193
15499TIP3    H267913   1.416   4.448  12.795 -0.9037 -2.1278 -0.4093
15500TIP3   OH267914   4.945   3.461   4.281 -0.3240  0.1268  0.0329
15500TIP3    H167915   4.921   3.369   4.293  0.1129 -0.3604 -2.2351
15500TIP3    H267916   4.862   3.509   4.289 -0.2571 -0.1072  3.4632
15501TIP3   OH267917   2.846   6.430  14.711  0.2861  0.2338  0.0825
15501TIP3    H167918   2.765   6.381  14.726  1.0893 -1.7732 -1.5152
15501TIP3    H267919   2.901   6.411  14.787 -0.0645  0.0839  0.2969
15502TIP3   OH267920   2.427   6.560  12.082  0.9667  0.1438 -0.4857
15502TIP3    H167921   2.384   6.586  12.163 -1.1054 -1.2612 -1.0340
15502TIP3    H267922   2.498   6.622  12.071 -0.1749  1.8498  1.1588
15503TIP3   OH267923   4.071   3.088   2.551  0.1394  0.4763 -0.5588
15503TIP3    H167924   4.039   3.172   2.582 -0.9816 -0.0692 -0.2043
15503TIP3    H267925   4.002   3.055   2.494  0.2266 -0.5541 -0.0850
15504TIP3   OH267926   0.739   3.869   5.616 -0.7020 -0.2502  0.3131
15504TIP3    H167927   0.690   3.787   5.610 -1.7877  0.3707  0.3411
15504TIP3    H267928   0.753   3.882   5.710 -1.2202 -0.0352  0.3698
15505TIP3   OH267929   2.354   2.457   2.118  0.0698  0.8879  0.0233
15505TIP3    H167930   2.419   2.432   2.184  1.1818  2.7535 -0.3091
15505TIP3    H267931   2.279   2.399   2.135  1.5462 -0.8603  0.8369
15506TIP3   OH267932   1.755   2.604   4.943  0.4284 -0.1865  0.1436
15506TIP3    H167933   1.838   2.599   4.896  0.9444  0.1477  0.9870
15506TIP3    H267934   1.693   2.555   4.888  1.7120 -2.5243  0.6226
15507TIP3   OH267935   5.360   5.090   3.163 -0.0013  0.1942 -0.0566
15507TIP3    H167936   5.384   5.075   3.255  0.3686  0.3965 -0.1186
15507TIP3    H267937   5.282   5.145   3.167 -0.4526 -0.4535  0.1499
15508TIP3   OH267938   3.574   0.718   2.050 -0.2384 -0.2255 -0.1523
15508TIP3    H167939   3.620   0.696   2.131  0.3358 -0.0874 -0.4376
15508TIP3    H267940   3.637   0.700   1.981  0.2250  2.0894 -0.4332
15509TIP3   OH267941   1.026   2.898  17.401 -0.8323  0.0592 -0.1712
15509TIP3    H167942   1.089   2.936  17.462 -1.9839 -0.6411  1.5241
15509TIP3    H267943   0.951   2.957  17.404 -1.7197 -1.0667  0.7373
15510TIP3   OH267944   5.292   5.402  16.320  0.1833  0.9815  0.2107
15510TIP3    H167945   5.336   5.368  16.242 -0.8080  0.4400 -0.1275
15510TIP3    H267946   5.359   5.399  16.388  0.6893  0.2200 -0.3031
15511TIP3   OH267947   6.057   4.400   2.960 -0.3999 -0.3791  0.2958
15511TIP3    H167948   5.993   4.459   2.921  0.4658  0.0075 -0.5896
15511TIP3    H267949   6.038   4.401   3.054  0.5318  2.5411  0.5476
15512TIP3   OH267950   2.681   4.909   5.659 -0.0172  0.0173 -0.9489
15512TIP3    H167951   2.644   4.825   5.686  1.0548 -0.0330  0.4881
15512TIP3    H267952   2.768   4.886   5.623  0.6359  0.5690  0.2464
15513TIP3   OH267953   1.240   5.915  16.843 -0.7611  0.5234 -0.2975
15513TIP3    H167954   1.285   5.856  16.783  0.2443  0.8987  0.0540
15513TIP3    H267955   1.149   5.886  16.843 -0.1267 -1.6848  0.6455
15514TIP3   OH267956   2.973   4.128  17.055  0.2617 -0.2488  0.2868
15514TIP3    H167957   2.934   4.182  17.125  1.0477 -1.0037  1.3203
15514TIP3    H267958   2.913   4.141  16.980  0.4788  2.1599  0.4272
15515TIP3   OH267959   5.496   1.571   5.111 -0.4044 -0.2368 -0.2633
15515TIP3    H167960   5.453   1.488   5.129  0.1300 -0.2609  0.9982
15515TIP3    H267961   5.566   1.549   5.049  1.3596 -1.2394  1.9374
15516TIP3   OH267962   3.206   4.844  12.430 -0.0597  0.1034 -0.0909
15516TIP3    H167963   3.156   4.776  12.386  0.1248 -0.5992  0.7498
15516TIP3    H267964   3.142   4.911  12.452 -0.1548  0.4751 -1.4084
15517TIP3   OH267965   2.106   2.562  15.839 -0.5017  0.3388 -0.0582
15517TIP3    H167966   2.017   2.577  15.807 -0.2243 -1.7047 -2.0861
15517TIP3    H267967   2.132   2.479  15.800  2.6529  1.3048 -0.3435
15518TIP3   OH267968   5.290   1.244  11.221  0.0142 -0.2063  0.2706
15518TIP3    H167969   5.341   1.319  11.190 -0.6164  0.1520  0.0803
15518TIP3    H267970   5.326   1.225  11.307 -0.0582  0.5612  0.4855
15519TIP3   OH267971   3.384   5.967  15.386 -0.2412  0.1518 -0.0757
15519TIP3    H167972   3.464   5.949  15.336  0.7587  1.8274  0.8339
15519TIP3    H267973   3.334   5.885  15.382  1.6170 -1.0134 -0.4599
15520TIP3   OH267974   4.467   5.333   0.261  0.0925 -0.2822  0.3452
15520TIP3    H167975   4.490   5.395   0.330  0.6552  2.3551 -1.9880
15520TIP3    H267976   4.545   5.329   0.206 -1.3649  0.4378 -1.9365
15521TIP3   OH267977   0.379   4.436  16.913  0.4749 -0.3982  0.5060
15521TIP3    H167978   0.292   4.476  16.921 -0.9881 -3.4426  1.2996
15521TIP3    H267979   0.405   4.455  16.822 -1.2256  0.1917  0.0967
15522TIP3   OH267980   6.135   0.407  15.669  0.2015  0.2178  0.0617
15522TIP3    H167981   6.229   0.401  15.688  0.9202  3.7861 -1.6144
15522TIP3    H267982   6.094   0.410  15.755  1.2530 -3.6858  0.8941
15523TIP3   OH267983   0.458   4.499  16.062  0.1834  0.0355 -0.3037
15523TIP3    H167984   0.437   4.559  16.134 -0.2124  0.1429 -0.5028
15523TIP3    H267985   0.538   4.455  16.090  0.1396  0.2168  0.1187
15524TIP3   OH267986   6.510   0.496   0.708  0.5069 -0.3025  0.5224
15524TIP3    H167987   6.419   0.468   0.711  0.2540  0.5603  1.3018
15524TIP3    H267988   6.507   0.591   0.705  1.3683 -0.2895 -1.2751
15525TIP3   OH267989   1.531   3.547   2.578 -0.3247 -0.8365 -0.0968
15525TIP3    H167990   1.552   3.483   2.646 -0.0248 -0.8448 -0.1959
15525TIP3    H267991   1.600   3.535   2.512  0.2829  0.2495  0.3247
15526TIP3   OH267992   6.558   3.803  12.452  0.2046  0.1473  0.2562
15526TIP3    H167993   6.565   3.711  12.427  1.0563 -0.0260  1.0440
15526TIP3    H267994   6.535   3.848  12.371 -0.6946 -0.8078 -0.0469
15527TIP3   OH267995   5.432   1.090  14.684  0.5187 -0.1132  0.0294
15527TIP3    H167996   5.342   1.079  14.655 -0.4439  2.4061  1.7522
15527TIP3    H267997   5.451   1.183  14.669  3.7633 -0.9838 -2.6048
15528TIP3   OH267998   4.355   4.293  12.804  1.2102  0.1749  0.0030
15528TIP3    H167999   4.329   4.348  12.878  0.0773 -0.4071  0.0511
15528TIP3    H268000   4.448   4.276  12.819  1.3842  1.4247  0.4035
15529TIP3   OH268001   5.567   5.032   2.454  0.2210  0.6480 -0.2799
15529TIP3    H168002   5.558   4.944   2.490 -1.6067  0.9542  0.0800
15529TIP3    H268003   5.483   5.050   2.413  0.6658  2.1455 -0.5843
15530TIP3   OH268004   2.157   0.409  13.537 -0.0006  0.4303  0.4750
15530TIP3    H168005   2.178   0.381  13.448 -1.2634 -0.7941  0.5074
15530TIP3    H268006   2.237   0.450  13.570  1.1337 -0.8805 -0.5362
15531TIP3   OH268007   3.199   4.353  13.868  0.9173 -0.0942  0.3906
15531TIP3    H168008   3.124   4.299  13.891  1.0624 -0.3609  0.2350
15531TIP3    H268009   3.268   4.326  13.927  0.7459  0.5038  0.8749
15532TIP3   OH268010   2.024   1.822   4.165 -0.2514  0.4269 -0.3480
15532TIP3    H168011   2.091   1.812   4.097  0.9986 -3.1152  1.1874
15532TIP3    H268012   2.045   1.906   4.206  3.0360 -0.2746 -0.2820
15533TIP3   OH268013   6.285   0.885  16.617 -0.1208 -0.1157 -0.3374
15533TIP3    H168014   6.218   0.952  16.607 -2.1738 -2.2402 -1.8737
15533TIP3    H268015   6.261   0.838  16.697 -0.2778 -0.6476 -0.6896
15534TIP3   OH268016   6.221   1.382  12.636 -0.8083  0.0607 -0.7263
15534TIP3    H168017   6.254   1.471  12.650 -2.2164  0.8991 -2.2638
15534TIP3    H268018   6.295   1.325  12.654  0.3820  1.6128 -0.5385
15535TIP3   OH268019   3.024   5.060   2.415 -0.7842 -0.4468 -0.1010
15535TIP3    H168020   2.960   5.120   2.452 -0.9851 -0.7239  0.0083
15535TIP3    H268021   3.064   5.017   2.491 -0.9916 -0.8051 -0.1886
15536TIP3   OH268022   2.590   3.588  16.321  0.0923 -0.0942  0.0265
15536TIP3    H168023   2.595   3.628  16.408 -0.9702  0.0619  0.0271
15536TIP3    H268024   2.610   3.495  16.336 -0.9437 -0.2416  0.5916
15537TIP3   OH268025   6.567   1.279   1.317  0.1282 -0.1222  0.0194
15537TIP3    H168026   6.580   1.370   1.291 -2.4730  0.4025  0.3410
15537TIP3    H268027   6.629   1.266   1.389 -1.1756  2.2503  1.7191
15538TIP3   OH268028   4.249   0.559   0.868  0.7604 -0.1438  0.4185
15538TIP3    H168029   4.272   0.649   0.892  0.1754 -0.5061  2.5250
15538TIP3    H268030   4.276   0.551   0.777 -0.4102  2.5953 -0.2577
15539TIP3   OH268031   2.109   2.214   0.170 -0.5824 -0.4370 -0.0673
15539TIP3    H168032   2.027   2.250   0.138  0.6224  2.2386 -0.4005
15539TIP3    H268033   2.177   2.260   0.120  1.2659  0.9042  3.3303
15540TIP3   OH268034   4.859   4.261   2.828 -0.2080 -0.9234  0.2970
15540TIP3    H168035   4.787   4.295   2.881  0.1433  0.9182 -0.3037
15540TIP3    H268036   4.818   4.236   2.745 -0.3356 -0.9564  0.3710
15541TIP3   OH268037   1.480   0.662   0.235 -0.2823  0.5806  0.2077
15541TIP3    H168038   1.387   0.679   0.251 -0.6494  0.1461 -1.2826
15541TIP3    H268039   1.482   0.575   0.194  0.7989  0.5181  0.3629
15542TIP3   OH268040   3.621   5.964  12.306 -0.4568 -0.0377 -0.2119
15542TIP3    H168041   3.528   5.947  12.297 -0.6280  0.6780  0.1464
15542TIP3    H268042   3.663   5.902  12.247 -1.2190  0.4129 -1.2434
15543TIP3   OH268043   2.081   4.713  15.722  0.2552 -0.4008 -0.0502
15543TIP3    H168044   2.001   4.723  15.670  0.8320 -0.8768 -1.0705
15543TIP3    H268045   2.113   4.625  15.700  1.1241 -0.1678  0.2495
15544TIP3   OH268046   2.287   6.013   1.502  0.4493 -0.4217  0.2682
15544TIP3    H168047   2.347   5.945   1.531  2.3073  0.8278 -0.4486
15544TIP3    H268048   2.224   5.968   1.446  1.0560 -1.6819  0.5712
15545TIP3   OH268049   2.789   1.593  15.792 -0.4768  0.0821 -0.2768
15545TIP3    H168050   2.763   1.524  15.730 -2.3419  0.1870  0.3479
15545TIP3    H268051   2.845   1.651  15.740  0.5804 -1.4933 -0.9988
15546TIP3   OH268052   1.284   6.237   0.563 -0.4170  0.3309 -0.3115
15546TIP3    H168053   1.290   6.332   0.554 -0.0668  0.5409  1.8270
15546TIP3    H268054   1.369   6.210   0.597 -0.1611 -0.9105 -1.8173
15547TIP3   OH268055   3.436   3.776   1.643 -0.3858 -0.8541  0.7412
15547TIP3    H168056   3.508   3.814   1.593 -1.0618 -0.5263 -0.0158
15547TIP3    H268057   3.380   3.851   1.665 -1.2606 -1.2777  0.0249
15548TIP3   OH268058   4.036   4.825  12.834 -0.0604  0.2121  0.2999
15548TIP3    H168059   3.977   4.751  12.851  1.0900 -0.7870  0.1390
15548TIP3    H268060   4.003   4.865  12.754  1.1566 -2.1846 -1.5197
15549TIP3   OH268061   0.383   3.454  12.915  0.0965 -0.6354 -0.1572
15549TIP3    H168062   0.415   3.429  12.828  0.5157 -1.1162  0.1247
15549TIP3    H268063   0.287   3.455  12.906  0.0213 -2.7210 -0.1232
15550TIP3   OH268064   5.106   3.251  16.532  0.3083 -0.9782  0.4383
15550TIP3    H168065   5.027   3.256  16.585  0.7325  0.8732  0.9698
15550TIP3    H268066   5.083   3.194  16.458 -1.8333  0.2604  0.0880
15551TIP3   OH268067   4.702   1.677   2.996  0.0859 -0.2142  0.0794
15551TIP3    H168068   4.765   1.750   2.994 -0.4315  0.2865  1.0865
15551TIP3    H268069   4.740   1.611   2.938  1.5164  0.0881  0.6327
15552TIP3   OH268070   1.773   0.146   0.157 -0.2766  0.2212 -0.5837
15552TIP3    H168071   1.802   0.234   0.131 -1.1354  0.6717 -0.0520
15552TIP3    H268072   1.680   0.157   0.179 -0.4001 -0.8309 -0.5498
15553TIP3   OH268073   6.563   5.336  16.992  0.4930  0.0291  0.4098
15553TIP3    H168074   6.490   5.377  17.039 -0.9433 -0.1000 -1.5658
15553TIP3    H268075   6.541   5.243  16.990  1.0229 -0.0958  0.3058
15554TIP3   OH268076   0.383   1.979   4.140 -0.4528  0.1426  0.3069
15554TIP3    H168077   0.293   2.008   4.132 -0.8258 -1.1154 -0.3686
15554TIP3    H268078   0.384   1.928   4.222 -1.1956 -2.4919 -1.1812
15555TIP3   OH268079   3.522   4.288   4.343  0.1542 -0.2551  0.7198
15555TIP3    H168080   3.555   4.292   4.253  2.5140  0.8866  1.5395
15555TIP3    H268081   3.542   4.199   4.371  1.5563  0.0613  0.8047
15556TIP3   OH268082   4.934   4.520   0.044  0.4600 -0.0227 -0.8248
15556TIP3    H168083   4.928   4.471  -0.038  0.0973 -2.6023  0.6662
15556TIP3    H268084   4.961   4.456   0.109 -0.8015  1.5907  1.4303
15557TIP3   OH268085   5.153   3.681   0.580 -0.2367 -0.3506 -0.2423
15557TIP3    H168086   5.169   3.752   0.642 -1.6197 -1.3961  1.4276
15557TIP3    H268087   5.073   3.706   0.534 -0.1633 -0.3545 -0.3715
15558TIP3   OH268088   5.828   4.229   0.241  0.6747  0.0204 -0.1835
15558TIP3    H168089   5.786   4.216   0.156  0.1748  0.8009 -0.0754
15558TIP3    H268090   5.897   4.294   0.223  1.2495 -0.5874 -0.1874
15559TIP3   OH268091   3.849   1.508  16.427 -0.5608 -0.4230  0.6238
15559TIP3    H168092   3.847   1.511  16.522  0.4680  1.3664  0.6466
15559TIP3    H268093   3.942   1.500  16.405 -0.5897  0.9716 -0.1860
15560TIP3   OH268094   0.021   5.440  12.693 -0.1385  0.2049 -0.0945
15560TIP3    H168095  -0.004   5.393  12.614 -0.6158  1.5747 -0.7916
15560TIP3    H268096   0.033   5.531  12.665 -1.4779  0.9733  1.6028
15561TIP3   OH268097   5.481   5.451  16.759  0.0857  0.0076  0.3291
15561TIP3    H168098   5.547   5.505  16.717 -1.5051  1.1118 -0.8578
15561TIP3    H268099   5.437   5.406  16.687 -2.1175  1.2680  0.7825
15562TIP3   OH268100   6.689   3.239   3.140 -0.2585 -0.7657 -0.5289
15562TIP3    H168101   6.720   3.225   3.051  0.7249 -0.1560 -0.2920
15562TIP3    H268102   6.599   3.271   3.129  0.1982  0.2932 -1.3459
15563TIP3   OH268103   2.586   2.808   5.111  0.0625 -0.5846 -0.1496
15563TIP3    H168104   2.537   2.726   5.101 -0.2962 -0.1861 -1.8790
15563TIP3    H268105   2.678   2.781   5.107 -0.0541 -0.8999 -0.9621
15564TIP3   OH268106   5.785   5.317  10.848  0.1160 -0.5948 -0.2874
15564TIP3    H168107   5.827   5.248  10.797  1.5889  0.5521 -0.7049
15564TIP3    H268108   5.761   5.275  10.930 -1.2786 -2.1987 -1.4276
15565TIP3   OH268109   1.927   0.348   3.149  0.2713 -0.3487  0.2701
15565TIP3    H168110   1.916   0.441   3.127  4.2460  0.7627  2.0882
15565TIP3    H268111   1.869   0.333   3.223 -0.7807  0.5131 -0.3544
15566TIP3   OH268112   5.413   5.547   1.543 -0.2566  0.4163  0.2619
15566TIP3    H168113   5.447   5.476   1.597  0.1026 -2.2880 -3.1393
15566TIP3    H268114   5.491   5.595   1.513 -0.1239 -0.2981 -0.5774
15567TIP3   OH268115   4.177   1.679  13.493  0.1172 -0.1541  0.4811
15567TIP3    H168116   4.160   1.600  13.441 -1.2602 -0.4658  1.3437
15567TIP3    H268117   4.246   1.653  13.553  1.4538  0.0921 -0.8897
15568TIP3   OH268118   6.234   3.268  15.568 -0.3299 -0.7220  0.0525
15568TIP3    H168119   6.187   3.352  15.570 -0.4167 -0.7764  0.5309
15568TIP3    H268120   6.258   3.253  15.660  1.6107 -0.1386 -0.3165
15569TIP3   OH268121   3.296   2.812  13.053 -0.0415 -0.1135 -0.2549
15569TIP3    H168122   3.270   2.721  13.036  0.6065 -0.2370 -0.6318
15569TIP3    H268123   3.214   2.858  13.071 -0.2778 -1.0194  1.1374
15570TIP3   OH268124   5.799   1.847   0.544  0.4105 -0.4864  0.2895
15570TIP3    H168125   5.821   1.931   0.585  0.2946  0.0229 -0.6672
15570TIP3    H268126   5.744   1.870   0.470 -0.8798 -1.5319  0.8859
15571TIP3   OH268127   4.258   6.242   2.382  0.0727 -0.6457  0.1430
15571TIP3    H168128   4.172   6.286   2.385  0.6195  0.3748  2.2770
15571TIP3    H268129   4.253   6.174   2.448  1.0469 -0.2850  0.6085
15572TIP3   OH268130   6.184   4.004   5.292 -0.3347 -0.5247 -0.0066
15572TIP3    H168131   6.195   3.957   5.210  0.4186 -0.8713  0.2847
15572TIP3    H268132   6.272   4.011   5.328 -0.1821  2.4097 -0.7172
15573TIP3   OH268133   5.159   4.502   2.410 -0.2226  0.3652  0.5745
15573TIP3    H168134   5.162   4.417   2.364  1.0754  1.3171 -1.2678
15573TIP3    H268135   5.105   4.486   2.487 -2.4283 -1.4181 -1.1864
15574TIP3   OH268136   2.601   3.811   4.398  0.1809 -0.4490 -0.3030
15574TIP3    H168137   2.586   3.746   4.329 -3.3567 -1.1378  0.8927
15574TIP3    H268138   2.580   3.765   4.479  0.5358  1.3588  0.8681
15575TIP3   OH268139   5.748   3.690  13.211 -0.2634 -0.0245 -0.0081
15575TIP3    H168140   5.670   3.676  13.264 -0.3014 -0.1774 -0.1014
15575TIP3    H268141   5.748   3.783  13.191 -1.2788 -0.2818 -1.3245
15576TIP3   OH268142   6.004   6.029   3.346  0.1696  0.0131 -0.2532
15576TIP3    H168143   6.049   6.084   3.282  0.7318  0.4907  0.5301
15576TIP3    H268144   6.013   5.940   3.312  0.3400  0.2735 -0.9021
15577TIP3   OH268145   1.711   3.731  17.010 -0.1690 -0.2578 -0.0281
15577TIP3    H168146   1.656   3.782  17.068  0.1602  0.7392 -0.5654
15577TIP3    H268147   1.765   3.678  17.068  1.2434  1.8419  0.6792
15578TIP3   OH268148   3.061   3.683   1.614 -0.3209 -0.2727  0.0007
15578TIP3    H168149   3.050   3.761   1.669 -1.4400 -1.1613  1.1037
15578TIP3    H268150   2.985   3.629   1.634  0.9152 -2.0980 -0.0132
15579TIP3   OH268151   2.845   2.547   3.028  0.7857 -0.2547  0.0771
15579TIP3    H168152   2.825   2.576   2.939  0.8737 -0.4720 -0.0149
15579TIP3    H268153   2.821   2.454   3.029  0.6520 -0.2192  0.3227
15580TIP3   OH268154   0.926   4.310  17.312  0.4539 -0.2996  0.0409
15580TIP3    H168155   0.963   4.383  17.362  0.3285  0.1218 -0.4786
15580TIP3    H268156   0.893   4.250  17.379  0.0275  0.3934  0.4639
15581TIP3   OH268157   1.811   2.920  12.874 -0.0991  0.2046 -0.5861
15581TIP3    H168158   1.748   2.980  12.834  0.1559  0.7255 -0.2253
15581TIP3    H268159   1.860   2.975  12.936 -1.6918 -0.8780  1.8201
15582TIP3   OH268160   2.232   2.466   5.898  0.1019  0.3789 -0.3845
15582TIP3    H168161   2.267   2.537   5.843  0.5949 -0.9838 -1.8896
15582TIP3    H268162   2.250   2.386   5.848 -0.6149 -0.8014  1.1875
15583TIP3   OH268163   1.803   2.173   4.791  0.1729  0.2065  0.0293
15583TIP3    H168164   1.899   2.166   4.792  0.2491 -0.5654 -3.1513
15583TIP3    H268165   1.774   2.093   4.746 -1.7742  1.5810 -1.2996
15584TIP3   OH268166   2.495   1.135  13.143  0.0694  0.2694 -0.7358
15584TIP3    H168167   2.486   1.217  13.095 -1.4179  0.4591 -0.1748
15584TIP3    H268168   2.551   1.080  13.087 -1.1236  0.6812 -2.4102
15585TIP3   OH268169   0.696   0.954  14.104 -0.1370  0.1157  0.3466
15585TIP3    H168170   0.784   0.949  14.142 -0.5293 -0.2650  1.2153
15585TIP3    H268171   0.706   0.917  14.016  0.3870 -0.7942  0.7745
15586TIP3   OH268172   1.203   5.616   3.475 -0.6183  0.5052  0.6522
15586TIP3    H168173   1.123   5.645   3.432  0.5017  1.1554 -1.0874
15586TIP3    H268174   1.208   5.522   3.457 -0.5633  0.6263  0.0246
15587TIP3   OH268175   1.358   6.170   1.756 -0.7607 -0.3080 -0.3023
15587TIP3    H168176   1.447   6.193   1.783 -0.3227  0.7149 -2.4046
15587TIP3    H268177   1.303   6.237   1.795 -0.7562 -1.3059  1.5457
15588TIP3   OH268178   4.576   5.502   1.923  0.2916 -0.4405  0.0411
15588TIP3    H168179   4.502   5.486   1.865  0.4511  0.4021 -0.4130
15588TIP3    H268180   4.542   5.562   1.990 -0.4201 -2.8218  1.9735
15589TIP3   OH268181   2.496   4.184   5.311  0.0842  0.3575  0.6171
15589TIP3    H168182   2.458   4.113   5.364 -0.9550  0.5666  0.1751
15589TIP3    H268183   2.423   4.217   5.259  1.0326  0.2423 -0.8770
15590TIP3   OH268184   0.169   1.726  13.070  0.2054 -0.1564  1.0939
15590TIP3    H168185   0.244   1.756  13.121  0.3908  1.3599  0.0154
15590TIP3    H268186   0.196   1.736  12.979 -0.2508 -2.4573  0.6469
15591TIP3   OH268187   6.524   1.545  15.264 -0.0642 -0.9343 -0.0627
15591TIP3    H168188   6.568   1.629  15.248 -0.1332 -1.0351 -0.8146
15591TIP3    H268189   6.443   1.551  15.214  0.0460 -1.5475 -0.3171
15592TIP3   OH268190   1.659   2.746   1.230 -0.0691  0.2383 -0.8030
15592TIP3    H168191   1.577   2.755   1.182 -0.6414  0.3973  0.1786
15592TIP3    H268192   1.706   2.828   1.213 -1.1384  1.1600  0.4826
15593TIP3   OH268193   0.533   3.694  16.487 -0.3498  0.0406 -0.1132
15593TIP3    H168194   0.544   3.609  16.446 -0.3540  0.5635 -1.2318
15593TIP3    H268195   0.537   3.757  16.415 -1.4557  0.9121  0.5501
15594TIP3   OH268196   3.781   3.627   3.050  0.1321 -0.4749 -0.2174
15594TIP3    H168197   3.860   3.574   3.042 -1.4824 -3.2398  0.6794
15594TIP3    H268198   3.709   3.564   3.039 -1.9578  1.6848  0.2824
15595TIP3   OH268199   6.369   4.798   4.211  0.6481  0.3490 -0.1186
15595TIP3    H168200   6.416   4.726   4.169  0.3507  0.5168 -0.7451
15595TIP3    H268201   6.438   4.850   4.253  0.9664  0.2801 -0.5473
15596TIP3   OH268202   5.588   5.710  16.001 -0.7703  0.0111  0.1535
15596TIP3    H168203   5.502   5.683  16.032 -0.3338  1.4331  3.0177
15596TIP3    H268204   5.650   5.655  16.050 -0.0435  1.4448  0.9310
15597TIP3   OH268205   1.630   3.404   5.569  0.2656 -0.2457 -0.1440
15597TIP3    H168206   1.550   3.362   5.601  0.0343  0.1463 -0.2076
15597TIP3    H268207   1.600   3.468   5.505  0.5064  0.9798  0.9186
15598TIP3   OH268208   3.616   4.588  13.357 -0.0874 -0.3618 -0.9203
15598TIP3    H168209   3.585   4.673  13.329 -3.6368  0.5245  4.2690
15598TIP3    H268210   3.699   4.606  13.401  0.4881 -0.1244 -2.0695
15599TIP3   OH268211   4.637   5.546  15.964 -0.1262  0.1872 -0.2356
15599TIP3    H168212   4.593   5.613  15.912  1.6411  0.3587 -1.6363
15599TIP3    H268213   4.709   5.591  16.006 -0.2009 -0.4161  0.5562
15600TIP3   OH268214   1.487   5.320  13.257 -0.6325 -0.0098  0.1091
15600TIP3    H168215   1.542   5.308  13.334  1.2721  2.3954 -0.7228
15600TIP3    H268216   1.400   5.340  13.292  0.0632  0.4670  1.6385
15601TIP3   OH268217   2.093   5.605   0.233 -0.5527 -0.1675 -0.4493
15601TIP3    H168218   2.040   5.585   0.156 -1.4291  2.5798 -0.6823
15601TIP3    H268219   2.034   5.654   0.290  0.7167 -0.2309  0.9651
15602TIP3   OH268220   1.470   2.289   1.124 -1.3582  0.0295 -0.0548
15602TIP3    H168221   1.471   2.194   1.112  0.0643  0.0576 -0.3152
15602TIP3    H268222   1.536   2.321   1.062 -0.0417  0.9703  1.7571
15603TIP3   OH268223   3.550   2.675  11.479 -0.2190 -0.2731  0.0631
15603TIP3    H168224   3.561   2.644  11.389  0.6148 -2.8382  0.9612
15603TIP3    H268225   3.459   2.654  11.501  0.1862 -1.6660  0.4857
15604TIP3   OH268226   5.095   0.861  16.294  0.0180  0.2626  0.3015
15604TIP3    H168227   5.061   0.790  16.238 -1.6898 -0.7994  2.5243
15604TIP3    H268228   5.160   0.818  16.349 -0.8248  0.4250  1.4673
15605TIP3   OH268229   0.311   2.957  12.621 -0.2944 -0.0820  0.2041
15605TIP3    H168230   0.221   2.973  12.650  0.2111  2.3618  0.6100
15605TIP3    H268231   0.350   3.044  12.613  1.8253 -1.0400 -0.7149
15606TIP3   OH268232   1.931   4.283  12.803  0.1148 -0.5365  0.6894
15606TIP3    H168233   1.847   4.242  12.781  0.5673 -1.1267 -0.0109
15606TIP3    H268234   1.984   4.270  12.725  1.0964 -0.8151  1.3903
15607TIP3   OH268235   2.206   3.486  14.215 -0.3875 -0.2652 -0.1926
15607TIP3    H168236   2.131   3.457  14.266 -0.4230 -0.6759 -0.4688
15607TIP3    H268237   2.204   3.582  14.220 -1.8890 -0.1801 -1.5298
15608TIP3   OH268238   6.209   3.800   0.653  0.8923  0.6834 -0.2696
15608TIP3    H168239   6.295   3.789   0.693 -0.0174 -0.8637  1.4289
15608TIP3    H268240   6.159   3.723   0.681 -0.8967  1.2730 -1.6119
15609TIP3   OH268241   2.979   0.007   3.101  0.2514  1.0925 -0.3548
15609TIP3    H168242   3.016   0.075   3.156  1.1296  1.3533 -1.2235
15609TIP3    H268243   2.885   0.023   3.102  0.2583  1.1294  0.9833
15610TIP3   OH268244   3.098   5.760  16.858 -0.7031 -0.1733 -0.2113
15610TIP3    H168245   3.127   5.674  16.888  0.2447 -0.1132 -0.9040
15610TIP3    H268246   3.005   5.762  16.879 -0.4536 -0.8235  1.0593
15611TIP3   OH268247   2.697   1.739   5.728  0.1326 -0.6167 -0.2381
15611TIP3    H168248   2.602   1.732   5.740  0.2188 -3.0555 -0.5899
15611TIP3    H268249   2.731   1.652   5.745  2.2480  0.0026 -0.9049
15612TIP3   OH268250   3.212   0.204  13.030  0.0457  0.1883 -0.0934
15612TIP3    H168251   3.270   0.154  12.973 -1.2801 -0.3455 -1.0260
15612TIP3    H268252   3.151   0.246  12.970 -1.3761 -0.3607  0.9243
15613TIP3   OH268253   4.165   6.590   4.501 -0.0442 -0.0480  0.1846
15613TIP3    H168254   4.100   6.541   4.452 -1.7730  1.9000  0.3708
15613TIP3    H268255   4.158   6.557   4.591 -0.7825  0.1128  0.1923
15614TIP3   OH268256   1.631   2.063   4.022 -0.0321 -0.0841 -0.6408
15614TIP3    H168257   1.542   2.029   4.012 -0.6750  1.2917  0.0895
15614TIP3    H268258   1.660   2.081   3.932 -0.5103 -0.4708 -0.8807
15615TIP3   OH268259   6.537   2.155   6.714 -0.0273 -0.3033  0.0134
15615TIP3    H168260   6.609   2.218   6.702 -0.8248  0.5596 -0.3201
15615TIP3    H268261   6.471   2.203   6.764  0.5398 -1.8045  2.3722
15616TIP3   OH268262   3.419   1.614   0.396 -0.5752  0.0903 -0.6096
15616TIP3    H168263   3.335   1.660   0.407 -1.4120 -1.0787 -1.7510
15616TIP3    H268264   3.413   1.575   0.308  1.6448  0.8996 -1.1779
15617TIP3   OH268265   4.628   5.788  14.670  0.3091  0.2020  0.0463
15617TIP3    H168266   4.612   5.769  14.763 -0.7903  0.4685 -0.0756
15617TIP3    H268267   4.614   5.883  14.663 -1.0979 -0.0393 -0.6637
15618TIP3   OH268268   5.186   4.753   6.223 -0.1986  0.5832  0.0003
15618TIP3    H168269   5.117   4.791   6.276 -0.9672  1.5050 -1.5770
15618TIP3    H268270   5.265   4.802   6.247  1.0194 -2.9391  4.6426
15619TIP3   OH268271   0.305   0.748  14.489 -0.3606  0.4016 -0.3034
15619TIP3    H168272   0.339   0.673  14.538  1.2100  0.8728 -0.6433
15619TIP3    H268273   0.331   0.825  14.539 -0.6460  0.7964 -0.7432
15620TIP3   OH268274   2.377   4.200  14.707 -0.2837  0.1389 -0.0802
15620TIP3    H168275   2.324   4.270  14.667 -0.2930 -0.0561 -0.4122
15620TIP3    H268276   2.323   4.122  14.698 -0.6879  0.2572  1.1609
15621TIP3   OH268277   1.164   1.630  15.508  0.3475 -0.0366  0.8735
15621TIP3    H168278   1.081   1.677  15.512  0.4675  0.1891  0.7000
15621TIP3    H268279   1.142   1.541  15.535  0.4290  0.5016  2.8684
15622TIP3   OH268280   4.061   2.992   4.553 -0.2295  0.3323 -0.0006
15622TIP3    H168281   4.021   2.920   4.602  1.9685 -1.6281 -0.8474
15622TIP3    H268282   4.089   3.054   4.620 -0.9105 -0.2828  0.8892
15623TIP3   OH268283   0.071   4.499  11.869 -0.4157 -0.4411  0.1198
15623TIP3    H168284   0.069   4.557  11.945 -1.4699 -1.6663  1.0719
15623TIP3    H268285  -0.020   4.497  11.838 -0.0392 -0.1245 -1.0542
15624TIP3   OH268286   4.781   6.383   3.802  0.5273 -0.3872 -0.0693
15624TIP3    H168287   4.790   6.457   3.862  0.1541  0.8685 -1.5245
15624TIP3    H268288   4.758   6.309   3.860 -1.6876  1.1593  1.1858
15625TIP3   OH268289   6.419   4.592   2.211  0.3340 -0.2014 -0.1887
15625TIP3    H168290   6.394   4.616   2.121 -0.5063  1.8658  0.5298
15625TIP3    H268291   6.335   4.581   2.256  0.6959  1.2124  0.9014
15626TIP3   OH268292   1.073   5.021   4.258  0.1593 -0.2531 -0.4896
15626TIP3    H168293   1.152   5.034   4.311  0.1512  2.4112 -0.9701
15626TIP3    H268294   1.005   4.999   4.321  0.6314  0.6102  0.3549
15627TIP3   OH268295   0.085   3.622  11.478 -0.0940  0.1831  0.1337
15627TIP3    H168296   0.079   3.580  11.392 -1.4478  0.7940 -0.0976
15627TIP3    H268297   0.003   3.671  11.486  1.3306  2.6789  0.4614
15628TIP3   OH268298   2.432   0.951  13.644 -0.2042 -0.9114 -0.3180
15628TIP3    H168299   2.395   0.872  13.606 -2.3128 -0.0587 -0.1819
15628TIP3    H268300   2.393   0.957  13.731 -1.5145  1.1492 -0.9692
15629TIP3   OH268301   5.027   2.172   2.045 -0.3614  0.4303  0.3766
15629TIP3    H168302   4.959   2.115   2.079 -0.3381  0.2211  0.0742
15629TIP3    H268303   5.031   2.152   1.951 -1.3591  1.9393 -0.0301
15630TIP3   OH268304   6.588   1.806   3.846  0.1836  0.3101  0.3535
15630TIP3    H168305   6.668   1.851   3.872  0.2872  1.0493 -1.1500
15630TIP3    H268306   6.609   1.713   3.853  1.2780  0.4981 -0.3168
15631TIP3   OH268307   1.371   0.880  17.264 -0.1550 -0.9206  0.2298
15631TIP3    H168308   1.317   0.909  17.338  0.1687  0.0820  0.0999
15631TIP3    H268309   1.432   0.817  17.302  1.2949  0.9967  1.2848
15632TIP3   OH268310   3.815   0.376  12.793  0.4103 -0.3121 -0.0558
15632TIP3    H168311   3.724   0.407  12.791  0.5259  0.0478  0.0946
15632TIP3    H268312   3.825   0.326  12.712  0.4440  0.7105 -0.6984
15633TIP3   OH268313   0.585   5.366  16.121  0.6454 -0.1951  0.3213
15633TIP3    H168314   0.610   5.459  16.115 -0.2030 -0.0276 -1.3853
15633TIP3    H268315   0.529   5.361  16.198  3.3645 -0.0015  2.4461
15634TIP3   OH268316   6.237   3.681  12.551 -0.5713 -0.1622  0.1279
15634TIP3    H168317   6.164   3.743  12.556  0.6850  1.4121 -0.2608
15634TIP3    H268318   6.275   3.695  12.464  1.2177  0.3010  0.9335
15635TIP3   OH268319   2.621   6.373  16.910  0.1685 -0.3852  0.6217
15635TIP3    H168320   2.581   6.444  16.860  0.2264 -1.4343 -0.9558
15635TIP3    H268321   2.715   6.392  16.907  0.5068 -2.0447 -2.3740
15636TIP3   OH268322   1.696   5.245   5.559 -0.1249  0.0397 -0.5026
15636TIP3    H168323   1.713   5.268   5.467  0.5594 -1.2459 -0.7109
15636TIP3    H268324   1.783   5.235   5.598 -0.4162 -0.1303  0.1142
15637TIP3   OH268325   1.808   6.471  17.149  0.2384 -0.1862  0.3824
15637TIP3    H168326   1.877   6.538  17.145  0.5692 -0.5536 -0.2108
15637TIP3    H268327   1.853   6.392  17.178 -0.3233  0.0448  1.9672
15638TIP3   OH268328   0.858   3.026   0.542 -0.4332  0.1649 -0.1765
15638TIP3    H168329   0.840   3.077   0.463  0.4593 -0.0517 -0.5248
15638TIP3    H268330   0.842   3.087   0.614 -0.1291  0.7062 -0.5621
15639TIP3   OH268331   1.995   4.753  11.580  0.2115 -0.2089 -0.0077
15639TIP3    H168332   2.081   4.794  11.583 -0.5261  1.3693  0.3653
15639TIP3    H268333   1.953   4.777  11.662  0.1723 -2.7878  0.8225
15640TIP3   OH268334   4.233   6.313   4.767  0.4580 -0.1568 -0.9710
15640TIP3    H168335   4.300   6.247   4.784  0.8090  0.1977 -0.9643
15640TIP3    H268336   4.246   6.378   4.836  1.4769  0.9790 -2.1843
15641TIP3   OH268337   6.075   3.292   2.148  0.2137  0.3322 -0.1928
15641TIP3    H168338   6.096   3.314   2.058  1.8337  0.1060  0.0833
15641TIP3    H268339   6.094   3.198   2.155  0.0043  0.3252  0.3431
15642TIP3   OH268340   4.498   0.588  15.027  0.0418  0.2989 -1.0177
15642TIP3    H168341   4.434   0.631  15.084 -1.3745  1.5956 -3.4017
15642TIP3    H268342   4.583   0.606  15.068 -0.9604  0.3806  1.1037
15643TIP3   OH268343   3.314   2.013  14.437 -0.1935  0.0049 -0.3851
15643TIP3    H168344   3.386   2.001  14.499 -1.8441  0.6700  1.8053
15643TIP3    H268345   3.351   2.070  14.369  1.7341 -0.8447 -0.1283
15644TIP3   OH268346   0.744   6.653  15.603  0.2929 -0.0081  0.0871
15644TIP3    H168347   0.835   6.659  15.573 -0.6057  0.8941 -2.8289
15644TIP3    H268348   0.712   6.744  15.600 -0.3356 -0.0840  2.5462
15645TIP3   OH268349   0.352   3.943  11.232 -0.6091 -0.7386 -0.7422
15645TIP3    H168350   0.262   3.917  11.210 -1.2202  1.7512 -1.5123
15645TIP3    H268351   0.349   4.039  11.233  1.4746 -0.5949  1.6828
15646TIP3   OH268352   2.153   1.988   2.047 -0.4514 -0.4953 -0.3327
15646TIP3    H168353   2.163   1.908   1.995 -0.2541 -0.7045  0.0219
15646TIP3    H268354   2.161   1.958   2.137 -1.0880 -0.1818 -0.1635
15647TIP3   OH268355   5.640   4.217  12.048 -0.2036 -0.1440  0.4188
15647TIP3    H168356   5.616   4.126  12.030  1.7547 -0.7096  0.4233
15647TIP3    H268357   5.651   4.219  12.143 -0.5970  0.2086  0.4591
15648TIP3   OH268358   0.847   4.661  12.674 -0.5645 -0.6600 -0.0798
15648TIP3    H168359   0.813   4.572  12.663  0.8944 -1.3301  0.6362
15648TIP3    H268360   0.890   4.660  12.759  0.3330  0.4592 -0.4954
15649TIP3   OH268361   6.373   2.816   3.225  0.2153  0.5955 -0.1215
15649TIP3    H168362   6.328   2.770   3.154  0.1198  0.9663 -0.3046
15649TIP3    H268363   6.309   2.819   3.296 -0.8147  2.8437 -1.0436
15650TIP3   OH268364   0.153   3.123  13.698 -0.0790 -0.1186 -0.6342
15650TIP3    H168365   0.101   3.117  13.778 -1.4755  1.0971 -1.4132
15650TIP3    H268366   0.243   3.134  13.729 -0.5138 -0.3143  0.7594
15651TIP3   OH268367   2.420   6.246   5.861  0.2334  0.0404 -0.3132
15651TIP3    H168368   2.452   6.246   5.771  0.1869  0.9805 -0.3372
15651TIP3    H268369   2.499   6.252   5.914  0.2073  0.5711 -0.3267
15652TIP3   OH268370   4.507   4.485  13.430  0.0802 -0.0970  0.0927
15652TIP3    H168371   4.483   4.555  13.370 -0.2473 -0.8931 -0.7286
15652TIP3    H268372   4.446   4.414  13.410  2.3231 -1.7520 -1.2592
15653TIP3   OH268373   2.974   4.231   0.141  0.2459 -0.0938  0.2171
15653TIP3    H168374   2.927   4.159   0.100 -2.2410  1.2670  0.5080
15653TIP3    H268375   2.992   4.292   0.070 -0.6331  0.5126  0.5125
15654TIP3   OH268376   3.644   1.437   5.976 -0.2939  0.5982 -0.0798
15654TIP3    H168377   3.689   1.521   5.967 -1.8093  1.4504  0.0809
15654TIP3    H268378   3.640   1.422   6.071 -1.1690  0.9825 -0.0552
15655TIP3   OH268379   2.730   2.236  14.038  0.2413 -0.0926  0.3957
15655TIP3    H168380   2.705   2.157  14.085 -0.3055  0.1278  0.4806
15655TIP3    H268381   2.665   2.301  14.063  2.1382  1.1688  2.4103
15656TIP3   OH268382   2.231   0.691   6.023  0.4436 -0.1422 -0.0861
15656TIP3    H168383   2.248   0.703   6.116 -2.3235 -3.5464  1.1070
15656TIP3    H268384   2.136   0.704   6.014  0.8185  1.5102 -2.7893
15657TIP3   OH268385   6.255   3.938  10.851 -0.5374 -0.2122  0.8925
15657TIP3    H168386   6.327   3.882  10.824 -0.7452 -0.1063  0.0845
15657TIP3    H268387   6.296   4.012  10.895 -0.2975 -1.3043  2.5496
15658TIP3   OH268388   0.981   2.801   3.313  0.2645 -0.4194 -0.6053
15658TIP3    H168389   0.915   2.802   3.382 -0.0601 -1.8321 -0.8740
15658TIP3    H268390   0.987   2.892   3.284 -0.4421 -0.0120  0.4690
15659TIP3   OH268391   3.412   3.195   4.576 -0.4514  0.0232 -0.1960
15659TIP3    H168392   3.507   3.196   4.572 -0.3842  0.6941  1.0663
15659TIP3    H268393   3.383   3.242   4.498  0.3012  1.3595  0.3099
15660TIP3   OH268394   6.705   1.896   5.770  0.7162  0.3088  0.0019
15660TIP3    H168395   6.740   1.968   5.822  1.9300  0.0177 -0.3770
15660TIP3    H268396   6.642   1.852   5.828  0.3265  1.3606  0.3992
15661TIP3   OH268397   6.323   1.246  10.985  0.2757 -0.4432  0.1180
15661TIP3    H168398   6.259   1.178  10.964 -0.1851 -0.4441  1.4273
15661TIP3    H268399   6.310   1.263  11.078 -0.2892  2.1478 -0.3686
15662TIP3   OH268400   5.846   4.569   4.266  0.0693 -0.4796  0.0133
15662TIP3    H168401   5.858   4.632   4.195 -0.7066  0.1562  0.4290
15662TIP3    H268402   5.834   4.623   4.344  1.0030 -1.1688  0.6615
15663TIP3   OH268403   5.644   2.725   5.096  0.1792  0.5685 -0.3483
15663TIP3    H168404   5.662   2.661   5.027 -0.9315  0.3985 -0.4999
15663TIP3    H268405   5.722   2.780   5.099  0.4578  0.2498 -1.3707
15664TIP3   OH268406   5.596   5.657   4.707 -1.1078 -0.0630 -0.3411
15664TIP3    H168407   5.550   5.728   4.752  0.7104  0.4970  0.7099
15664TIP3    H268408   5.601   5.586   4.771 -1.3172 -0.4797 -0.7747
15665TIP3   OH268409   3.173   4.077   4.516 -0.3191  0.4170  0.1602
15665TIP3    H168410   3.251   4.110   4.561 -0.7137 -0.2913  1.4101
15665TIP3    H268411   3.180   3.982   4.523 -1.6466  0.3558  0.9032
15666TIP3   OH268412   3.633   3.233  15.316 -0.3733 -0.7171  0.1629
15666TIP3    H168413   3.697   3.234  15.388 -0.7729  0.9618  0.5232
15666TIP3    H268414   3.634   3.142  15.285  2.9822 -0.5313 -0.5881
15667TIP3   OH268415   1.814   1.092   1.410 -0.1023  0.3107 -0.3335
15667TIP3    H168416   1.753   1.026   1.376  0.2712 -0.1714 -0.0766
15667TIP3    H268417   1.820   1.074   1.504  1.9362 -0.9181 -0.6469
15668TIP3   OH268418   5.605   2.047  17.375  0.0686  0.0566  0.2015
15668TIP3    H168419   5.615   1.969  17.430  0.1584 -0.6348 -0.7852
15668TIP3    H268420   5.538   2.023  17.311  0.0838  0.7945 -0.0967
15669TIP3   OH268421   2.793   5.173  13.097  0.1538 -0.3535  0.1666
15669TIP3    H168422   2.843   5.254  13.096 -2.1258  1.3567  3.9210
15669TIP3    H268423   2.739   5.177  13.018  2.4174  0.0172 -1.4671
15670TIP3   OH268424   4.721   5.332  16.210 -0.5807 -0.3848 -0.2276
15670TIP3    H168425   4.750   5.422  16.194  0.2297 -0.8668 -1.6567
15670TIP3    H268426   4.633   5.329  16.174  0.2609 -0.7493 -2.4159
15671TIP3   OH268427   0.512   6.698   5.796  0.1801  0.2527  0.3575
15671TIP3    H168428   0.444   6.648   5.841  0.9976 -0.9312  0.3169
15671TIP3    H268429   0.489   6.790   5.812 -1.3402 -0.1236  0.4498
15672TIP3   OH268430   0.131   2.704  15.962  0.0140 -0.2966  0.1357
15672TIP3    H168431   0.213   2.714  16.011  1.0601 -1.2871 -1.3248
15672TIP3    H268432   0.121   2.609  15.950 -0.4129 -0.1135 -1.1686
15673TIP3   OH268433   3.262   6.674   0.122 -0.4438  0.1802 -0.2781
15673TIP3    H168434   3.293   6.599   0.172  0.8901  0.3987 -0.7289
15673TIP3    H268435   3.341   6.723   0.100 -1.0951  0.6647 -1.6806
15674TIP3   OH268436   3.770   5.499  11.404  0.2129  0.3980 -0.0228
15674TIP3    H168437   3.775   5.488  11.499  1.2736 -0.9299 -0.1991
15674TIP3    H268438   3.825   5.429  11.369  0.5259  1.3827 -1.6026
15675TIP3   OH268439   1.581   2.011  17.280 -0.2998  0.2906 -0.1842
15675TIP3    H168440   1.496   2.005  17.323 -0.0974  1.2938  0.3756
15675TIP3    H268441   1.568   1.970  17.195 -1.2415  0.0987  0.0447
15676TIP3   OH268442   1.696   1.215   4.386  0.3674  0.5965  0.0619
15676TIP3    H168443   1.626   1.166   4.341  0.5448  0.2310  0.1849
15676TIP3    H268444   1.654   1.297   4.411 -0.2233  0.1099  0.7370
15677TIP3   OH268445   5.841   0.978   0.673  0.7497  0.1272  0.0778
15677TIP3    H168446   5.871   0.990   0.763 -1.2218 -0.5220  0.8726
15677TIP3    H268447   5.789   0.898   0.675  0.6217  0.1195 -1.6430
15678TIP3   OH268448   1.175   5.610  15.732 -0.5620  0.1471  0.4361
15678TIP3    H168449   1.200   5.541  15.793  1.4660 -0.5981 -1.1288
15678TIP3    H268450   1.257   5.652  15.707 -1.1808 -0.0750 -2.3407
15679TIP3   OH268451   2.370   2.554   3.509 -0.0456 -0.0075  0.4516
15679TIP3    H168452   2.340   2.593   3.591 -0.9971 -0.8466  0.5172
15679TIP3    H268453   2.336   2.612   3.441 -2.2037 -1.1231  0.5023
15680TIP3   OH268454   5.429   3.236   1.113  0.6376 -0.3447  0.1317
15680TIP3    H168455   5.385   3.321   1.121  1.9390  0.3905 -0.0422
15680TIP3    H268456   5.494   3.250   1.043  1.1106 -1.3761  0.3447
15681TIP3   OH268457   3.434   0.154  14.229 -0.5884  0.3138  0.2052
15681TIP3    H168458   3.490   0.223  14.265  1.7305 -0.8160 -0.9952
15681TIP3    H268459   3.421   0.181  14.137  0.7710 -1.0260 -0.4189
15682TIP3   OH268460   2.707   1.815  12.717  0.2586  0.3595 -0.3075
15682TIP3    H168461   2.691   1.754  12.789 -0.0079 -1.6462 -1.9587
15682TIP3    H268462   2.801   1.809  12.701  0.2311  0.3883 -0.4781
15683TIP3   OH268463   3.086   1.269  12.589 -0.8971  0.3676  0.4981
15683TIP3    H168464   3.123   1.355  12.566 -1.4757  0.7721  1.0484
15683TIP3    H268465   3.153   1.206  12.562  0.7907  1.1185  2.6377
15684TIP3   OH268466   3.859   4.191   5.493 -0.1435  0.3792  0.1516
15684TIP3    H168467   3.861   4.250   5.568  1.7935  0.5102  0.0472
15684TIP3    H268468   3.879   4.248   5.418 -1.3816  0.1316 -0.3811
15685TIP3   OH268469   2.147   3.889   4.488  0.1250 -0.0314  0.0729
15685TIP3    H168470   2.156   3.871   4.582  0.8477  0.1403  0.0393
15685TIP3    H268471   2.227   3.935   4.465 -0.6000  1.0205 -0.3759
15686TIP3   OH268472   3.924   5.063  17.034  0.1310  0.4416 -0.8808
15686TIP3    H168473   3.873   4.994  17.076 -0.6331 -0.0246 -2.4847
15686TIP3    H268474   4.012   5.027  17.024 -0.3786 -0.5400 -2.1326
15687TIP3   OH268475   1.218   4.673  14.912 -0.2810  0.1691  0.0054
15687TIP3    H168476   1.156   4.706  14.847 -0.0148 -0.5894 -0.6465
15687TIP3    H268477   1.245   4.750  14.961 -1.2399  0.6070 -0.1297
15688TIP3   OH268478   1.550   6.426  17.018 -0.5336  0.2021 -0.3567
15688TIP3    H168479   1.545   6.331  17.003 -0.0506  0.1184 -0.0207
15688TIP3    H268480   1.639   6.440  17.051 -0.5024  0.8147 -0.6820
15689TIP3   OH268481   5.882   0.875  14.852 -0.2113  0.1179  0.2787
15689TIP3    H168482   5.826   0.951  14.865 -1.0834 -0.5990  0.8273
15689TIP3    H268483   5.965   0.900  14.892 -0.5549  0.7050  0.6474
15690TIP3   OH268484   6.285   6.479  15.253 -0.3771  0.0210 -0.0047
15690TIP3    H168485   6.238   6.532  15.317  0.3692  1.1416 -0.3515
15690TIP3    H268486   6.228   6.478  15.177 -0.3552  0.4281 -0.0314
15691TIP3   OH268487   5.831   3.206   6.428 -0.0111  0.1045 -0.0296
15691TIP3    H168488   5.797   3.133   6.377  1.9299  0.2210 -1.6141
15691TIP3    H268489   5.880   3.165   6.499  0.3760 -0.1258 -0.4288
15692TIP3   OH268490   0.483   5.984   3.575  0.7185  0.1751 -0.1339
15692TIP3    H168491   0.460   5.900   3.615  0.2509  0.4268  0.1300
15692TIP3    H268492   0.426   5.990   3.499 -0.4841  1.0371  0.8079
15693TIP3   OH268493   4.552   0.977   3.919 -0.0314  0.1933 -0.4618
15693TIP3    H168494   4.483   0.911   3.916  0.5202 -0.5673  1.8595
15693TIP3    H268495   4.628   0.935   3.878 -0.0624 -0.1150 -0.2021
15694TIP3   OH268496   1.743   6.019   3.709 -0.2924 -0.1504 -0.2498
15694TIP3    H168497   1.740   5.989   3.800  3.8315  1.0322  0.4612
15694TIP3    H268498   1.816   5.971   3.670 -1.7730 -0.4078 -2.9185
15695TIP3   OH268499   2.189   2.217   0.440  0.2605  0.0046 -0.0364
15695TIP3    H168500   2.124   2.240   0.506  0.0167 -0.6485 -0.0460
15695TIP3    H268501   2.150   2.248   0.357  0.3623  0.4088  0.0630
15696TIP3   OH268502   5.569   4.536  12.348  0.3627  0.7411  0.3276
15696TIP3    H168503   5.619   4.536  12.430 -0.8768  0.1934  1.1125
15696TIP3    H268504   5.617   4.596  12.291  2.8037 -0.9375  0.4727
15697TIP3   OH268505   0.299   6.009  11.360  0.5312  0.3479 -0.3656
15697TIP3    H168506   0.265   6.087  11.318  1.4982  0.7508 -0.4250
15697TIP3    H268507   0.258   5.936  11.313 -1.0028  0.7956  0.2129
15698TIP3   OH268508   0.954   6.588  11.175 -0.4481 -0.0614 -0.0136
15698TIP3    H168509   0.994   6.551  11.097  1.3562  0.3199  0.6850
15698TIP3    H268510   0.997   6.673  11.186 -0.8472  0.0036  1.2488
15699TIP3   OH268511   3.997   1.594   4.784 -0.1885  0.3219 -0.8539
15699TIP3    H168512   3.991   1.642   4.867 -1.7208 -2.2252  0.6559
15699TIP3    H268513   3.944   1.645   4.723 -1.6443  0.6891  0.6360
15700TIP3   OH268514   1.961   1.582  17.061  0.5930  0.0346  0.0701
15700TIP3    H168515   2.020   1.536  17.121 -0.8817 -0.1051  1.4881
15700TIP3    H268516   1.916   1.512  17.014 -2.0485 -0.1903  2.6126
15701TIP3   OH268517   6.481   5.640  16.594 -0.4016  0.0503  0.0391
15701TIP3    H168518   6.471   5.702  16.667 -0.6165 -0.2391  0.2599
15701TIP3    H268519   6.526   5.690  16.526  0.1351  0.2187  0.5101
15702TIP3   OH268520   4.072   0.948  11.022 -0.3711 -0.0227 -0.1528
15702TIP3    H168521   4.111   0.916  11.103  0.7161 -0.5605 -0.8675
15702TIP3    H268522   4.108   1.035  11.010 -0.9351  0.2660  0.1957
15703TIP3   OH268523   3.957   1.496   1.336 -0.0579  0.2340  0.2252
15703TIP3    H168524   3.881   1.439   1.345 -0.9732  1.0499 -1.8812
15703TIP3    H268525   3.945   1.563   1.404  0.2866 -1.1731  1.7552
15704TIP3   OH268526   6.377   4.564   3.728  0.7401  0.6894 -0.0405
15704TIP3    H168527   6.316   4.520   3.670 -1.6340  0.2098  2.6352
15704TIP3    H268528   6.462   4.524   3.707 -0.0893  0.0243 -2.5587
15705TIP3   OH268529   2.036   0.438  14.849  0.4856 -0.3492  0.3747
15705TIP3    H168530   2.016   0.350  14.819  0.2886 -0.5546  1.0913
15705TIP3    H268531   2.082   0.426  14.932  1.8563  0.1767 -0.2599
15706TIP3   OH268532   5.503   5.634   0.591 -0.4869  0.1636  0.7296
15706TIP3    H168533   5.418   5.675   0.606  0.0841  1.6429  0.1096
15706TIP3    H268534   5.543   5.686   0.521  0.3127 -1.4391 -0.0811
15707TIP3   OH268535   5.588   4.588   3.480 -0.3017  0.1853 -0.2360
15707TIP3    H168536   5.651   4.660   3.487  0.8228 -0.7523 -0.3425
15707TIP3    H268537   5.609   4.530   3.553  0.4678 -1.2588 -1.5434
15708TIP3   OH268538   6.273   4.323  12.179 -0.1511  0.2918 -0.2548
15708TIP3    H168539   6.253   4.382  12.106 -2.0056  0.2594  0.1787
15708TIP3    H268540   6.191   4.277  12.195  0.9094 -1.4884  0.2603
15709TIP3   OH268541   1.212   2.981   1.368  0.1488  0.3853 -0.5228
15709TIP3    H168542   1.119   2.961   1.361  0.4176 -0.6818 -1.5373
15709TIP3    H268543   1.249   2.905   1.414  0.3075  1.5398  1.3380
15710TIP3   OH268544   2.918   1.423  15.245 -0.1840 -0.4254 -0.2421
15710TIP3    H168545   2.909   1.376  15.162  2.1982  1.9879 -2.0274
15710TIP3    H268546   2.841   1.480  15.248  1.0197  1.4743 -2.3278
15711TIP3   OH268547   6.499   0.018   0.970  0.2361  0.0838 -0.3372
15711TIP3    H168548   6.448  -0.044   0.918 -4.1749  2.8823  0.0787
15711TIP3    H268549   6.557   0.060   0.906  0.7292 -1.9324 -1.2880
15712TIP3   OH268550   1.234   2.902  14.365  0.0545 -0.3513  0.6128
15712TIP3    H168551   1.212   2.867  14.452  1.7404 -0.1079  1.1819
15712TIP3    H268552   1.172   2.860  14.306 -0.2668 -1.5736  1.7618
15713TIP3   OH268553   1.255   6.042  11.499 -0.6587 -0.0899 -0.1282
15713TIP3    H168554   1.238   6.049  11.405 -2.3154 -1.4306  0.0358
15713TIP3    H268555   1.305   5.961  11.509 -1.2160 -0.3989  0.2146
15714TIP3   OH268556   5.721   3.874  10.985 -0.3699 -0.3797 -0.7134
15714TIP3    H168557   5.800   3.890  10.933 -0.8646 -0.4614 -1.5147
15714TIP3    H268558   5.652   3.919  10.937 -1.2255 -2.1828 -1.2702
15715TIP3   OH268559   6.469   6.388   1.895  0.0077 -0.0888  0.1333
15715TIP3    H168560   6.481   6.474   1.856 -0.5710 -0.3015 -0.5292
15715TIP3    H268561   6.556   6.349   1.894  0.2623  0.4604  0.3802
15716TIP3   OH268562   3.413   0.512   4.580 -0.0940  0.8188 -0.0232
15716TIP3    H168563   3.415   0.424   4.619  1.6317 -0.2430 -2.2328
15716TIP3    H268564   3.363   0.501   4.499  2.0181  1.2541 -1.4715
15717TIP3   OH268565   3.078   1.429   5.992  0.2377  0.4060  0.4143
15717TIP3    H168566   3.104   1.501   6.049  0.5376 -0.2677  1.1354
15717TIP3    H268567   2.982   1.432   5.993  0.2141  1.8823 -0.9719
15718TIP3   OH268568   3.660   3.879   0.382  0.0691  0.2539 -0.1528
15718TIP3    H168569   3.730   3.943   0.398  0.6910 -0.7979  1.6272
15718TIP3    H268570   3.694   3.797   0.417 -1.5904 -0.5611 -0.3611
15719TIP3   OH268571   4.402   5.701   3.117  0.1741  0.3026  0.0373
15719TIP3    H168572   4.412   5.757   3.040 -1.9501 -1.4042 -1.6301
15719TIP3    H268573   4.389   5.613   3.081  0.0676 -0.7208  2.4070
15720TIP3   OH268574   6.754   0.422  15.077 -0.1351 -0.1900  0.1255
15720TIP3    H168575   6.751   0.481  15.002  1.6842  0.0588  0.1990
15720TIP3    H268576   6.825   0.456  15.132  0.6582 -2.1237  0.4175
15721TIP3   OH268577   4.500   5.576   5.613 -0.2253 -0.0873  0.7094
15721TIP3    H168578   4.462   5.532   5.537 -0.6146 -0.2563  0.9976
15721TIP3    H268579   4.428   5.580   5.676  0.1808 -0.2216  1.1829
15722TIP3   OH268580   4.023   1.743  11.592  0.4339 -0.3522 -0.4882
15722TIP3    H168581   4.063   1.724  11.677  2.6886  2.7649 -0.6948
15722TIP3    H268582   3.961   1.670  11.578  1.8132 -2.3261  2.5880
15723TIP3   OH268583   5.597   2.565   1.394  0.1344 -0.0253 -0.2923
15723TIP3    H168584   5.685   2.600   1.397  1.1461 -2.3629 -0.2384
15723TIP3    H268585   5.548   2.627   1.340  1.3530  2.1594  0.9860
15724TIP3   OH268586   3.854   3.531  14.447 -0.8872  0.1743  0.9786
15724TIP3    H168587   3.803   3.452  14.426  2.3923 -1.7644 -0.4678
15724TIP3    H268588   3.937   3.498  14.481  0.1914  3.0734  1.4251
15725TIP3   OH268589   5.600   4.241  12.344  0.1926 -0.0761 -0.5038
15725TIP3    H168590   5.505   4.230  12.341  0.2777 -1.7348  1.3801
15725TIP3    H268591   5.612   4.335  12.357 -1.1409  0.2368 -1.2917
15726TIP3   OH268592   3.274   0.555   3.052 -0.2725  0.0804 -0.2528
15726TIP3    H168593   3.314   0.589   2.972 -2.2415  1.1812 -0.8286
15726TIP3    H268594   3.244   0.467   3.029 -1.7019  0.7554 -1.0728
15727TIP3   OH268595   3.403   2.759   3.931  0.0086  0.0909  0.3123
15727TIP3    H168596   3.442   2.769   4.018 -1.5168  0.5728  0.9783
15727TIP3    H268597   3.376   2.847   3.906  0.5665 -0.0162 -0.7435
15728TIP3   OH268598   5.563   4.316   4.910 -0.2876 -1.0766  0.3627
15728TIP3    H168599   5.652   4.319   4.946 -0.8327  1.1082  1.7704
15728TIP3    H268600   5.571   4.265   4.830  1.7213 -3.1032  1.7246
15729TIP3   OH268601   1.901   2.595   3.545  0.2867 -0.0197  0.1733
15729TIP3    H168602   1.818   2.631   3.575  0.9433  0.6531  1.2514
15729TIP3    H268603   1.881   2.555   3.461 -0.8004  1.4698 -0.3093
15730TIP3   OH268604   4.435   3.901  13.965 -0.6096  0.0036  0.6418
15730TIP3    H168605   4.507   3.899  13.902 -2.3205 -0.3140 -1.4147
15730TIP3    H268606   4.473   3.939  14.044  1.6557  0.3649 -0.5501
15731TIP3   OH268607   4.899   4.867  16.337  0.2320  0.1380 -0.0380
15731TIP3    H168608   4.919   4.872  16.431  0.2674 -0.9476  0.0190
15731TIP3    H268609   4.883   4.958  16.312  1.4520  0.5961  0.7446
15732TIP3   OH268610   4.734   1.822  17.313  0.3018 -0.1789 -0.2425
15732TIP3    H168611   4.662   1.821  17.377  0.7244  1.4643  0.2984
15732TIP3    H268612   4.694   1.791  17.232 -1.3353  1.7695 -0.2462
15733TIP3   OH268613   4.847   0.203   2.837 -0.2699  0.3435 -0.0390
15733TIP3    H168614   4.880   0.116   2.862 -0.2475  1.0091  2.4710
15733TIP3    H268615   4.755   0.202   2.863 -0.8695  0.4008 -1.9676
15734TIP3   OH268616   4.989   3.401  13.214  0.2132  0.0448  0.4239
15734TIP3    H168617   4.964   3.467  13.149  3.2588  0.5016 -0.4524
15734TIP3    H268618   5.003   3.321  13.163 -2.5072 -1.1705  1.3549
15735TIP3   OH268619   0.564   6.674   2.311 -0.5988 -0.1983  0.0464
15735TIP3    H168620   0.586   6.723   2.232 -0.4664 -0.8953 -0.3615
15735TIP3    H268621   0.489   6.720   2.348  0.9925  1.7412  1.0193
15736TIP3   OH268622   6.151   6.537   4.934 -0.3439  0.2036 -0.1387
15736TIP3    H168623   6.150   6.531   5.029 -1.6533 -0.1690 -0.1549
15736TIP3    H268624   6.240   6.564   4.912  0.1482 -0.3160  1.1472
15737TIP3   OH268625   5.858   4.648  11.834  0.1926  0.4117  0.1017
15737TIP3    H168626   5.874   4.639  11.928 -2.6266  1.0274  0.7407
15737TIP3    H268627   5.900   4.571  11.794 -2.7219 -2.7301  2.4919
15738TIP3   OH268628   5.741   1.363   1.278 -0.4204  0.2984 -0.0843
15738TIP3    H168629   5.689   1.343   1.355 -0.2152  0.3034  0.0565
15738TIP3    H268630   5.782   1.447   1.298  0.3096 -0.1123  0.1509
15739TIP3   OH268631   4.362   3.151  12.699  0.1268 -0.0144 -0.0058
15739TIP3    H168632   4.340   3.084  12.763  3.3237 -1.4854 -0.2630
15739TIP3    H268633   4.363   3.105  12.615  0.0755  0.9149 -0.5345
15740TIP3   OH268634   6.250   3.250  11.694  0.1881 -0.3205  0.0149
15740TIP3    H168635   6.326   3.223  11.745  0.2233 -0.7776 -0.2758
15740TIP3    H268636   6.279   3.246  11.603  0.1090  0.4447 -0.0503
15741TIP3   OH268637   0.103   4.311   3.701 -0.0294  0.6316 -0.0369
15741TIP3    H168638   0.089   4.273   3.787  1.0171  2.6256  1.0856
15741TIP3    H268639   0.166   4.382   3.716  0.4989  0.7740 -2.5078
15742TIP3   OH268640   3.053   2.643   6.775  0.6659  0.0989  0.4225
15742TIP3    H168641   3.142   2.660   6.744  1.2881 -2.3405  0.6529
15742TIP3    H268642   3.006   2.725   6.759  2.2767  0.6546 -2.0702
15743TIP3   OH268643   1.759   5.115  15.014  0.6904 -0.1815 -0.2301
15743TIP3    H168644   1.762   5.105  14.919  1.5903  0.9657 -0.3461
15743TIP3    H268645   1.711   5.038  15.045 -1.0822  0.2420 -1.7334
15744TIP3   OH268646   6.675   2.143   4.250  0.2685 -0.3073  0.3782
15744TIP3    H168647   6.608   2.111   4.311  0.6380 -0.7112  0.5795
15744TIP3    H268648   6.727   2.205   4.302 -0.6314  0.8880 -0.0950
15745TIP3   OH268649   5.130   0.362  14.710 -0.0562  0.5110  0.5299
15745TIP3    H168650   5.044   0.331  14.738  0.8874 -2.2290  0.6806
15745TIP3    H268651   5.112   0.445  14.667 -2.9497 -0.4895 -0.4597
15746TIP3   OH268652   4.509   3.964  11.155 -0.1411  0.1258  0.3124
15746TIP3    H168653   4.522   4.042  11.101  0.0740 -0.4491 -0.4813
15746TIP3    H268654   4.581   3.906  11.132 -0.9075 -0.7563  0.0817
15747TIP3   OH268655   2.966   3.450   5.166 -0.4447 -0.6040 -0.0014
15747TIP3    H168656   3.001   3.397   5.237  0.7535  0.4350  0.2340
15747TIP3    H268657   3.007   3.536   5.178 -1.3323  0.0069 -1.1070
15748TIP3   OH268658   2.650   6.096   2.616 -0.1016  0.1197  0.0285
15748TIP3    H168659   2.608   6.119   2.533 -0.7423  1.2057  0.6407
15748TIP3    H268660   2.596   6.026   2.652 -0.1027 -0.0143 -0.2334
15749TIP3   OH268661   6.416   2.268  13.485 -0.4828 -0.2104  0.7145
15749TIP3    H168662   6.457   2.193  13.443  0.0521  0.5427 -0.1471
15749TIP3    H268663   6.322   2.253  13.476 -0.3822 -0.9229  0.8334
15750TIP3   OH268664   1.343   0.961  13.736 -0.2759  0.2015 -0.1231
15750TIP3    H168665   1.331   0.924  13.648  0.2581 -2.3881  0.8150
15750TIP3    H268666   1.437   0.975  13.744 -0.4447  1.6448 -0.3714
15751TIP3   OH268667   0.027   1.252  13.703  0.6189 -0.4697 -0.9126
15751TIP3    H168668   0.094   1.191  13.671 -0.1603 -0.8895 -1.7770
15751TIP3    H268669   0.077   1.329  13.733  1.6978 -1.8825  1.1245
15752TIP3   OH268670   1.184   5.779  13.370  0.2021 -0.1488  0.7118
15752TIP3    H168671   1.150   5.744  13.288 -0.5651 -0.6330  1.2206
15752TIP3    H268672   1.115   5.838  13.401 -0.2292 -1.1657  1.7760
15753TIP3   OH268673   1.297   2.551   3.858  0.0669  0.3934  0.0528
15753TIP3    H168674   1.214   2.595   3.879  0.0417  0.7578 -0.7722
15753TIP3    H268675   1.363   2.620   3.868  0.0384  0.6178 -1.1607
15754TIP3   OH268676   0.195   1.012  13.550  0.0108 -0.4926 -0.3915
15754TIP3    H168677   0.140   0.945  13.510  2.1383 -1.9844 -0.9834
15754TIP3    H268678   0.274   1.012  13.497  0.0913  2.5591 -0.4109
15755TIP3   OH268679   5.773   0.245   3.342  0.1974  0.0306  0.0201
15755TIP3    H168680   5.836   0.212   3.406 -1.0591  0.4841  1.5400
15755TIP3    H268681   5.705   0.288   3.394 -0.9924  0.2282 -1.6076
15756TIP3   OH268682   6.069   2.963  13.345  0.2782 -0.4736 -0.2000
15756TIP3    H168683   6.138   2.902  13.320  0.2381 -0.3242 -0.6745
15756TIP3    H268684   6.033   2.926  13.426 -1.1473 -2.2171 -1.5581
15757TIP3   OH268685   4.678   0.524   2.936  0.1474  0.0842 -0.1385
15757TIP3    H168686   4.637   0.530   2.850  0.7500 -1.9844 -0.6362
15757TIP3    H268687   4.758   0.576   2.929 -0.1831  0.5423 -0.5595
15758TIP3   OH268688   1.458   0.555  14.503  0.0787 -0.5311 -0.3628
15758TIP3    H168689   1.427   0.534  14.591  1.3567 -1.4763 -0.1104
15758TIP3    H268690   1.479   0.470  14.464  0.6312 -0.0441 -1.1545
15759TIP3   OH268691   5.008   1.701  11.215 -0.3357  0.0679  0.0448
15759TIP3    H168692   5.095   1.715  11.252 -0.9634  0.3778  1.4524
15759TIP3    H268693   4.990   1.608  11.230 -0.2879  0.0239 -0.1672
15760TIP3   OH268694   4.897   4.822  16.058  0.7484 -0.0635 -0.9396
15760TIP3    H168695   4.808   4.814  16.092  1.5748 -0.2330  1.3332
15760TIP3    H268696   4.913   4.916  16.054  0.5247 -0.0362 -1.2045
15761TIP3   OH268697   3.194   0.620   5.515  0.3627 -0.1831  0.2516
15761TIP3    H168698   3.159   0.707   5.496  0.1143 -0.0424  1.3237
15761TIP3    H268699   3.141   0.561   5.461  0.1893  0.2779 -0.0895
15762TIP3   OH268700   1.532   0.354   5.996  0.2267  0.3853  0.2267
15762TIP3    H168701   1.449   0.349   6.043  0.2051  0.5308  0.2047
15762TIP3    H268702   1.588   0.408   6.052 -0.0912  1.3270 -0.3429
15763TIP3   OH268703   5.101   0.843  13.398  0.1488 -0.6292 -0.5561
15763TIP3    H168704   5.054   0.916  13.358  0.0791 -0.3354  0.0361
15763TIP3    H268705   5.166   0.817  13.333  0.6416  0.4340 -0.5145
15764TIP3   OH268706   0.545   1.134   4.738 -0.2049 -0.0867 -0.4981
15764TIP3    H168707   0.552   1.077   4.815 -0.2463 -0.3558 -0.6926
15764TIP3    H268708   0.487   1.204   4.766 -0.5265 -0.3883 -0.4062
15765TIP3   OH268709   4.318   6.391  13.163 -0.8999 -0.2893  0.1504
15765TIP3    H168710   4.255   6.320  13.152 -1.4969  0.1566  0.6570
15765TIP3    H268711   4.343   6.387  13.255  0.2001 -0.7779 -0.1531
15766TIP3   OH268712   3.320   0.534  13.169 -0.2572  0.1142 -0.1573
15766TIP3    H168713   3.379   0.610  13.167  1.5132 -1.0610 -4.4955
15766TIP3    H268714   3.377   0.460  13.189 -1.2508 -0.5342  0.3348
15767TIP3   OH268715   3.151   4.311   1.396 -0.2184  0.7164  0.5432
15767TIP3    H168716   3.187   4.322   1.308  0.2549 -0.8312  0.5102
15767TIP3    H268717   3.132   4.217   1.402 -1.1458  0.9639  1.7550
15768TIP3   OH268718   4.438   4.080   4.534 -0.5731 -0.1889  0.1581
15768TIP3    H168719   4.403   4.028   4.605  1.3657 -0.8645  0.6911
15768TIP3    H268720   4.508   4.132   4.574  1.3987 -1.4698 -1.4040
15769TIP3   OH268721   4.029   1.551   0.587 -0.2673 -0.2347  0.1769
15769TIP3    H168722   4.084   1.623   0.619 -0.4342 -0.0998  0.1665
15769TIP3    H268723   3.978   1.590   0.516 -0.0214 -0.4899 -0.1410
15770TIP3   OH268724   2.775   4.665   4.589  0.3918 -0.0894 -0.0377
15770TIP3    H168725   2.811   4.658   4.678  1.5058  0.8500 -0.3902
15770TIP3    H268726   2.704   4.729   4.597  2.0538  1.8760 -0.2284
15771TIP3   OH268727   3.820   1.263  15.724  0.4879 -0.0330  0.6959
15771TIP3    H168728   3.878   1.197  15.687 -0.2611 -0.7921  0.8431
15771TIP3    H268729   3.750   1.271  15.659 -0.4385 -0.8165  1.5603
15772TIP3   OH268730   6.424   5.150  12.780 -0.2918 -0.0953  0.7656
15772TIP3    H168731   6.359   5.127  12.846 -1.5274 -0.0931 -0.4121
15772TIP3    H268732   6.505   5.163  12.829 -0.7210 -1.9894  2.0523
15773TIP3   OH268733   2.675   2.771  14.737 -0.0611  0.0894 -0.2746
15773TIP3    H168734   2.743   2.811  14.683 -0.1762  0.7983  0.0957
15773TIP3    H268735   2.600   2.761  14.679 -1.0024  3.0191  0.2649
15774TIP3   OH268736   3.830   4.109   5.896 -0.7540 -0.0874 -0.0511
15774TIP3    H168737   3.894   4.041   5.874 -1.7823 -0.6585 -1.4194
15774TIP3    H268738   3.749   4.080   5.853 -1.8825  0.7295  1.4505
15775TIP3   OH268739   6.202   3.890  14.849 -0.0463  0.1019  0.5921
15775TIP3    H168740   6.129   3.950  14.865  0.5251  0.4707  1.9235
15775TIP3    H268741   6.161   3.804  14.841 -0.9859  0.6908 -2.2263
15776TIP3   OH268742   2.885   3.357  17.085 -0.2815 -0.3776  0.2970
15776TIP3    H168743   2.907   3.294  17.017 -2.2253 -1.9955  1.0391
15776TIP3    H268744   2.839   3.427  17.039  2.1618  0.7287 -0.5812
15777TIP3   OH268745   1.446   6.389   4.184  0.7653  0.2391 -0.1726
15777TIP3    H168746   1.464   6.299   4.212  1.8517  0.8285  1.1293
15777TIP3    H268747   1.497   6.400   4.104  2.7341  0.4704  1.0528
15778TIP3   OH268748   2.340   1.215   1.886  0.3401 -0.2276  0.5272
15778TIP3    H168749   2.293   1.283   1.838  1.4582  0.8275  0.8840
15778TIP3    H268750   2.391   1.170   1.820  1.4398  0.8539  0.6166
15779TIP3   OH268751   3.610   2.736   4.131  0.0128  0.2317  0.3243
15779TIP3    H168752   3.609   2.654   4.181  0.9420  0.3224  0.5153
15779TIP3    H268753   3.702   2.747   4.107 -0.0602  1.3573  0.5291
15780TIP3   OH268754   6.463   0.411  12.497  0.2408  0.5701 -0.6379
15780TIP3    H168755   6.530   0.436  12.433 -1.4289 -0.3605 -2.9008
15780TIP3    H268756   6.454   0.316  12.487 -1.3219  0.6544 -0.3411
15781TIP3   OH268757   2.098   6.689  13.794 -0.0408 -0.0116  0.3990
15781TIP3    H168758   2.163   6.708  13.862  1.6476 -0.4186 -1.0324
15781TIP3    H268759   2.090   6.771  13.745  1.0297 -0.5503 -0.7225
15782TIP3   OH268760   2.354   6.674   0.813 -0.0983 -0.2543 -0.2175
15782TIP3    H168761   2.338   6.718   0.897  4.0439 -1.0237  1.2150
15782TIP3    H268762   2.316   6.587   0.824 -0.6254  0.0482  0.4015
15783TIP3   OH268763   4.728   5.470   5.380 -0.4148 -0.5011 -0.1443
15783TIP3    H168764   4.696   5.385   5.350 -1.6120  0.1226 -0.7359
15783TIP3    H268765   4.693   5.532   5.316  0.2684  0.4574  0.3916
15784TIP3   OH268766   3.688   1.013  12.542  0.0009  0.0408 -0.2495
15784TIP3    H168767   3.778   1.026  12.573 -0.0683 -1.3552  0.6460
15784TIP3    H268768   3.636   1.076  12.593  0.1825 -0.7512  0.9616
15785TIP3   OH268769   0.649   6.203  16.009  0.5098  0.1061  0.5747
15785TIP3    H168770   0.707   6.164  15.943  1.4725 -0.8724  1.9349
15785TIP3    H268771   0.708   6.254  16.065 -0.3682  1.3807  0.3683
15786TIP3   OH268772   0.278   4.381   2.829 -0.1516 -0.1347  0.7675
15786TIP3    H168773   0.233   4.374   2.746  0.6827 -2.2290  0.4450
15786TIP3    H268774   0.356   4.434   2.810  1.1264 -2.2983 -0.3267
15787TIP3   OH268775   5.642   2.338  14.687  0.0700 -0.5762 -0.8676
15787TIP3    H168776   5.700   2.414  14.680 -2.2870  1.5392  0.8754
15787TIP3    H268777   5.657   2.305  14.775 -4.2943  2.9289  1.6559
15788TIP3   OH268778   2.159   5.639   1.623  0.2365 -0.8304  0.2335
15788TIP3    H168779   2.217   5.579   1.671  0.8740 -0.9389 -0.6364
15788TIP3    H268780   2.101   5.581   1.574 -0.4029 -0.7204  0.8472
15789TIP3   OH268781   0.985   1.913  12.545  0.1979 -0.3667  0.2608
15789TIP3    H168782   0.971   1.998  12.504 -0.3023 -0.0227  1.1090
15789TIP3    H268783   0.916   1.857  12.508  0.7568 -0.5217 -0.5789
15790TIP3   OH268784   0.289   3.246   0.719 -0.3813  0.1525 -0.4382
15790TIP3    H168785   0.303   3.212   0.631  1.2342  0.4601 -0.3378
15790TIP3    H268786   0.195   3.240   0.733 -0.3436 -3.1598 -0.8616
15791TIP3   OH268787   1.514   0.316  11.855  0.3716  0.3813  0.0300
15791TIP3    H168788   1.559   0.251  11.800 -0.4459  0.8162 -1.1820
15791TIP3    H268789   1.424   0.284  11.860 -0.3514  2.0106 -1.5989
15792TIP3   OH268790   0.959   3.166  15.520 -0.2326 -0.4195 -0.0899
15792TIP3    H168791   0.864   3.171  15.529 -0.4977 -3.4111 -0.3816
15792TIP3    H268792   0.990   3.142  15.607  0.0273 -1.4385 -0.4511
15793TIP3   OH268793   4.829   3.176   4.715 -0.1165  0.4973  0.4033
15793TIP3    H168794   4.760   3.177   4.648  1.1558  2.5391 -0.9841
15793TIP3    H268795   4.906   3.143   4.669  0.0731 -1.1274  1.7697
15794TIP3   OH268796   5.981   4.982   3.520  0.0559 -0.5712 -0.2957
15794TIP3    H168797   5.929   4.905   3.543  0.2036 -0.6942 -0.3664
15794TIP3    H268798   5.998   4.971   3.426 -2.1138  0.8547 -0.9402
15795TIP3   OH268799   6.483   3.383  15.062 -0.5718  0.4025 -0.2614
15795TIP3    H168800   6.519   3.300  15.092 -2.6203  0.1569  1.8483
15795TIP3    H268801   6.441   3.362  14.979  1.0717 -0.0455 -1.0207
15796TIP3   OH268802   0.652   1.518   5.440 -0.2056  0.1796 -0.0339
15796TIP3    H168803   0.635   1.601   5.395  1.1218  0.2665 -0.4224
15796TIP3    H268804   0.665   1.543   5.531 -2.5610  0.0432  0.4094
15797TIP3   OH268805   6.586   5.496  17.235 -0.2699 -0.3137  0.4340
15797TIP3    H168806   6.579   5.485  17.330 -1.9081  0.1797  0.3986
15797TIP3    H268807   6.538   5.421  17.199 -2.7314  1.3334  0.0738
15798TIP3   OH268808   5.605   1.592   1.730  0.3014 -0.2904 -0.3061
15798TIP3    H168809   5.665   1.666   1.717  0.5536 -0.6201 -1.0791
15798TIP3    H268810   5.654   1.516   1.700 -0.1662 -0.7021 -0.0468
15799TIP3   OH268811   2.823   0.035  13.659 -0.2611 -0.2907  0.4483
15799TIP3    H168812   2.828   0.077  13.573  1.3381 -1.2683  0.0115
15799TIP3    H268813   2.908   0.053  13.699 -0.6706 -0.5774  1.4717
15800TIP3   OH268814   4.209   6.252   5.647 -0.4407  0.7402 -0.7185
15800TIP3    H168815   4.201   6.190   5.575  1.3559 -0.4980  0.0699
15800TIP3    H268816   4.225   6.198   5.724  1.6619  2.1453 -0.0678
15801TIP3   OH268817   1.247   3.919  14.986 -0.0524 -0.9367  0.1002
15801TIP3    H168818   1.300   3.998  14.974  0.5721 -1.0765  1.6193
15801TIP3    H268819   1.302   3.848  14.953 -1.2919 -0.6285 -2.8700
15802TIP3   OH268820   3.829   6.574   3.495 -0.0441  0.3504 -0.1775
15802TIP3    H168821   3.836   6.515   3.420  1.7120 -1.4010  1.2702
15802TIP3    H268822   3.822   6.661   3.456  2.3079 -0.3382 -2.4173
15803TIP3   OH268823   2.836   4.203  12.116  0.5968  0.0980  0.1324
15803TIP3    H168824   2.918   4.155  12.124  0.1597 -0.6872  0.0843
15803TIP3    H268825   2.810   4.191  12.025 -1.5170 -3.0690  0.9524
15804TIP3   OH268826   4.678   5.619   0.005 -0.0834 -0.6281 -0.0934
15804TIP3    H168827   4.656   5.692   0.062  1.9987  0.5309 -0.6594
15804TIP3    H268828   4.754   5.578   0.046  1.1544 -0.0662 -1.6869
15805TIP3   OH268829   4.799   2.589  17.243 -0.0653  0.3297 -0.2933
15805TIP3    H168830   4.787   2.541  17.325 -2.1236  2.5541  0.8409
15805TIP3    H268831   4.712   2.589  17.203  0.9057 -0.7007 -2.5521
15806TIP3   OH268832   2.749   3.941   1.766 -0.3557 -0.5865  0.1680
15806TIP3    H168833   2.708   3.863   1.728 -2.6897  0.0338  1.2293
15806TIP3    H268834   2.680   3.980   1.819  1.4445  0.9990  1.4495
15807TIP3   OH268835   1.961   2.757  15.186  0.2946  0.3039  0.1225
15807TIP3    H168836   1.948   2.852  15.196  1.3167  0.4865 -0.0897
15807TIP3    H268837   1.952   2.742  15.092  1.4286  0.4253 -0.0209
15808TIP3   OH268838   4.139   2.215  10.927 -0.2302  0.0889  0.0889
15808TIP3    H168839   4.056   2.181  10.962  1.0670 -3.0584  0.3988
15808TIP3    H268840   4.123   2.227  10.833 -0.8528 -1.1402  0.0296
15809TIP3   OH268841   5.142   4.917   3.643  0.6194 -0.2009 -0.1871
15809TIP3    H168842   5.206   4.989   3.642  0.5866 -0.0815  1.9801
15809TIP3    H268843   5.112   4.911   3.552  1.5661  1.6707 -0.6855
15810TIP3   OH268844   3.176   6.533   5.297 -0.2469  0.5225  0.0048
15810TIP3    H168845   3.237   6.602   5.325  2.5997 -0.8964 -2.1605
15810TIP3    H268846   3.212   6.453   5.335 -2.4151 -0.0804  0.9202
15811TIP3   OH268847   6.302   1.836  13.770 -0.1844  0.2046  0.4720
15811TIP3    H168848   6.245   1.862  13.842 -1.1603 -0.3571 -0.0786
15811TIP3    H268849   6.244   1.829  13.694  0.4483 -1.1916  0.0855
15812TIP3   OH268850   6.728   0.721   2.058 -0.0240 -0.0092  0.4163
15812TIP3    H168851   6.770   0.806   2.044 -1.4425  0.8177  1.0018
15812TIP3    H268852   6.670   0.711   1.982 -0.2637 -0.1917  0.6242
15813TIP3   OH268853   0.565   4.790   5.916  0.1378 -0.0522 -0.2108
15813TIP3    H168854   0.629   4.727   5.884  0.6253  0.0686  0.5025
15813TIP3    H268855   0.610   4.874   5.913  0.8021 -0.2394  2.2854
15814TIP3   OH268856   6.222   5.686   5.863  0.3439 -0.6238 -0.5615
15814TIP3    H168857   6.278   5.759   5.889 -1.4476  0.1817  1.3221
15814TIP3    H268858   6.262   5.653   5.783  2.8636  0.5644  0.0984
15815TIP3   OH268859   0.197   5.098   1.938 -0.0387 -0.2230 -0.1112
15815TIP3    H168860   0.139   5.087   1.863  0.3377 -0.3994 -0.3785
15815TIP3    H268861   0.256   5.168   1.913  0.7160 -0.9343 -0.3814
15816TIP3   OH268862   2.763   6.717   4.701  0.2454  0.2547  0.1558
15816TIP3    H168863   2.852   6.706   4.669 -0.3767  0.6474 -1.8621
15816TIP3    H268864   2.749   6.811   4.704 -0.2399  0.1925 -0.0027
15817TIP3   OH268865   2.394   3.066  15.221 -0.3898  0.4567  0.1455
15817TIP3    H168866   2.365   2.975  15.219 -2.0706  0.9482  0.5963
15817TIP3    H268867   2.316   3.117  15.199  1.0898  1.7277 -2.7112
15818TIP3   OH268868   6.074   0.018  16.516  0.9169 -0.1489  0.0066
15818TIP3    H168869   6.105   0.077  16.448  1.0658 -0.4873 -0.2217
15818TIP3    H268870   6.148  -0.040  16.534  0.7455 -0.3224  0.1669
15819TIP3   OH268871   6.139   0.459   3.257  0.2901 -0.1703 -0.4367
15819TIP3    H168872   6.119   0.372   3.291 -0.9600  0.0640 -0.5357
15819TIP3    H268873   6.070   0.515   3.292  0.6951  0.6565 -0.9341
15820TIP3   OH268874   1.899   4.934   1.280  0.0306 -0.5586  0.0372
15820TIP3    H168875   1.991   4.920   1.257  0.0243 -0.8639  0.1847
15820TIP3    H268876   1.872   5.009   1.227  0.7752  0.4888  1.0668
15821TIP3   OH268877   1.533   4.296  12.917 -0.2095  0.2459 -0.0606
15821TIP3    H168878   1.582   4.365  12.962 -1.2205  0.6657  0.4274
15821TIP3    H268879   1.444   4.301  12.954 -0.6004 -0.5648 -0.8423
15822TIP3   OH268880   3.484   4.814   3.617  0.5250 -0.0310 -0.3759
15822TIP3    H168881   3.499   4.888   3.558  0.7747  0.3475  0.1593
15822TIP3    H268882   3.497   4.849   3.705 -1.0577 -0.2879 -0.0006
15823TIP3   OH268883   0.588   5.242   0.566  0.1030 -0.0119 -0.5027
15823TIP3    H168884   0.668   5.278   0.604 -0.3281  0.5200 -0.0866
15823TIP3    H268885   0.609   5.230   0.473  0.9457 -0.7071 -0.2350
15824TIP3   OH268886   4.241   5.269  15.069 -0.1733 -0.3907  0.5217
15824TIP3    H168887   4.280   5.307  14.990  0.0029 -0.7014  0.4554
15824TIP3    H268888   4.316   5.238  15.120 -0.2811 -0.1100  0.8556
15825TIP3   OH268889   3.269   1.543  14.576 -0.1742 -0.3949  0.5838
15825TIP3    H168890   3.234   1.599  14.507 -0.4505 -1.1753  0.0770
15825TIP3    H268891   3.246   1.588  14.657  0.3719  0.6659  0.1827
15826TIP3   OH268892   0.325   6.162   1.342 -0.0508 -0.7215 -0.5111
15826TIP3    H168893   0.330   6.219   1.265 -1.0168  0.8278  0.4926
15826TIP3    H268894   0.400   6.188   1.396 -1.2185  0.6430  0.5558
15827TIP3   OH268895   5.080   3.178  15.711  0.1616 -0.4242  0.3573
15827TIP3    H168896   5.018   3.233  15.663  0.1300 -0.5325  0.2740
15827TIP3    H268897   5.092   3.101  15.656  1.6322  0.3176 -0.4425
15828TIP3   OH268898   0.681   3.374   2.965 -0.5734  0.8880  0.1814
15828TIP3    H168899   0.688   3.413   2.878  0.3486  0.0911 -0.1092
15828TIP3    H268900   0.771   3.371   2.998 -0.5889 -0.9415  0.1950
15829TIP3   OH268901   4.241   1.307  15.276  0.1527  0.1667  0.3000
15829TIP3    H168902   4.294   1.290  15.198 -0.1008 -1.0785  0.3910
15829TIP3    H268903   4.183   1.379  15.249  1.1638  0.8624 -0.1220
15830TIP3   OH268904   0.405   0.130   1.070 -0.0772 -0.1810 -0.2662
15830TIP3    H168905   0.493   0.124   1.108 -0.6861 -0.9084  1.1196
15830TIP3    H268906   0.419   0.124   0.976  1.2011 -2.8243 -0.0019
15831TIP3   OH268907   3.855   1.611  16.711  0.4779  0.2296  0.7255
15831TIP3    H168908   3.778   1.667  16.708  0.4843  0.4348  2.6746
15831TIP3    H268909   3.896   1.632  16.795  1.9798 -0.7645  0.2836
15832TIP3   OH268910   1.254   2.436   1.516 -0.2562 -0.3698  0.8282
15832TIP3    H168911   1.287   2.375   1.582  0.2554  1.1919  2.0587
15832TIP3    H268912   1.295   2.408   1.434  1.7077 -0.3525  1.7702
15833TIP3   OH268913   6.255   3.617   4.069  0.0908  0.1143  0.0442
15833TIP3    H168914   6.347   3.605   4.091  0.0206  0.7143  0.7072
15833TIP3    H268915   6.212   3.635   4.153 -0.6149 -0.0894 -0.2670
15834TIP3   OH268916   0.033   2.204  16.594  0.6690  0.3063  0.5645
15834TIP3    H168917   0.127   2.185  16.591  1.1295  2.4497 -0.4940
15834TIP3    H268918   0.028   2.297  16.615 -1.2448  0.1988  0.7230
15835TIP3   OH268919   1.505   5.399   5.386 -0.0853 -0.1392 -0.2415
15835TIP3    H168920   1.531   5.404   5.478  1.3311 -1.9242 -0.4881
15835TIP3    H268921   1.587   5.410   5.337 -0.5605 -0.8734 -1.2377
15836TIP3   OH268922   3.908   0.492   4.301 -0.0753 -0.1022 -0.3270
15836TIP3    H168923   3.858   0.549   4.242  0.9367 -0.5574 -1.6859
15836TIP3    H268924   3.895   0.530   4.388 -0.8862  1.1316 -0.9517
15837TIP3   OH268925   4.580   5.026   6.135 -0.7322 -0.0453  0.5201
15837TIP3    H168926   4.509   5.074   6.178  0.0645 -1.2303  3.3539
15837TIP3    H268927   4.540   4.943   6.109 -1.0199  0.3758 -0.4588
15838TIP3   OH268928   5.641   5.437   2.940 -0.3434 -0.2242 -0.6864
15838TIP3    H168929   5.570   5.416   3.000  1.4801 -1.9043  0.9956
15838TIP3    H268930   5.693   5.503   2.986 -0.1022  0.0891 -1.3826
15839TIP3   OH268931   0.654   1.461  13.349  0.1355  0.1948 -0.2584
15839TIP3    H168932   0.566   1.466  13.310  0.2514 -0.8769 -0.6859
15839TIP3    H268933   0.714   1.472  13.276  0.3771  1.0684  0.0544
15840TIP3   OH268934   1.495   5.897   1.482  0.0647 -0.2132 -0.2160
15840TIP3    H168935   1.492   5.993   1.487 -0.2818 -0.2684  1.1117
15840TIP3    H268936   1.573   5.873   1.531  0.3849 -0.6049 -0.9027
15841TIP3   OH268937   6.269   2.600   6.491  0.2910  0.3445 -0.2188
15841TIP3    H168938   6.304   2.548   6.564  0.2933  0.2795 -0.2665
15841TIP3    H268939   6.205   2.543   6.449  0.3481  0.3519 -0.3167
15842TIP3   OH268940   4.271   3.156   4.421 -0.0222  0.5148  0.4621
15842TIP3    H168941   4.191   3.124   4.461 -0.4798 -1.0037 -1.5030
15842TIP3    H268942   4.242   3.224   4.360  0.4808  1.6189  1.4098
15843TIP3   OH268943   6.494   6.704  12.712 -0.2463 -0.0952  0.0678
15843TIP3    H168944   6.586   6.730  12.711 -0.1943 -0.2921 -0.8001
15843TIP3    H268945   6.478   6.667  12.626 -1.2565  0.3353  0.0535
15844TIP3   OH268946   1.545   0.921  13.999 -0.2186 -0.2637 -0.4974
15844TIP3    H168947   1.484   0.859  14.039 -0.0612 -0.2392 -0.2143
15844TIP3    H268948   1.572   0.879  13.917  0.1495 -0.7285 -0.1484
15845TIP3   OH268949   0.999   2.988   5.092  0.0824  0.1109  0.6837
15845TIP3    H168950   1.055   2.914   5.116 -1.5132 -1.3026  0.2132
15845TIP3    H268951   1.061   3.059   5.074  1.7344 -1.3737  0.1587
15846TIP3   OH268952   1.489   4.532  13.083 -0.3137 -0.1171 -0.0976
15846TIP3    H168953   1.476   4.586  13.161  1.9095  1.0287 -0.4287
15846TIP3    H268954   1.583   4.512  13.084 -0.5020 -1.2483 -1.7554
15847TIP3   OH268955   2.094   4.383  11.153 -0.3030 -0.3537  0.1144
15847TIP3    H168956   2.046   4.451  11.199  0.9102 -0.5548  1.7476
15847TIP3    H268957   2.035   4.307  11.154 -0.0128 -0.6061  2.1149
15848TIP3   OH268958   3.563   1.796  13.045 -0.4664 -0.1418  0.0005
15848TIP3    H168959   3.537   1.817  13.134 -1.8918  2.9933 -0.9996
15848TIP3    H268960   3.487   1.750  13.008 -0.4179 -0.2442  0.0283
15849TIP3   OH268961   0.701   1.180   5.132  0.4120  0.1385  0.5604
15849TIP3    H168962   0.712   1.181   5.227 -0.7114  1.2468  0.7087
15849TIP3    H268963   0.741   1.262   5.102 -0.7695  0.6555  0.3105
15850TIP3   OH268964   4.052   1.976  13.842  0.2335 -0.0325 -0.1923
15850TIP3    H168965   4.032   1.884  13.858  0.3220  0.1540  1.1005
15850TIP3    H268966   4.125   1.974  13.780 -0.1041 -0.8225 -0.5718
15851TIP3   OH268967   4.452   1.585   0.600 -0.1244 -0.1308 -0.1006
15851TIP3    H168968   4.456   1.678   0.582 -1.7465  0.0282  0.1604
15851TIP3    H268969   4.439   1.544   0.514  0.7350 -0.1425 -0.2316
15852TIP3   OH268970   1.485   2.560   5.351 -0.3059 -0.0712  0.1314
15852TIP3    H168971   1.414   2.507   5.317 -1.1116  0.2419  1.2681
15852TIP3    H268972   1.444   2.617   5.417  0.6168  1.5579 -0.6218
15853TIP3   OH268973   5.808   3.124   4.386  0.0885  0.5878  0.3649
15853TIP3    H168974   5.878   3.162   4.438  1.0501 -0.2634 -0.2520
15853TIP3    H268975   5.754   3.077   4.449 -0.4591  1.9863  0.9697
15854TIP3   OH268976   0.319   5.663   5.954 -0.0189 -0.2138 -0.2756
15854TIP3    H168977   0.280   5.589   6.001 -0.5752 -0.4493 -1.0852
15854TIP3    H268978   0.369   5.711   6.020  0.7547 -1.5815  0.1706
15855TIP3   OH268979   5.843   2.639  15.895 -0.1393  0.1882  0.5712
15855TIP3    H168980   5.902   2.691  15.839 -0.3348 -0.5457 -0.3384
15855TIP3    H268981   5.808   2.702  15.957  1.2662  0.7335  0.8529
15856TIP3   OH268982   1.549   5.896   3.951 -0.1991 -0.3705  0.3823
15856TIP3    H168983   1.507   5.891   4.037 -1.0957 -0.3687 -0.0427
15856TIP3    H268984   1.575   5.988   3.942  0.3802 -0.4849  0.8713
15857TIP3   OH268985   4.675   0.651  11.819 -0.9473  0.0129  0.1914
15857TIP3    H168986   4.698   0.582  11.757 -0.2573  0.5192 -0.1214
15857TIP3    H268987   4.599   0.694  11.778  0.3120  1.2037 -0.9935
15858TIP3   OH268988   4.924   3.227  11.885 -0.4929 -0.3822  0.6962
15858TIP3    H168989   4.863   3.199  11.817  1.0689 -0.7374 -0.6373
15858TIP3    H268990   4.930   3.152  11.944 -0.5974 -0.7123  0.2886
15859TIP3   OH268991   5.246   5.302  10.668  0.0601 -0.3418  0.6685
15859TIP3    H168992   5.287   5.241  10.730  2.1704  1.7141  1.4524
15859TIP3    H268993   5.315   5.322  10.605 -0.9522  0.3319 -0.2536
15860TIP3   OH268994   4.666   5.437  14.342 -0.3989 -0.2255 -0.1747
15860TIP3    H168995   4.704   5.514  14.384 -0.4263 -0.6612  0.6853
15860TIP3    H268996   4.741   5.385  14.315 -0.1483 -2.2503  3.6479
15861TIP3   OH268997   0.324   2.946   2.048 -0.4055 -0.0956 -0.6504
15861TIP3    H168998   0.229   2.948   2.064 -0.8446 -1.1718 -2.8014
15861TIP3    H268999   0.335   2.990   1.964  1.0457  0.1610 -0.3487
15862TIP3   OH269000   0.781   5.832  16.510 -0.0542 -0.3586  0.1360
15862TIP3    H169001   0.848   5.896  16.532  0.7805 -1.5834  1.3664
15862TIP3    H269002   0.698   5.876  16.531  0.5473 -0.0172  2.0317
15863TIP3   OH269003   5.193   6.133   0.802 -0.6181  0.1060  0.0121
15863TIP3    H169004   5.249   6.206   0.775  0.6510 -0.6212  0.5670
15863TIP3    H269005   5.172   6.089   0.720  2.4274 -1.5320 -0.0414
15864TIP3   OH269006   5.469   1.592  16.486  0.0787 -0.2052  0.4827
15864TIP3    H169007   5.468   1.549  16.401  0.5247  0.3111  0.2088
15864TIP3    H269008   5.443   1.524  16.548 -1.9181 -0.1604 -0.2426
15865TIP3   OH269009   3.760   5.418  11.662 -0.0156 -0.4501 -0.3951
15865TIP3    H169010   3.705   5.339  11.655  0.0169 -0.4313 -0.9755
15865TIP3    H269011   3.847   5.384  11.682  0.1322 -0.6231 -1.2555
15866TIP3   OH269012   2.407   2.647   5.814  0.0506 -0.2359 -0.3157
15866TIP3    H169013   2.421   2.740   5.833  0.2349 -0.4361  0.5572
15866TIP3    H269014   2.444   2.635   5.726 -0.5254  0.6436 -0.6900
15867TIP3   OH269015   0.329   4.974  11.474  0.0655  0.1427 -0.1612
15867TIP3    H169016   0.390   4.947  11.543  0.9087 -1.3032 -1.4084
15867TIP3    H269017   0.353   5.064  11.454  0.1327  0.4161  1.0529
15868TIP3   OH269018   5.378   2.211  14.387  0.1105 -0.1648  0.2681
15868TIP3    H169019   5.292   2.219  14.346  0.4518  0.9593 -0.2720
15868TIP3    H269020   5.386   2.290  14.440  0.8159 -0.2654  0.3189
15869TIP3   OH269021   3.268   5.488   0.840 -0.0785  0.0438 -0.2897
15869TIP3    H169022   3.332   5.418   0.845 -1.2455 -0.9972  0.9555
15869TIP3    H269023   3.233   5.483   0.751  0.3406 -0.5134 -0.4249
15870TIP3   OH269024   0.963   4.383   4.584 -0.3989 -0.1539  0.3209
15870TIP3    H169025   0.993   4.445   4.518 -1.2398 -0.5389 -0.4608
15870TIP3    H269026   0.900   4.432   4.637 -0.3354 -0.0715  0.3195
15871TIP3   OH269027   3.984   2.443  16.584 -0.0465 -0.5442 -0.2081
15871TIP3    H169028   4.053   2.378  16.569  0.6285  0.3725 -1.1556
15871TIP3    H269029   3.931   2.405  16.655  2.7548 -0.2518  2.2484
15872TIP3   OH269030   1.711   5.261   6.263  0.2683 -0.0210 -0.4295
15872TIP3    H169031   1.728   5.332   6.325 -0.2593 -0.2547 -0.0065
15872TIP3    H269032   1.664   5.195   6.315 -0.8519  0.1083 -1.2712
15873TIP3   OH269033   6.557   6.648  16.476 -0.6702 -0.1013 -0.8325
15873TIP3    H169034   6.507   6.713  16.426  0.0822  0.3331 -1.0355
15873TIP3    H269035   6.649   6.668  16.457 -0.4261 -1.4089 -1.1214
15874TIP3   OH269036   3.673   4.620  12.571  0.1601  0.4363 -0.0001
15874TIP3    H169037   3.733   4.686  12.537  2.2311 -0.0485  2.3838
15874TIP3    H269038   3.727   4.542  12.582 -0.9210 -0.1053  2.0071
15875TIP3   OH269039   3.469   1.321   0.913  0.5802  0.3310 -0.1231
15875TIP3    H169040   3.513   1.333   0.997  1.4272 -0.8648 -0.3749
15875TIP3    H269041   3.394   1.265   0.934  0.3379  0.6761 -0.0472
15876TIP3   OH269042   2.353   2.710  13.447 -0.1599 -0.1432 -0.0282
15876TIP3    H169043   2.393   2.748  13.369 -1.6346 -0.1818 -0.8271
15876TIP3    H269044   2.383   2.619  13.448  1.0324  0.2368  0.2792
15877TIP3   OH269045   0.392   1.952   2.033  0.1950 -0.5527 -0.3107
15877TIP3    H169046   0.361   1.934   2.122 -0.8631  3.7560  0.3904
15877TIP3    H269047   0.486   1.961   2.042 -0.0396  1.3360  0.7953
15878TIP3   OH269048   2.051   1.044  13.398  0.3448 -0.4069 -0.6625
15878TIP3    H169049   2.099   1.114  13.442 -0.4018 -1.8230  2.7527
15878TIP3    H269050   2.119   0.983  13.369  0.8809  0.7946 -2.0861
15879TIP3   OH269051   4.013   3.378  11.341  0.3088 -0.2611  0.1157
15879TIP3    H169052   4.027   3.336  11.255  0.3904  0.8826 -0.4496
15879TIP3    H269053   4.080   3.447  11.345 -0.2206  0.2283  0.7483
15880TIP3   OH269054   4.366   3.851   2.640 -0.1194  0.3107  0.2942
15880TIP3    H169055   4.439   3.872   2.699 -0.3613  1.0705  0.3410
15880TIP3    H269056   4.335   3.766   2.668  0.4249  0.2138  0.6090
15881TIP3   OH269057   4.485   5.104   0.722 -0.2990 -0.1340 -0.3670
15881TIP3    H169058   4.519   5.115   0.633  3.3187 -0.6970  0.8131
15881TIP3    H269059   4.537   5.164   0.775 -1.5115 -0.7473  1.6119
15882TIP3   OH269060   2.549   3.130  12.683  0.6270  1.2057 -0.0521
15882TIP3    H169061   2.580   3.060  12.626  0.8211  1.6716 -0.5353
15882TIP3    H269062   2.458   3.145  12.657  0.4049  0.7402  0.4506
15883TIP3   OH269063   5.335   5.993   1.024 -0.5121  0.4795  0.0671
15883TIP3    H169064   5.301   5.914   1.065 -0.9262  0.4497 -0.3213
15883TIP3    H269065   5.271   6.014   0.956 -0.1991  0.9221 -0.0975
15884TIP3   OH269066   3.095   4.674   2.237 -0.0520 -0.6482  0.1417
15884TIP3    H169067   3.022   4.669   2.299 -0.6331 -1.7448 -0.6005
15884TIP3    H269068   3.135   4.760   2.254 -2.3785  0.6246 -0.3752
15885TIP3   OH269069   2.385   3.435   1.929  0.2046 -0.4993  0.6972
15885TIP3    H169070   2.349   3.373   1.865 -2.9929 -1.1864  2.9205
15885TIP3    H269071   2.429   3.379   1.993  2.1266  0.0648 -0.0869
15886TIP3   OH269072   1.836   1.552  12.620  0.8271 -0.2664  0.2542
15886TIP3    H169073   1.826   1.525  12.529 -1.0366 -0.2487  0.4136
15886TIP3    H269074   1.835   1.470  12.669 -2.5914 -0.1796  0.5552
15887TIP3   OH269075   2.696   2.472   0.230 -0.3927  0.1695 -0.1343
15887TIP3    H169076   2.677   2.459   0.323 -0.0579 -1.2557 -0.2389
15887TIP3    H269077   2.648   2.552   0.207  0.5140  1.2526  1.5374
15888TIP3   OH269078   1.934   2.324   5.391 -0.6417 -0.1307  0.5949
15888TIP3    H169079   1.908   2.254   5.330 -2.3188 -0.8877  2.0740
15888TIP3    H269080   1.861   2.386   5.387  0.9862  1.8257 -0.9716
15889TIP3   OH269081   1.779   3.562  12.344 -0.4658 -0.8409  0.3552
15889TIP3    H169082   1.863   3.518  12.337 -1.0640 -2.3036  1.6350
15889TIP3    H269083   1.799   3.646  12.386  0.5141 -0.4983 -0.7480
15890TIP3   OH269084   6.459   0.571   2.335  0.1454  0.6053  0.1765
15890TIP3    H169085   6.498   0.622   2.406  2.3050 -0.5286 -0.1108
15890TIP3    H269086   6.376   0.539   2.372 -0.0939  2.2775  1.1862
15891TIP3   OH269087   3.651   0.532  17.106 -0.0741  0.1623  0.1541
15891TIP3    H169088   3.694   0.498  17.027 -0.0590  0.8401 -0.1421
15891TIP3    H269089   3.623   0.454  17.154  1.4692 -0.3087  0.3488
15892TIP3   OH269090   2.155   4.020  14.941  0.1556  0.3060  0.3302
15892TIP3    H169091   2.158   3.946  14.880  1.9034 -0.3927  1.2020
15892TIP3    H269092   2.171   3.981  15.027  0.9026  1.6541  0.8319
15893TIP3   OH269093   6.647   2.429   3.751 -0.1551  0.1613  0.0839
15893TIP3    H169094   6.679   2.450   3.839  1.4011  0.7048 -0.5901
15893TIP3    H269095   6.555   2.457   3.753 -0.9324 -2.1338  2.2928
15894TIP3   OH269096   0.791   0.696  15.085 -0.5632 -0.1988 -0.2486
15894TIP3    H169097   0.856   0.674  15.152 -2.4841 -0.5216  1.6377
15894TIP3    H269098   0.777   0.614  15.038  1.2389  0.1743 -1.5279
15895TIP3   OH269099   5.409   3.526   4.460 -0.0370 -0.0620 -0.2671
15895TIP3    H169100   5.471   3.588   4.420  1.7683 -1.0325  0.8621
15895TIP3    H269101   5.408   3.452   4.399 -0.6554  0.2442 -0.6354
15896TIP3   OH269102   4.824   1.482  16.226 -0.1025 -0.5457  0.0653
15896TIP3    H169103   4.810   1.545  16.155  0.5645 -1.1994 -0.6729
15896TIP3    H269104   4.740   1.478  16.271 -0.8795 -0.8832 -1.3421
15897TIP3   OH269105   3.248   1.955  16.546 -0.3014  0.1879  0.1088
15897TIP3    H169106   3.174   2.000  16.505  0.1697  0.3691 -0.5754
15897TIP3    H269107   3.291   2.023  16.599 -1.7127 -0.3788  2.0864
15898TIP3   OH269108   4.750   6.307  13.625 -0.0223  0.3860  0.0792
15898TIP3    H169109   4.752   6.346  13.712 -0.6788  0.8753 -0.1219
15898TIP3    H269110   4.740   6.213  13.641 -2.8230  0.6775  0.5233
15899TIP3   OH269111   4.590   6.677   1.790 -1.0976 -0.2056  0.6417
15899TIP3    H169112   4.678   6.711   1.809 -1.3090  0.4232  0.5058
15899TIP3    H269113   4.582   6.685   1.695 -2.3370  2.3532  0.8706
15900TIP3   OH269114   4.948   4.782   5.283  0.3029  0.7932  0.4191
15900TIP3    H169115   4.975   4.691   5.272  1.0282  1.1145 -0.5398
15900TIP3    H269116   4.880   4.795   5.216 -0.2138  0.7981  0.9386
15901TIP3   OH269117   5.194   0.509  16.336 -0.3603 -0.6185 -0.0305
15901TIP3    H169118   5.109   0.552  16.325  0.0881 -0.1430 -2.1417
15901TIP3    H269119   5.188   0.465  16.420 -2.6171 -0.4006 -0.0174
15902TIP3   OH269120   5.818   0.894   4.249 -0.0954  0.2488  0.2930
15902TIP3    H169121   5.726   0.901   4.276 -0.2495 -0.3347 -0.0536
15902TIP3    H269122   5.834   0.800   4.242  0.9593  0.2840  1.7486
15903TIP3   OH269123   1.505   1.998   1.760  0.3278 -0.7312 -0.5321
15903TIP3    H169124   1.558   2.078   1.755  1.2539 -1.3277 -0.6156
15903TIP3    H269125   1.433   2.020   1.820  0.8473  0.0072 -0.1605
15904TIP3   OH269126   5.845   2.238  13.316 -0.5034  0.1841  0.4977
15904TIP3    H169127   5.769   2.189  13.286  1.1053 -1.5730 -0.9259
15904TIP3    H269128   5.819   2.330  13.307 -1.7697 -0.3166 -1.9505
15905TIP3   OH269129   2.783   4.709  13.093  0.4190 -0.2576  0.4159
15905TIP3    H169130   2.852   4.776  13.097  1.7234 -1.3972 -1.5427
15905TIP3    H269131   2.727   4.737  13.021 -1.0510  0.4884  1.7951
15906TIP3   OH269132   1.794   3.451   5.211  0.4424 -0.2723  0.4014
15906TIP3    H169133   1.862   3.444   5.278  2.3433 -1.1632 -1.4755
15906TIP3    H269134   1.778   3.360   5.184 -2.1361 -0.1571  1.3298
15907TIP3   OH269135   2.402   4.678   0.919  0.0118  0.1051 -0.1896
15907TIP3    H169136   2.416   4.657   0.827  0.8810  3.9462 -1.0748
15907TIP3    H269137   2.336   4.748   0.919  0.7068  0.8577  2.0345
15908TIP3   OH269138   3.501   1.854   4.142 -0.1759 -0.1640  0.0871
15908TIP3    H169139   3.464   1.804   4.215 -0.2900 -0.6521 -0.3074
15908TIP3    H269140   3.430   1.859   4.078 -0.9037  2.2835  0.9629
15909TIP3   OH269141   0.796   5.747   4.198  0.3127  0.1403  0.5245
15909TIP3    H169142   0.848   5.767   4.120  0.8370  2.9335  1.4703
15909TIP3    H269143   0.731   5.683   4.168  0.2622  1.3575 -2.2872
15910TIP3   OH269144   6.114   1.520  12.373 -0.3038  0.0328 -0.1364
15910TIP3    H169145   6.168   1.456  12.419 -0.9343  0.3173  1.0388
15910TIP3    H269146   6.092   1.585  12.439  0.2282  1.4255 -1.2723
15911TIP3   OH269147   5.278   3.935   5.972 -0.6338 -0.4417 -0.0020
15911TIP3    H169148   5.298   3.953   5.880 -0.9864  0.9872  0.1822
15911TIP3    H269149   5.205   3.994   5.993 -2.6622 -2.9198  0.3677
15912TIP3   OH269150   1.359   0.151   2.823  0.0161 -0.3469 -0.1699
15912TIP3    H169151   1.290   0.172   2.885  1.0313  0.4085  0.7564
15912TIP3    H269152   1.409   0.082   2.866  0.1712 -0.4853 -0.5689
15913TIP3   OH269153   3.111   5.879  16.582 -0.1347  0.3442 -0.4944
15913TIP3    H169154   3.019   5.895  16.557  0.0740  0.1530 -1.4318
15913TIP3    H269155   3.105   5.837  16.668 -0.9277  0.4063 -0.5063
15914TIP3   OH269156   4.842   3.863  13.372  0.0953  0.5008  0.0016
15914TIP3    H169157   4.752   3.849  13.342  0.0288  3.1770 -1.4222
15914TIP3    H269158   4.879   3.776  13.381 -1.6077 -0.6178 -2.7379
15915TIP3   OH269159   3.440   2.863   2.039  0.3263 -0.0356 -0.0191
15915TIP3    H169160   3.434   2.806   2.116 -0.1831  2.7517  2.1807
15915TIP3    H269161   3.353   2.859   1.999 -0.2019  0.3413  1.0491
15916TIP3   OH269162   5.837   2.092  14.379  0.2384 -0.0061 -0.0253
15916TIP3    H169163   5.747   2.070  14.402  0.2493 -1.3599 -1.1795
15916TIP3    H269164   5.890   2.028  14.427  0.4802 -0.2749 -0.6462
15917TIP3   OH269165   5.060   0.576  14.509 -0.1466  0.1785 -0.1630
15917TIP3    H169166   5.156   0.569  14.502 -0.1888 -1.3454  0.4413
15917TIP3    H269167   5.027   0.516  14.442 -0.6759  0.0906  0.1776
15918TIP3   OH269168   3.493   5.319  16.115 -0.4837 -0.3815  0.0145
15918TIP3    H169169   3.573   5.274  16.087  0.5248  1.4538 -0.2677
15918TIP3    H269170   3.464   5.366  16.037 -0.9908  0.1416  0.5128
15919TIP3   OH269171   5.503   2.860  15.834  0.2728 -0.5097  0.3262
15919TIP3    H169172   5.430   2.799  15.845  0.3308 -0.5348  0.5992
15919TIP3    H269173   5.574   2.821  15.886  0.4951 -0.5105  0.0246
15920TIP3   OH269174   2.632   0.022   0.365  0.5411 -0.4217  0.2450
15920TIP3    H169175   2.547   0.039   0.406  0.5861 -1.6815  0.8949
15920TIP3    H269176   2.661  -0.061   0.403  2.8377  0.7696  1.3104
15921TIP3   OH269177   6.337   0.298   5.341  0.0750  0.1599  0.3625
15921TIP3    H169178   6.318   0.321   5.250  0.7924 -0.1210  0.1362
15921TIP3    H269179   6.257   0.322   5.389 -0.1187  0.7872 -0.2560
15922TIP3   OH269180   2.433   3.698   5.156  0.3799  0.2024  0.0287
15922TIP3    H169181   2.374   3.670   5.086 -0.8068  2.7892 -0.1111
15922TIP3    H269182   2.451   3.790   5.137  1.0966  0.6243  2.3842
15923TIP3   OH269183   4.902   6.280   5.058  0.1766  0.0144 -0.0301
15923TIP3    H169184   4.824   6.314   5.102  0.2099 -0.4043  0.3603
15923TIP3    H269185   4.963   6.260   5.130  0.7685  0.6419 -0.3457
15924TIP3   OH269186   5.120   5.533   2.723 -0.4865 -0.2218 -0.0865
15924TIP3    H169187   5.111   5.495   2.636  0.9558 -1.0116  0.0685
15924TIP3    H269188   5.154   5.461   2.777  2.1805  1.1852  0.2650
15925TIP3   OH269189   2.827   4.320   0.647  0.1919  0.0695  0.1884
15925TIP3    H169190   2.826   4.361   0.561 -1.6862 -1.7130 -0.7294
15925TIP3    H269191   2.739   4.283   0.658  0.6408 -0.5072  2.5023
15926TIP3   OH269192   6.255   5.559  13.543  0.1127  0.0575 -0.4006
15926TIP3    H169193   6.176   5.541  13.491  0.1184  1.3580 -0.8853
15926TIP3    H269194   6.308   5.480  13.534 -1.4215 -1.1422  0.5079
15927TIP3   OH269195   3.322   6.103   0.015  0.2060 -0.3994 -0.2190
15927TIP3    H169196   3.379   6.067  -0.054 -1.0190 -1.4471 -0.7225
15927TIP3    H269197   3.236   6.111  -0.026 -0.5598 -1.0577  1.1846
15928TIP3   OH269198   6.375   5.741   2.812  0.7432 -0.2174  0.1870
15928TIP3    H169199   6.410   5.805   2.750  1.4117  1.0051  1.7386
15928TIP3    H269200   6.332   5.676   2.758 -0.4904  1.8443 -1.4781
15929TIP3   OH269201   1.299   5.157   2.816 -0.2707  0.0986  0.2323
15929TIP3    H169202   1.332   5.097   2.883 -0.6035 -0.0029  0.3088
15929TIP3    H269203   1.299   5.242   2.859  0.9895  0.3098 -0.1401
15930TIP3   OH269204   4.934   6.477   1.838  0.1116  0.4012 -0.5471
15930TIP3    H169205   5.008   6.461   1.779  0.1946  1.1441 -0.6533
15930TIP3    H269206   4.889   6.393   1.844  1.8035 -0.4723  0.6921
15931TIP3   OH269207   5.906   4.985  11.494 -0.0888 -0.8947 -0.3115
15931TIP3    H169208   5.955   5.056  11.451  1.5348 -2.7370 -1.6441
15931TIP3    H269209   5.966   4.951  11.561 -0.0755 -2.2379 -0.9775
15932TIP3   OH269210   2.880   0.289   1.028 -0.1750 -0.1769 -0.4778
15932TIP3    H169211   2.968   0.250   1.028  0.1645  0.5556 -0.9891
15932TIP3    H269212   2.842   0.263   0.944 -0.7154 -1.0482  0.0235
15933TIP3   OH269213   3.453   4.513  15.357 -0.8548 -0.4164  0.0745
15933TIP3    H169214   3.476   4.578  15.423 -2.3723  0.0981  0.1384
15933TIP3    H269215   3.398   4.451  15.403 -0.1949 -1.2411 -0.2231
15934TIP3   OH269216   4.640   5.301  12.849 -0.2330 -0.6032 -0.0337
15934TIP3    H169217   4.566   5.275  12.794 -0.1051 -1.0531  0.0070
15934TIP3    H269218   4.627   5.255  12.932 -1.9489  2.2112  1.4027
15935TIP3   OH269219   1.879   1.972   1.080 -0.3055  0.4783  0.1022
15935TIP3    H169220   1.821   1.905   1.043 -0.3224 -0.5588  1.9078
15935TIP3    H269221   1.938   1.923   1.138  1.9195  1.5913 -1.0862
15936TIP3   OH269222   2.348   4.452  12.877 -0.3982 -0.0256  0.0906
15936TIP3    H169223   2.334   4.451  12.783 -0.2621  0.0704  0.0685
15936TIP3    H269224   2.353   4.545  12.900  1.8801 -0.0280 -0.1647
15937TIP3   OH269225   5.330   3.318  16.011  0.0399  0.3851  0.3468
15937TIP3    H169226   5.305   3.334  15.919  1.3586  3.7311  0.4613
15937TIP3    H269227   5.247   3.294  16.053 -1.1004  1.3439 -1.2088
15938TIP3   OH269228   2.366   3.223   0.634  0.3536 -0.3487  0.2739
15938TIP3    H169229   2.312   3.296   0.663  1.1370 -0.4271  2.0503
15938TIP3    H269230   2.449   3.263   0.606 -0.0535 -0.3686 -1.0626
15939TIP3   OH269231   4.756   6.698   4.332 -0.5851  0.3997  0.0367
15939TIP3    H169232   4.740   6.718   4.425 -0.1918  0.5360  0.0767
15939TIP3    H269233   4.842   6.658   4.331 -0.4660  0.6614 -0.3042
15940TIP3   OH269234   3.846   0.450  11.131  0.0209 -0.3014  0.4968
15940TIP3    H169235   3.939   0.472  11.124 -0.1152  0.0133 -0.3436
15940TIP3    H269236   3.818   0.491  11.213  0.6590 -0.5408  0.8430
15941TIP3   OH269237   5.390   1.735  15.616  0.3059  0.0913  0.2865
15941TIP3    H169238   5.327   1.758  15.548 -1.8306 -0.5601  1.9101
15941TIP3    H269239   5.461   1.798  15.607 -2.3166  3.3516  0.6400
15942TIP3   OH269240   2.530   1.547   1.407 -0.4500  0.6261 -0.4135
15942TIP3    H169241   2.569   1.583   1.487  0.3341 -0.5314 -0.2482
15942TIP3    H269242   2.460   1.608   1.385 -0.3487  1.2437  0.8717
15943TIP3   OH269243   5.547   6.525   2.578  0.2212  0.2141  0.7961
15943TIP3    H169244   5.527   6.539   2.671 -1.2583  0.3979  0.4829
15943TIP3    H269245   5.486   6.457   2.550  0.2412  0.5679 -0.1666
15944TIP3   OH269246   3.421   2.422  13.866 -0.2813  0.0973  1.2404
15944TIP3    H169247   3.341   2.370  13.856  0.1134 -0.9171  2.8957
15944TIP3    H269248   3.466   2.415  13.782 -0.5878 -1.7004  1.1898
15945TIP3   OH269249   1.383   1.286  16.793  0.1721  0.5859 -0.8329
15945TIP3    H169250   1.361   1.305  16.702  1.0449  0.9017 -0.9882
15945TIP3    H269251   1.436   1.361  16.821 -1.1297  1.1335  0.3328
15946TIP3   OH269252   3.027   1.806   4.327  0.1895  0.1073  0.0979
15946TIP3    H169253   3.066   1.881   4.372  0.4263  0.2005 -0.2576
15946TIP3    H269254   3.010   1.743   4.397  1.2579 -0.0623  0.2355
15947TIP3   OH269255   4.896   0.028   3.835 -0.1725  0.2068  0.6092
15947TIP3    H169256   4.811  -0.007   3.807 -0.8879  1.4403  1.1779
15947TIP3    H269257   4.884   0.123   3.836  1.4514  0.4495 -0.0087
15948TIP3   OH269258   1.626   3.226   3.520  0.2721 -0.0406  0.4029
15948TIP3    H169259   1.571   3.148   3.513  0.2550 -0.0890  0.9696
15948TIP3    H269260   1.569   3.292   3.559 -0.2231  0.7955 -1.6100
15949TIP3   OH269261   2.966   2.377  10.970 -0.2471 -0.3318 -0.2151
15949TIP3    H169262   2.983   2.285  10.950 -0.8811  0.1768 -3.6789
15949TIP3    H269263   2.874   2.379  10.996 -0.4562 -0.6156 -0.9063
15950TIP3   OH269264   5.198   4.707  16.895  0.1129 -0.5234 -0.0678
15950TIP3    H169265   5.114   4.714  16.849  0.6330 -0.4775 -1.0277
15950TIP3    H269266   5.181   4.743  16.982 -0.2196  1.9229 -1.0725
15951TIP3   OH269267   5.533   5.302   3.200 -0.5390 -0.2654 -0.5190
15951TIP3    H169268   5.513   5.231   3.139 -1.3522 -0.2105 -0.3231
15951TIP3    H269269   5.583   5.259   3.270  0.4021 -0.3270 -1.2113
15952TIP3   OH269270   5.698   2.706  14.008 -0.1516 -0.3006 -0.1921
15952TIP3    H169271   5.732   2.619  14.028 -1.9428 -0.7054  1.4287
15952TIP3    H269272   5.603   2.695  14.010 -0.4792  1.1004 -2.9126
15953TIP3   OH269273   6.225   6.742   3.239  0.9711  0.1435 -0.0326
15953TIP3    H169274   6.291   6.730   3.308  1.4979  1.8647 -0.2061
15953TIP3    H269275   6.271   6.717   3.158  0.5767 -1.1683  0.1246
15954TIP3   OH269276   2.549   5.687   3.858  0.6680  0.0354 -0.7987
15954TIP3    H169277   2.566   5.655   3.769  1.2568 -0.0018 -0.6765
15954TIP3    H269278   2.529   5.608   3.908  0.7046  0.0168 -0.8134
15955TIP3   OH269279   5.356   4.229   5.103 -0.5026  0.3714  0.7465
15955TIP3    H169280   5.354   4.136   5.081 -0.3909  0.3704  0.7401
15955TIP3    H269281   5.424   4.266   5.047 -0.2870  0.3864  1.0118
15956TIP3   OH269282   6.447   0.578  13.284 -0.5984 -0.0274  0.1539
15956TIP3    H169283   6.503   0.589  13.207 -0.7049  0.0308  0.0847
15956TIP3    H269284   6.502   0.603  13.357  0.7109 -3.3719  0.5042
15957TIP3   OH269285   0.010   3.395   5.119  0.4727  0.0610 -0.0444
15957TIP3    H169286   0.046   3.312   5.088  1.5032  0.9094 -1.2848
15957TIP3    H269287   0.087   3.444   5.148 -0.2952  0.0026  2.2093
15958TIP3   OH269288   0.317   4.735  15.023 -0.8422 -0.0718  0.0126
15958TIP3    H169289   0.257   4.799  15.062 -1.3615  0.7647 -2.0648
15958TIP3    H269290   0.369   4.785  14.960 -0.8775 -1.5806 -1.2729
15959TIP3   OH269291   4.017   1.359  13.494  0.5860  0.0385  0.0059
15959TIP3    H169292   4.018   1.414  13.415  3.1612 -0.4905 -0.4314
15959TIP3    H269293   4.108   1.331  13.504 -0.1778 -2.0862  1.6793
15960TIP3   OH269294   5.596   2.951   2.237  0.2983 -0.0053 -0.0143
15960TIP3    H169295   5.622   3.042   2.225 -1.6496  0.8537  1.5642
15960TIP3    H269296   5.537   2.933   2.164  2.5316 -0.8958 -1.7311
15961TIP3   OH269297   3.601   2.909   6.512  0.0056 -0.0231  0.2918
15961TIP3    H169298   3.681   2.958   6.530  0.7585 -1.7586  2.1461
15961TIP3    H269299   3.541   2.936   6.581 -0.6836  0.5551 -0.5210
15962TIP3   OH269300   3.124   6.222   3.085 -0.1750 -0.0141 -0.7932
15962TIP3    H169301   3.219   6.210   3.086 -0.0715  0.6421 -1.9608
15962TIP3    H269302   3.092   6.157   3.147  0.8423 -2.0078 -2.2405
15963TIP3   OH269303   4.732   2.435   3.300 -0.6842 -0.7958  0.5831
15963TIP3    H169304   4.780   2.518   3.304 -1.2058 -0.5166  1.3330
15963TIP3    H269305   4.651   2.456   3.253 -0.9723 -0.7883  1.0710
15964TIP3   OH269306   5.551   4.783   2.477 -0.0851  0.0083 -0.0580
15964TIP3    H169307   5.502   4.715   2.524  0.3324 -1.1992 -1.2862
15964TIP3    H269308   5.552   4.752   2.386  0.2962  1.5805 -0.6170
15965TIP3   OH269309   0.359   2.261  12.781 -0.0164  0.0425 -0.2911
15965TIP3    H169310   0.426   2.329  12.792 -0.5865  0.5392  0.1667
15965TIP3    H269311   0.399   2.182  12.815 -0.2432  0.6734  1.5658
15966TIP3   OH269312   4.322   2.677  15.723 -0.3097 -0.5365 -0.1313
15966TIP3    H169313   4.292   2.747  15.665 -2.4517  0.5148  2.0472
15966TIP3    H269314   4.272   2.600  15.695 -1.3689 -0.0283  0.3137
15967TIP3   OH269315   5.667   4.439   0.727  0.4023 -0.4340  0.6945
15967TIP3    H169316   5.631   4.517   0.684 -0.2345 -0.5905  0.9287
15967TIP3    H269317   5.613   4.428   0.806  0.8047 -0.8255  0.9175
15968TIP3   OH269318   3.135   5.386  11.483  0.0600 -0.1349 -0.6209
15968TIP3    H169319   3.101   5.379  11.573 -0.1530 -0.3445 -0.7161
15968TIP3    H269320   3.226   5.357  11.489  0.2077  0.3804 -0.3711
15969TIP3   OH269321   0.577   4.505   0.026 -0.6495  0.3443  0.3711
15969TIP3    H169322   0.503   4.486  -0.032 -0.7573 -0.2288  0.6897
15969TIP3    H269323   0.627   4.573  -0.019  0.5353 -1.6408 -1.5300
15970TIP3   OH269324   1.006   3.532  11.715 -0.0513 -0.3020 -0.3916
15970TIP3    H169325   1.058   3.611  11.725 -0.8799  0.3371 -1.0112
15970TIP3    H269326   0.918   3.563  11.695 -0.0765 -1.3812 -2.1718
15971TIP3   OH269327   5.111   4.462  11.279  0.4779 -0.0624 -0.9385
15971TIP3    H169328   5.197   4.436  11.246  0.4251 -0.3753 -0.8294
15971TIP3    H269329   5.059   4.476  11.200  0.5861 -0.0156 -1.0021
15972TIP3   OH269330   6.188   3.229   5.778 -0.6423  0.1007  0.4479
15972TIP3    H169331   6.126   3.263   5.714  0.6078 -0.0979 -0.9377
15972TIP3    H269332   6.247   3.302   5.797  0.7398 -0.6008 -0.8897
15973TIP3   OH269333   2.419   0.304   2.245  0.3059 -0.3181 -0.3952
15973TIP3    H169334   2.416   0.244   2.170  1.4572  0.5536 -1.1716
15973TIP3    H269335   2.508   0.338   2.246 -0.8138  3.0993 -1.4103
15974TIP3   OH269336   3.010   5.801   5.758  0.5322 -0.2291 -0.5896
15974TIP3    H169337   3.073   5.735   5.727 -0.4774 -0.8881 -1.3281
15974TIP3    H269338   2.930   5.752   5.774  0.1629  0.6122  0.2220
15975TIP3   OH269339   2.360   0.645  16.594  0.7982  0.4062  0.1190
15975TIP3    H169340   2.419   0.714  16.562 -1.7749  2.0918 -1.3613
15975TIP3    H269341   2.273   0.685  16.589 -0.5924 -2.2854  1.2603
15976TIP3   OH269342   0.237   2.553  15.241 -0.2440 -0.3542 -0.0011
15976TIP3    H169343   0.166   2.618  15.245  0.2752  0.2015  0.4617
15976TIP3    H269344   0.197   2.477  15.199 -0.4882  0.7752 -1.9778
15977TIP3   OH269345   5.368   5.283  14.396  0.3536  0.3659  0.1967
15977TIP3    H169346   5.385   5.193  14.368  1.3037  0.5992 -0.0048
15977TIP3    H269347   5.384   5.335  14.317 -1.1089  0.6356  0.0543
15978TIP3   OH269348   4.662   4.049  14.074 -0.0147 -0.2452  0.1606
15978TIP3    H169349   4.733   4.024  14.134 -0.2610  0.6065  0.8197
15978TIP3    H269350   4.705   4.057  13.989  0.5708 -0.3116  0.4421
15979TIP3   OH269351   1.429   5.200  15.038 -0.6180  0.3039 -0.0607
15979TIP3    H169352   1.467   5.149  14.967 -1.2833  0.3805 -0.4781
15979TIP3    H269353   1.475   5.171  15.116 -1.0627 -1.0387 -0.2704
15980TIP3   OH269354   0.315   4.672  15.901 -0.1328 -0.3371 -0.0722
15980TIP3    H169355   0.365   4.616  15.959  1.1119  0.4887 -0.3089
15980TIP3    H269356   0.224   4.656  15.925  0.1764 -2.3491 -0.0720
15981TIP3   OH269357   0.114   6.607  12.326  0.7372  0.3023 -0.5015
15981TIP3    H169358   0.193   6.582  12.373  0.4577  0.0056 -0.1762
15981TIP3    H269359   0.091   6.693  12.362  0.3432 -0.0644  0.1624
15982TIP3   OH269360   4.716   4.241  13.355  0.2227 -0.2058 -0.2921
15982TIP3    H169361   4.739   4.206  13.441  2.0913 -0.3935 -0.8227
15982TIP3    H269362   4.626   4.273  13.365 -0.3226 -2.0428  1.1404
15983TIP3   OH269363   0.151   5.023  12.485  0.3880 -0.6960  0.2144
15983TIP3    H169364   0.237   5.032  12.527  1.1530  1.5057 -1.6374
15983TIP3    H269365   0.091   5.005  12.557  2.0887 -0.2817  1.8133
15984TIP3   OH269366   3.585   0.594   1.641  0.1701 -0.4511 -0.0901
15984TIP3    H169367   3.664   0.605   1.694  1.7631 -0.9607 -2.2271
15984TIP3    H269368   3.516   0.572   1.704  1.5369  0.7489  1.9232
15985TIP3   OH269369   0.768   6.541   3.546 -0.3748  0.4480 -0.1027
15985TIP3    H169370   0.744   6.465   3.492  0.3436  0.4404 -0.4280
15985TIP3    H269371   0.864   6.543   3.542 -0.3811  1.2613  0.0632
15986TIP3   OH269372   6.124   5.322   0.397  0.6077 -0.0483 -0.4470
15986TIP3    H169373   6.055   5.303   0.460  0.9300 -0.9110 -0.3467
15986TIP3    H269374   6.136   5.241   0.348  1.5860  0.0596 -0.4192
15987TIP3   OH269375   0.954   5.890   3.294  0.1932 -0.1086  0.1162
15987TIP3    H169376   0.966   5.798   3.316 -0.7455  0.1214  1.7800
15987TIP3    H269377   0.882   5.890   3.231  0.9217 -0.5751 -0.7322
15988TIP3   OH269378   6.143   0.311   5.628 -0.1672  0.6499  0.4807
15988TIP3    H169379   6.076   0.371   5.595 -0.2414 -0.9628 -2.7360
15988TIP3    H269380   6.129   0.310   5.723 -5.0907  0.0973  0.0392
15989TIP3   OH269381   1.934   4.264  13.290  0.4095  0.1259  0.3514
15989TIP3    H169382   1.920   4.258  13.196 -0.4993 -2.6526  0.5458
15989TIP3    H269383   2.029   4.263  13.300  0.5641 -2.0687 -0.5627
15990TIP3   OH269384   1.628   4.638  17.339 -0.0141  0.9447 -0.7645
15990TIP3    H169385   1.720   4.634  17.314 -0.1463  1.1120 -1.2776
15990TIP3    H269386   1.605   4.731  17.332 -0.0044  1.0299  0.1594
15991TIP3   OH269387   1.008   2.072  13.334  0.4238 -0.5495 -0.5002
15991TIP3    H169388   1.028   2.001  13.394  0.2578  1.0894  1.6254
15991TIP3    H269389   0.919   2.056  13.305  0.2776 -1.0216  0.2189
15992TIP3   OH269390   2.054   0.242   0.781 -0.8630  0.0797  0.0467
15992TIP3    H169391   2.148   0.262   0.785 -0.4434 -1.3557 -1.4431
15992TIP3    H269392   2.047   0.175   0.713 -2.8427 -0.6857  0.9374
15993TIP3   OH269393   1.895   1.042   1.661  0.0908 -0.5142 -0.1979
15993TIP3    H169394   1.903   0.948   1.641  0.6824 -0.5476  0.1678
15993TIP3    H269395   1.985   1.071   1.676 -0.0043  0.2939 -1.0601
15994TIP3   OH269396   1.168   1.944  16.120 -0.1981 -0.3266  0.0130
15994TIP3    H169397   1.232   1.873  16.131 -0.1381 -0.1177  1.0924
15994TIP3    H269398   1.083   1.901  16.131 -0.1474 -0.1681  1.0919
15995TIP3   OH269399   4.911   3.635  14.402 -0.0613 -0.0675  0.0446
15995TIP3    H169400   4.918   3.730  14.412 -1.9413  0.3444 -1.6769
15995TIP3    H269401   4.818   3.616  14.420  0.4838 -1.7607  1.3500
15996TIP3   OH269402   5.677   6.576   4.977  0.4358 -0.4134 -0.3772
15996TIP3    H169403   5.606   6.633   4.949  0.2553 -0.7287 -0.5653
15996TIP3    H269404   5.681   6.508   4.910  1.1812 -0.1755 -0.5837
15997TIP3   OH269405   3.584   3.952  11.996  0.4023 -0.4179  0.0772
15997TIP3    H169406   3.521   4.016  12.029  0.4505 -0.1914 -0.2607
15997TIP3    H269407   3.549   3.867  12.023  0.0406 -0.2830  0.0374
15998TIP3   OH269408   5.171   6.281  12.671 -0.2578  0.4276 -0.3937
15998TIP3    H169409   5.115   6.205  12.658  1.5715 -0.8632 -1.1656
15998TIP3    H269410   5.138   6.322  12.751 -2.1099 -0.4006 -0.6876
15999TIP3   OH269411   5.446   6.733   4.942 -0.4897  0.2884  0.0451
15999TIP3    H169412   5.351   6.722   4.944 -0.4859  0.3791  0.7842
15999TIP3    H269413   5.459   6.822   4.909 -0.6536  0.2147 -0.2235
16000TIP3   OH269414   3.878   6.000  14.077  0.1666 -0.0244 -0.3796
16000TIP3    H169415   3.943   6.032  14.139 -0.3712 -1.4278  0.9645
16000TIP3    H269416   3.915   5.920  14.041 -1.0419 -1.2275  0.9261
16001TIP3   OH269417   3.071   2.162   1.455  0.1884 -0.1313 -0.3997
16001TIP3    H169418   3.053   2.220   1.381  0.4079 -0.7068 -0.9194
16001TIP3    H269419   3.154   2.121   1.433 -0.6542 -1.7401 -0.7788
16002TIP3   OH269420   2.693   1.106  11.513 -0.0871  0.5533 -0.8025
16002TIP3    H169421   2.606   1.118  11.475 -0.3346  1.7503  0.0842
16002TIP3    H269422   2.682   1.035  11.577 -1.1150  2.4402  1.2556
16003TIP3   OH269423   1.634   6.592   4.004 -0.0898  0.4763 -0.1005
16003TIP3    H169424   1.705   6.530   4.020 -0.3233 -0.1657 -1.3779
16003TIP3    H269425   1.567   6.540   3.960 -0.6335  1.4544 -0.4534
16004TIP3   OH269426   5.373   3.681   3.143 -0.1615  0.1371  0.2322
16004TIP3    H169427   5.312   3.677   3.216  1.0672  1.3801  1.3817
16004TIP3    H269428   5.419   3.765   3.154  2.5620 -1.2091  0.1277
16005TIP3   OH269429   3.416   0.665  11.337 -0.2024  0.2742 -0.3641
16005TIP3    H169430   3.348   0.718  11.294  0.6303  0.3823 -1.5759
16005TIP3    H269431   3.384   0.575  11.331 -0.0420  0.2747 -1.3381
16006TIP3   OH269432   3.059   6.415  13.441  0.2516  0.6712 -0.2083
16006TIP3    H169433   3.139   6.426  13.492 -0.0056 -0.4815  0.4842
16006TIP3    H269434   2.989   6.409  13.506 -0.2193  0.2251 -0.7403
16007TIP3   OH269435   5.681   3.344   0.333  0.2519 -0.4725 -0.0804
16007TIP3    H169436   5.608   3.284   0.322 -0.8429  0.7055  0.4497
16007TIP3    H269437   5.662   3.389   0.416  1.3643  0.1404 -0.1438
16008TIP3   OH269438   5.537   2.944  13.567  0.2220  0.5137 -0.1456
16008TIP3    H169439   5.601   2.896  13.515  1.2623 -1.3693  2.6010
16008TIP3    H269440   5.585   3.020  13.600 -0.5330  1.8891 -2.0730
16009TIP3   OH269441   3.217   2.325   6.626  0.1225  0.0410  0.4449
16009TIP3    H169442   3.294   2.282   6.590  0.7982  1.4537  0.1282
16009TIP3    H269443   3.201   2.400   6.568 -0.9328  0.3008  1.0340
16010TIP3   OH269444   0.686   3.792   0.406  0.7116  0.7454  0.2014
16010TIP3    H169445   0.616   3.750   0.456  1.5445 -0.5021  0.3800
16010TIP3    H269446   0.745   3.828   0.472  0.1689  1.9507  0.0499
16011TIP3   OH269447   4.426   4.378   1.281 -0.4314  0.1262  0.4536
16011TIP3    H169448   4.416   4.431   1.201  0.1226 -0.8785 -0.3045
16011TIP3    H269449   4.455   4.292   1.249 -1.8354 -0.8155  1.6004
16012TIP3   OH269450   6.490   5.257   0.496 -0.0990 -0.1908  1.0165
16012TIP3    H169451   6.525   5.336   0.456 -0.3624 -0.3556  0.4577
16012TIP3    H269452   6.567   5.205   0.519  0.0483 -1.2141 -1.5292
16013TIP3   OH269453   6.371   3.015   2.460  0.3562  0.2469  0.0229
16013TIP3    H169454   6.389   2.921   2.453 -1.1107 -0.0169 -0.5653
16013TIP3    H269455   6.370   3.033   2.554  0.9823 -0.2372  0.1318
16014TIP3   OH269456   5.389   0.132   6.248 -0.4847 -0.1526  0.6443
16014TIP3    H169457   5.304   0.089   6.249 -0.4684 -0.1952  0.1856
16014TIP3    H269458   5.386   0.192   6.322 -0.0694 -1.7910  2.0585
16015TIP3   OH269459   6.615   6.218   4.477  0.2880  0.1291  0.2741
16015TIP3    H169460   6.680   6.282   4.507  0.9088  0.2148 -1.1869
16015TIP3    H269461   6.604   6.236   4.384 -1.7653  0.0223  0.4529
16016TIP3   OH269462   1.990   0.999  16.729 -0.5002  0.1750 -0.0080
16016TIP3    H169463   1.903   1.038  16.742 -1.7186 -2.5336  0.6568
16016TIP3    H269464   2.000   0.938  16.802  0.5042 -1.9886 -1.8158
16017TIP3   OH269465   6.214   4.028  15.216 -0.0384  0.9662  0.1668
16017TIP3    H169466   6.172   4.014  15.301 -1.8660 -1.1714 -0.9698
16017TIP3    H269467   6.305   4.047  15.237 -0.2714 -0.1961  2.5854
16018TIP3   OH269468   0.203   0.632  11.784  0.8759  0.2781 -0.2087
16018TIP3    H169469   0.158   0.619  11.700  1.3564 -2.2420 -0.1666
16018TIP3    H269470   0.294   0.608  11.766  0.7358 -1.6192  1.2727
16019TIP3   OH269471   5.272   1.877  12.231 -0.5047 -0.1724 -0.5683
16019TIP3    H169472   5.315   1.856  12.148  2.0273  0.8583  0.3749
16019TIP3    H269473   5.343   1.878  12.295 -1.5402  3.7093  0.7763
16020TIP3   OH269474   6.096   2.990  10.916 -0.5242 -0.8037  0.2494
16020TIP3    H169475   6.063   2.964  11.002  0.0121  1.1807  1.1200
16020TIP3    H269476   6.018   3.017  10.868 -0.6641 -0.3797  0.7030
16021TIP3   OH269477   1.083   1.026   2.678  0.2799 -0.0870  0.1450
16021TIP3    H169478   1.101   1.027   2.772 -1.2296 -2.4227  0.5347
16021TIP3    H269479   0.988   1.020   2.671  0.2426  1.4413 -1.6083
16022TIP3   OH269480   0.315   5.077   4.640 -0.1683  0.2474 -0.0702
16022TIP3    H169481   0.367   5.052   4.716  0.9261 -0.1764 -0.9155
16022TIP3    H269482   0.299   5.170   4.651 -0.5859  0.0571  0.9974
16023TIP3   OH269483   5.430   6.369  16.305 -0.1705  0.4783 -0.5814
16023TIP3    H169484   5.407   6.461  16.290 -1.6559  0.4322  1.1325
16023TIP3    H269485   5.525   6.367  16.300 -0.0710  2.2469  0.0235
16024TIP3   OH269486   0.361   1.798   2.945 -0.2767  0.6293 -0.1358
16024TIP3    H169487   0.365   1.849   3.026  1.0943  0.7779 -0.2747
16024TIP3    H269488   0.438   1.826   2.895 -1.1152  0.5649 -1.5186
16025TIP3   OH269489   0.603   0.248   4.250 -0.0485 -0.2229 -0.3559
16025TIP3    H169490   0.645   0.206   4.325 -0.6131 -1.3758 -0.6668
16025TIP3    H269491   0.663   0.233   4.177  0.3011  0.5364 -0.2363
16026TIP3   OH269492   6.317   6.216   3.859  0.4519 -0.4780 -0.7519
16026TIP3    H169493   6.294   6.261   3.940  2.1544 -1.3021  0.2360
16026TIP3    H269494   6.243   6.158   3.843 -0.5563  0.7035 -0.6078
16027TIP3   OH269495   5.315   4.282  11.718  0.4873  0.0971 -0.0071
16027TIP3    H169496   5.272   4.264  11.634 -0.0929  0.3556  0.2285
16027TIP3    H269497   5.408   4.268  11.701  0.2877 -0.7941 -0.4468
16028TIP3   OH269498   4.696   6.713   2.419  0.2030 -0.0429 -0.6252
16028TIP3    H169499   4.695   6.694   2.513  0.9184 -0.6708 -0.7390
16028TIP3    H269500   4.757   6.787   2.411  0.4934 -0.2828 -0.6453
16029TIP3   OH269501   4.367   1.592  13.257 -0.2169  0.1794 -0.2207
16029TIP3    H169502   4.403   1.672  13.297 -1.5060  0.3254  0.7075
16029TIP3    H269503   4.358   1.614  13.164 -2.2108  1.7982  0.2878
16030TIP3   OH269504   5.735   2.735   6.209 -0.5945  0.6508  0.3729
16030TIP3    H169505   5.733   2.679   6.131 -0.6536 -0.9961  1.5066
16030TIP3    H269506   5.822   2.776   6.207  0.9980 -2.3735  1.3967
16031TIP3   OH269507   2.996   0.555   4.533  0.5216 -0.6657 -0.7391
16031TIP3    H169508   3.007   0.494   4.606 -0.3573  0.0652  0.0306
16031TIP3    H269509   3.010   0.641   4.572 -3.0318  0.0312 -0.6214
16032TIP3   OH269510   1.387   5.052  12.325  0.2392 -0.0467  0.1198
16032TIP3    H169511   1.479   5.041  12.301 -0.2688 -1.9500 -1.2502
16032TIP3    H269512   1.367   5.143  12.306  1.9395  0.5202  0.8762
16033TIP3   OH269513   4.524   3.879  15.386 -0.2596 -0.3690  0.4896
16033TIP3    H169514   4.581   3.935  15.439  0.1361  1.0048 -1.2898
16033TIP3    H269515   4.535   3.911  15.297 -1.4590 -2.1217 -0.3502
16034TIP3   OH269516   0.312   3.137   1.125  0.0051 -0.1382  0.1783
16034TIP3    H169517   0.398   3.120   1.086  0.3425 -1.0109  1.2622
16034TIP3    H269518   0.250   3.114   1.056  0.5992 -1.4670  0.0540
16035TIP3   OH269519   5.517   4.365   4.356 -0.3367 -0.1945 -0.3855
16035TIP3    H169520   5.423   4.347   4.364 -0.1632 -0.8457  0.1875
16035TIP3    H269521   5.532   4.441   4.413 -1.3596  3.0333 -3.9499
16036TIP3   OH269522   6.377   3.988  12.638  0.0640  0.0944  0.8312
16036TIP3    H169523   6.440   3.962  12.570  1.2556  1.1450  1.4764
16036TIP3    H269524   6.319   3.912  12.647  1.3463 -0.9989  0.3250
16037TIP3   OH269525   5.082   0.231  15.966  0.1497 -0.1709 -0.4290
16037TIP3    H169526   5.120   0.211  15.880  0.3496 -0.2026 -0.3336
16037TIP3    H269527   5.146   0.290  16.007 -1.0934  1.8900 -1.2944
16038TIP3   OH269528   2.410   1.288  14.226 -0.8251  0.0290 -0.2532
16038TIP3    H169529   2.335   1.234  14.250 -0.6961  0.2042  0.5814
16038TIP3    H269530   2.482   1.226  14.216 -0.2034  0.1360  2.5903
16039TIP3   OH269531   4.012   1.304  16.935  0.3580  0.2524  0.2308
16039TIP3    H169532   4.026   1.320  17.029  0.1729 -0.8425  0.4578
16039TIP3    H269533   4.099   1.313  16.897  0.8262 -1.3084  0.8390
16040TIP3   OH269534   2.141   4.396  11.894 -0.4305 -0.8431  0.0298
16040TIP3    H169535   2.205   4.371  11.961  0.6266  0.7179 -0.3560
16040TIP3    H269536   2.193   4.410  11.815 -1.0560  1.3506 -0.0648
16041TIP3   OH269537   6.286   2.253  12.364  0.4712 -0.3437 -0.1968
16041TIP3    H169538   6.354   2.191  12.338 -0.3746 -1.3965  0.0316
16041TIP3    H269539   6.237   2.271  12.283  0.7769  0.1218 -0.2843
16042TIP3   OH269540   3.181   1.707   0.443  0.1290  0.8274  0.4798
16042TIP3    H169541   3.179   1.763   0.521 -0.1976 -1.6035  2.3484
16042TIP3    H269542   3.106   1.737   0.391 -1.1600  0.9705  2.3080
16043TIP3   OH269543   1.362   5.340   3.443 -1.1089  0.1453 -0.3517
16043TIP3    H169544   1.423   5.277   3.405 -0.9829 -0.2551  0.4802
16043TIP3    H269545   1.300   5.359   3.373 -0.4037  0.0671 -1.0062
16044TIP3   OH269546   3.522   0.748  17.183  0.0454  0.4936  0.5468
16044TIP3    H169547   3.591   0.690  17.152 -0.2060 -0.7787  2.2396
16044TIP3    H269548   3.454   0.743  17.116  1.0383  0.7701 -0.5115
16045TIP3   OH269549   2.468   3.514   5.906  0.0861 -0.0793 -0.0584
16045TIP3    H169550   2.529   3.587   5.914  0.8654 -0.7472  0.2735
16045TIP3    H269551   2.523   3.436   5.911 -0.6813 -0.6952 -0.7814
16046TIP3   OH269552   4.933   1.380  13.822  0.2560  1.0000  0.4061
16046TIP3    H169553   4.892   1.439  13.885  0.4701  1.8499 -0.2345
16046TIP3    H269554   4.997   1.330  13.872  0.9090  2.1452  0.7366
16047TIP3   OH269555   1.267   5.551  12.189  0.0423  0.7298 -0.0216
16047TIP3    H169556   1.301   5.577  12.104  0.8540  1.1719  0.4187
16047TIP3    H269557   1.304   5.616  12.250 -0.1247  0.1364  0.7292
16048TIP3   OH269558   5.564   5.351  13.990 -0.4882  0.1894  0.0025
16048TIP3    H169559   5.621   5.425  13.969 -1.3419  1.5192  2.0795
16048TIP3    H269560   5.521   5.376  14.071 -3.7113 -0.9478 -1.2145
16049TIP3   OH269561   1.954   3.379  15.140  0.1117  0.9149 -1.1177
16049TIP3    H169562   1.873   3.364  15.189  0.6588  0.0725 -0.4462
16049TIP3    H269563   1.925   3.385  15.048 -0.5838 -0.7702 -1.0496
16050TIP3   OH269564   1.734   5.560   5.658 -0.6690 -0.2596  0.2039
16050TIP3    H169565   1.751   5.474   5.695  0.7230 -0.0548  0.0690
16050TIP3    H269566   1.645   5.581   5.687 -0.5404 -1.1700  1.3229
16051TIP3   OH269567   0.709   6.435  12.526 -0.1512  0.2390  0.1537
16051TIP3    H169568   0.733   6.511  12.580 -1.4759  0.5430  0.3450
16051TIP3    H269569   0.793   6.401  12.495  0.6122  0.4907  1.8131
16052TIP3   OH269570   2.272   6.335  16.395  0.4354 -0.7331  0.0960
16052TIP3    H169571   2.333   6.310  16.325  1.3344  1.7012 -0.0935
16052TIP3    H269572   2.185   6.312  16.361  1.0811 -3.1073 -0.1543
16053TIP3   OH269573   5.399   4.437  15.750  0.7026  0.1008  0.9257
16053TIP3    H169574   5.401   4.490  15.670  1.7046 -0.1682  0.7517
16053TIP3    H269575   5.359   4.355  15.723  2.0129 -0.3968  0.4107
16054TIP3   OH269576   5.613   1.852   0.184  0.1393 -0.2714 -0.3845
16054TIP3    H169577   5.606   1.764   0.221 -1.2331  0.3282  0.8850
16054TIP3    H269578   5.606   1.910   0.260  2.3499  0.9530 -1.0170
16055TIP3   OH269579   1.480   0.410   1.113  0.3306  0.4610  0.1587
16055TIP3    H169580   1.532   0.490   1.104  0.6754  0.0264 -2.4846
16055TIP3    H269581   1.544   0.341   1.129  0.4772  0.1624 -1.5402
16056TIP3   OH269582   0.178   5.352  16.215  0.5593 -0.2965 -0.6790
16056TIP3    H169583   0.213   5.291  16.150  2.7185 -3.1284  2.7897
16056TIP3    H269584   0.254   5.378  16.267 -1.1555  1.1687  1.2592
16057TIP3   OH269585   5.082   3.957   4.994  0.2336 -0.2768  0.3708
16057TIP3    H169586   5.082   3.997   5.081 -0.4449  0.1654  0.1783
16057TIP3    H269587   5.066   3.864   5.010 -3.0306  0.2094  0.5971
16058TIP3   OH269588   4.068   1.484   2.316 -0.1029  0.5924 -0.0040
16058TIP3    H169589   4.016   1.403   2.314 -0.4824  0.7788  1.4400
16058TIP3    H269590   4.140   1.467   2.256  0.5782 -1.3595  1.2608
16059TIP3   OH269591   5.629   1.718   3.132  0.4474 -0.4192  0.4829
16059TIP3    H169592   5.654   1.647   3.073  0.7386  0.3601 -0.3720
16059TIP3    H269593   5.545   1.750   3.097  0.2106 -0.4828  0.9876
16060TIP3   OH269594   0.279   4.509   5.456  0.4137 -0.4259  0.0210
16060TIP3    H169595   0.331   4.480   5.531  0.0624 -0.7317  0.1464
16060TIP3    H269596   0.274   4.433   5.399  1.3264  0.0276 -0.6854
16061TIP3   OH269597   1.667   0.589  15.152 -0.2390 -0.2714 -0.1778
16061TIP3    H169598   1.665   0.680  15.125 -1.4439 -0.8071 -2.1054
16061TIP3    H269599   1.600   0.581  15.219  0.4245  0.4015  0.5789
16062TIP3   OH269600   6.339   6.052  16.108  0.0380  0.8199  0.2991
16062TIP3    H169601   6.298   6.033  16.193 -1.5129  1.3831 -0.3055
16062TIP3    H269602   6.270   6.093  16.056  0.2542 -1.5567 -2.0544
16063TIP3   OH269603   4.033   1.724   2.184  0.4171 -0.0806  0.3461
16063TIP3    H169604   4.027   1.641   2.233  0.6880  0.8618  2.0737
16063TIP3    H269605   3.942   1.752   2.173  0.2216 -1.3063 -1.5987
16064TIP3   OH269606   0.017   6.373  15.122  0.3056  0.6406 -0.7231
16064TIP3    H169607  -0.008   6.282  15.139 -0.8858  1.4230  2.4559
16064TIP3    H269608  -0.060   6.425  15.145  1.3237  2.5297 -1.3051
16065TIP3   OH269609   6.512   4.868   0.339 -0.3845  0.0289  0.5909
16065TIP3    H169610   6.437   4.896   0.391 -0.4863 -1.3971  1.2758
16065TIP3    H269611   6.549   4.949   0.304 -2.2692  0.7750  0.1710
16066TIP3   OH269612   3.016   0.844   2.691  0.8614 -0.4108 -0.3386
16066TIP3    H169613   2.994   0.878   2.605 -1.1006 -0.7063  0.0020
16066TIP3    H269614   2.934   0.848   2.740  2.3284  1.7181  2.2094
16067TIP3   OH269615   5.258   1.333  14.298  0.2681  0.6095  0.3668
16067TIP3    H169616   5.182   1.311  14.243  1.0020  2.2413 -1.4222
16067TIP3    H269617   5.332   1.330  14.238  1.2472  1.5578  1.4888
16068TIP3   OH269618   5.026   3.068  13.655  0.1260 -0.3646  0.6585
16068TIP3    H169619   4.941   3.044  13.618  0.3951 -1.1744  0.5529
16068TIP3    H269620   5.081   3.085  13.578  0.9464 -2.9261  0.5862
16069TIP3   OH269621   3.469   5.284  11.887 -0.4713  0.4313 -0.4535
16069TIP3    H169622   3.378   5.261  11.870 -0.4862 -0.5405  0.7991
16069TIP3    H269623   3.475   5.377  11.865 -1.6688  0.4292 -0.8677
16070TIP3   OH269624   0.396   1.995   6.364  0.1926  0.1699 -0.1330
16070TIP3    H169625   0.427   1.909   6.337  2.6467  1.3915 -1.4691
16070TIP3    H269626   0.391   1.990   6.460 -0.0207 -1.5134 -0.2106
16071TIP3   OH269627   2.825   1.259   3.275  0.2580  0.2494  0.7293
16071TIP3    H169628   2.775   1.272   3.355 -0.7151  0.1269  0.1483
16071TIP3    H269629   2.776   1.305   3.207  1.8205  1.6054  0.4383
16072TIP3   OH269630   3.152   6.185  15.395  0.0311 -0.4211  0.9215
16072TIP3    H169631   3.168   6.172  15.488  3.5059  0.0762  0.5427
16072TIP3    H269632   3.171   6.099  15.356  0.5795 -0.1119  0.5000
16073TIP3   OH269633   6.302   5.978   3.577  0.5137 -0.1801 -0.5322
16073TIP3    H169634   6.241   6.047   3.550  0.3454  0.4652  1.3373
16073TIP3    H269635   6.259   5.935   3.650  1.8403 -0.4052  0.1541
16074TIP3   OH269636   1.770   4.047  17.195  0.3699 -0.1820 -0.6749
16074TIP3    H169637   1.772   4.122  17.135  1.9145  0.3314 -0.0220
16074TIP3    H269638   1.847   4.058  17.250 -0.3181 -1.3259  0.5888
16075TIP3   OH269639   5.278   3.396  17.013 -0.2248  0.3063  0.4853
16075TIP3    H169640   5.370   3.372  17.023 -0.0423  0.4236 -0.8350
16075TIP3    H269641   5.235   3.316  16.984 -0.5276  0.2956  0.9368
16076TIP3   OH269642   3.188   3.180   6.868  0.1420 -0.1322 -0.9039
16076TIP3    H169643   3.163   3.195   6.959 -1.2114 -0.6903 -1.1616
16076TIP3    H269644   3.233   3.260   6.842 -0.7616  0.6376 -0.1702
16077TIP3   OH269645   0.487   1.678  11.691 -0.0393  0.3296 -0.1113
16077TIP3    H169646   0.487   1.599  11.638  1.6540 -0.2547  0.6708
16077TIP3    H269647   0.469   1.749  11.630 -1.3899 -0.6212 -0.8617
16078TIP3   OH269648   0.269   2.975  17.315 -0.1749 -0.1662  0.4075
16078TIP3    H169649   0.313   2.931  17.242 -0.0973  0.0201  0.3421
16078TIP3    H269650   0.177   2.979  17.289 -0.4410 -1.6059  1.0567
16079TIP3   OH269651   0.368   2.933   5.599  0.5230 -0.1218 -0.6813
16079TIP3    H169652   0.375   2.994   5.525  2.0667  1.2396  0.4888
16079TIP3    H269653   0.313   2.979   5.662  1.5894  0.0267  0.1592
16080TIP3   OH269654   1.693   2.650   0.798  0.4088  0.4949 -0.0964
16080TIP3    H169655   1.714   2.672   0.889  0.5943 -1.9782  0.5301
16080TIP3    H269656   1.718   2.558   0.789 -2.6119 -0.3271 -1.6552
16081TIP3   OH269657   5.410   1.496  13.781 -0.5959 -1.0442 -0.5810
16081TIP3    H169658   5.444   1.429  13.841 -1.1699 -0.6007  0.2367
16081TIP3    H269659   5.461   1.574  13.801 -1.7730 -0.4977  0.3380
16082TIP3   OH269660   2.785   2.838   0.555  0.3991 -0.0016  0.4889
16082TIP3    H169661   2.739   2.779   0.614 -0.2880 -0.4868 -0.5046
16082TIP3    H269662   2.807   2.914   0.609  1.2792 -1.1262  1.7903
16083TIP3   OH269663   1.455   4.057  15.530 -0.1103 -0.7167 -0.1179
16083TIP3    H169664   1.543   4.084  15.554 -1.0388  1.4086  1.1513
16083TIP3    H269665   1.460   4.041  15.436  1.2005  1.3713 -0.4658
16084TIP3   OH269666   5.636   4.965  17.390 -0.3458 -0.0299 -0.3489
16084TIP3    H169667   5.632   4.878  17.430 -1.2446 -0.2833 -0.9549
16084TIP3    H269668   5.545   4.985  17.369  0.1237 -0.1820 -2.8214
16085TIP3   OH269669   0.687   4.061   3.843 -0.0303  0.3289  0.2214
16085TIP3    H169670   0.779   4.065   3.869  0.4145 -1.5802 -0.8828
16085TIP3    H269671   0.682   4.114   3.763  0.7525 -1.7038 -1.2514
16086TIP3   OH269672   2.490   1.453  11.887  0.4240  0.1329 -0.5305
16086TIP3    H169673   2.578   1.480  11.859  0.9278  0.4213  1.2455
16086TIP3    H269674   2.500   1.361  11.910  0.3169  0.2216 -0.1251
16087TIP3   OH269675   5.200   0.301   1.625 -0.0083 -0.3443  0.4492
16087TIP3    H169676   5.130   0.360   1.655  0.8593 -0.0331  1.9600
16087TIP3    H269677   5.167   0.265   1.543 -1.3990  0.7651  0.4753
16088TIP3   OH269678   4.030   5.755   1.376 -0.3135  0.2243  0.2590
16088TIP3    H169679   4.037   5.755   1.281  2.1522 -1.7526  0.3304
16088TIP3    H269680   4.068   5.839   1.403 -1.7224  1.1280 -0.4782
16089TIP3   OH269681   3.543   3.156   1.001  0.2589 -0.0149 -0.0194
16089TIP3    H169682   3.485   3.127   0.931  0.6771 -0.3451 -0.2306
16089TIP3    H269683   3.600   3.082   1.017  0.7481  0.3753  0.0620
16090TIP3   OH269684   5.626   2.120   1.429 -0.2236  0.0401  0.1394
16090TIP3    H169685   5.568   2.174   1.374  0.3138 -0.0946 -0.5616
16090TIP3    H269686   5.566   2.062   1.476 -0.9735  2.1972  2.0298
16091TIP3   OH269687   1.962   2.220  10.667 -0.2171 -0.1658  0.6335
16091TIP3    H169688   1.925   2.294  10.716 -1.4958  0.8817 -1.7059
16091TIP3    H269689   1.894   2.153  10.671 -0.8242  0.3497 -0.5710
16092TIP3   OH269690   0.989   0.127   4.135 -0.4977  0.0248 -0.1172
16092TIP3    H169691   0.979   0.097   4.225 -1.2911 -1.0568 -0.5473
16092TIP3    H269692   1.074   0.171   4.134  0.3723 -1.5339  0.7235
16093TIP3   OH269693   5.469   5.119  12.442  0.0347 -0.3910  0.0759
16093TIP3    H169694   5.380   5.144  12.416  1.0917  1.6887 -1.9703
16093TIP3    H269695   5.478   5.149  12.532 -1.2156 -0.3225  0.1893
16094TIP3   OH269696   0.065   5.082  16.698 -0.1402 -0.5936  0.0466
16094TIP3    H169697   0.157   5.106  16.710 -0.5992  1.2436  0.1192
16094TIP3    H269698   0.054   5.002  16.749  1.2129 -0.3601  0.7365
16095TIP3   OH269699   4.309   3.098   5.379 -0.7183  0.3334 -0.0827
16095TIP3    H169700   4.254   3.173   5.357 -0.3004  0.6406 -0.0728
16095TIP3    H269701   4.300   3.039   5.304 -2.6079 -0.5146  0.7409
16096TIP3   OH269702   0.179   3.902   1.440  0.2407 -0.5996 -0.0082
16096TIP3    H169703   0.263   3.928   1.403  0.6642  0.2863  1.4662
16096TIP3    H269704   0.126   3.982   1.439  0.1409 -0.6399  0.8965
16097TIP3   OH269705   4.600   2.649   1.593 -0.4478 -0.1988  0.1735
16097TIP3    H169706   4.571   2.652   1.685 -2.0420  2.0572 -0.3232
16097TIP3    H269707   4.665   2.720   1.586 -0.5981 -0.1238 -0.5091
16098TIP3   OH269708   0.980   5.350  11.465  0.5156 -0.2566  0.9103
16098TIP3    H169709   1.062   5.330  11.419 -0.5860  0.8044 -1.6673
16098TIP3    H269710   0.911   5.313  11.409 -0.8207 -1.2564  3.0829
16099TIP3   OH269711   3.837   5.226   4.173 -0.1397  0.0602  0.1982
16099TIP3    H169712   3.912   5.256   4.225 -0.9464 -2.1867  2.8643
16099TIP3    H269713   3.764   5.227   4.234 -1.6049 -0.8780 -1.4646
16100TIP3   OH269714   0.957   0.795  17.275  0.0139  0.1117 -0.5368
16100TIP3    H169715   1.025   0.739  17.312 -1.1402  0.1554  1.8557
16100TIP3    H269716   1.005   0.858  17.220  2.2622  1.5243  2.6987
16101TIP3   OH269717   1.544   6.233   0.363  0.4566  0.3102 -0.3924
16101TIP3    H169718   1.557   6.304   0.301  2.2731 -0.1731 -0.6015
16101TIP3    H269719   1.562   6.273   0.449 -1.9208  0.9427 -0.1033
16102TIP3   OH269720   0.234   5.669  12.641 -0.4478 -0.0455 -0.2167
16102TIP3    H169721   0.286   5.654  12.720  1.2446  0.5119 -1.1724
16102TIP3    H269722   0.269   5.606  12.577 -1.0015  0.2970 -0.8743
16103TIP3   OH269723   4.242   4.750  14.842 -0.0631 -0.0119  0.0695
16103TIP3    H169724   4.160   4.753  14.892 -0.4199  1.9482 -0.5536
16103TIP3    H269725   4.215   4.717  14.756 -0.5257  2.0954 -0.6341
16104TIP3   OH269726   4.792   4.254   0.595  0.4200 -0.0292 -0.0931
16104TIP3    H169727   4.715   4.307   0.577  1.1354  0.3716 -2.3196
16104TIP3    H269728   4.855   4.316   0.633  0.1062 -0.0460  0.4516
16105TIP3   OH269729   3.178   0.304   3.030 -0.2371 -0.0350  0.4020
16105TIP3    H169730   3.148   0.244   2.962  1.6812 -0.1841 -0.3938
16105TIP3    H269731   3.237   0.252   3.084 -1.0771  0.3104  1.6937
16106TIP3   OH269732   4.286   5.370  11.623  0.1867 -0.1428 -0.0310
16106TIP3    H169733   4.364   5.321  11.596  0.3134  0.6323 -1.1312
16106TIP3    H269734   4.267   5.427  11.549  0.4791  2.0034  1.4673
16107TIP3   OH269735   4.097   5.635   2.193 -0.3303 -0.0181 -0.1358
16107TIP3    H169736   4.065   5.545   2.199  3.2742 -1.3657  1.6684
16107TIP3    H269737   4.072   5.675   2.276  0.3330 -0.2305  0.1718
16108TIP3   OH269738   1.655   5.293   3.604 -0.1794 -0.0102  0.0775
16108TIP3    H169739   1.634   5.199   3.605 -0.0227 -0.0676 -0.9873
16108TIP3    H269740   1.570   5.335   3.619 -0.5632 -0.3065 -1.1094
16109TIP3   OH269741   5.170   5.881   0.020 -0.3813  0.8435  0.2502
16109TIP3    H169742   5.219   5.799   0.030 -3.5136 -1.6714 -2.7947
16109TIP3    H269743   5.109   5.882   0.094 -1.5554 -0.6443 -0.6433
16110TIP3   OH269744   4.923   5.120   5.346  0.0150  0.3851  0.1922
16110TIP3    H169745   4.851   5.058   5.340  0.7723 -0.5424  0.4521
16110TIP3    H269746   4.922   5.167   5.263 -2.2337  1.9403  1.0073
16111TIP3   OH269747   6.485   2.366   5.555  0.5153  0.8010  0.8802
16111TIP3    H169748   6.417   2.394   5.617 -0.6530 -1.8303  0.8824
16111TIP3    H269749   6.441   2.363   5.471  0.6652 -0.7287  0.8410
16112TIP3   OH269750   2.781   2.964  13.576 -0.1963 -0.2662 -0.4222
16112TIP3    H169751   2.691   2.949  13.606  0.0751 -0.2975  0.4108
16112TIP3    H269752   2.832   2.895  13.618  0.2142 -0.2490 -0.8899
16113TIP3   OH269753   5.828   0.412   3.569  0.0112 -0.2674  0.0879
16113TIP3    H169754   5.823   0.317   3.584 -0.4410 -0.3567 -0.5890
16113TIP3    H269755   5.917   0.435   3.595 -0.4485 -0.5446  2.0718
16114TIP3   OH269756   5.233   1.124   2.727  0.0671 -0.0600 -0.1239
16114TIP3    H169757   5.289   1.124   2.805  1.0675  1.1616 -0.8097
16114TIP3    H269758   5.275   1.184   2.667 -1.0891 -0.4168 -1.3477
16115TIP3   OH269759   6.664   2.835  14.575  0.2999  0.1214  0.1006
16115TIP3    H169760   6.730   2.766  14.587 -0.2401 -0.4327 -0.0636
16115TIP3    H269761   6.676   2.865  14.485 -0.0457 -0.3704 -0.1083
16116TIP3   OH269762   1.353   1.793  14.215  0.0746 -0.3536 -0.4948
16116TIP3    H169763   1.381   1.746  14.137 -1.9563 -0.6136 -1.1348
16116TIP3    H269764   1.300   1.866  14.181 -2.5707 -1.6219  0.5974
16117TIP3   OH269765   2.258   3.539   1.567 -0.4058  0.3344 -0.5734
16117TIP3    H169766   2.264   3.632   1.590 -1.6601  0.3974 -0.4675
16117TIP3    H269767   2.197   3.536   1.494 -1.7525 -0.5558  0.5317
16118TIP3   OH269768   3.609   0.850   5.308  0.3927  0.4342 -0.3056
16118TIP3    H169769   3.525   0.896   5.309  0.2264  0.1515  1.4160
16118TIP3    H269770   3.649   0.870   5.393  1.1773 -1.0384 -0.2927
16119TIP3   OH269771   0.774   2.168   5.733 -0.4204  0.5677 -0.2865
16119TIP3    H169772   0.781   2.202   5.822  0.4245 -0.4406  0.0430
16119TIP3    H269773   0.760   2.246   5.679  0.2616  1.3110  0.5826
16120TIP3   OH269774   0.549   6.421   3.805 -0.4390 -0.0894 -0.3245
16120TIP3    H169775   0.503   6.399   3.886  2.1703  0.0090  1.3109
16120TIP3    H269776   0.515   6.360   3.740 -2.2878 -0.4744  0.9370
16121TIP3   OH269777   4.068   0.032  16.360 -0.0105 -0.3708  0.2107
16121TIP3    H169778   4.116   0.072  16.432 -0.2695  1.1565 -0.4298
16121TIP3    H269779   4.114   0.061  16.281 -1.8224  0.9899 -0.4173
16122TIP3   OH269780   4.191   6.628  11.007 -0.4078  0.0645 -0.2892
16122TIP3    H169781   4.136   6.692  11.053  0.3629  0.3885  0.1885
16122TIP3    H269782   4.180   6.650  10.914 -0.2792  0.7936 -0.1422
16123TIP3   OH269783   4.490   0.331  12.531  0.0453 -0.0762  0.3797
16123TIP3    H169784   4.559   0.396  12.544  0.2654  0.3987 -2.4590
16123TIP3    H269785   4.497   0.274  12.607  2.3950  1.0063  1.0895
16124TIP3   OH269786   6.008   5.197   1.343 -0.2203  0.1033 -0.2563
16124TIP3    H169787   6.087   5.153   1.375 -0.6829  0.1825  1.0718
16124TIP3    H269788   5.981   5.145   1.267  1.3289  0.3360 -1.0118
16125TIP3   OH269789   1.549   5.618   5.876  0.2471 -0.5477 -0.8009
16125TIP3    H169790   1.605   5.646   5.948 -0.0585 -0.3937 -0.6221
16125TIP3    H269791   1.540   5.696   5.821  0.6678 -0.7272 -1.1310
16126TIP3   OH269792   4.711   5.386  14.661 -0.3060 -0.3082  0.2212
16126TIP3    H169793   4.738   5.302  14.625  1.5366  0.5197 -0.4879
16126TIP3    H269794   4.741   5.384  14.752 -2.2027 -1.2040  0.8800
16127TIP3   OH269795   5.219   2.334  13.670 -0.1922  0.1431 -0.2222
16127TIP3    H169796   5.190   2.425  13.677 -1.3577 -0.2899  0.8754
16127TIP3    H269797   5.234   2.321  13.576 -1.3335  1.0785 -0.5572
16128TIP3   OH269798   5.049   6.028  11.141 -0.0483  0.3660  0.0114
16128TIP3    H169799   4.995   5.979  11.204 -0.1253  0.2572 -0.1371
16128TIP3    H269800   5.139   6.013  11.169 -0.1316  1.5729  1.0204
16129TIP3   OH269801   2.243   3.424  15.432 -0.3342  0.3269 -0.2607
16129TIP3    H169802   2.302   3.498  15.447 -0.2536  0.5043 -1.4017
16129TIP3    H269803   2.191   3.418  15.512 -0.5558  1.8208 -0.2727
16130TIP3   OH269804   5.807   1.392  11.927 -0.3373 -0.1383 -0.1375
16130TIP3    H169805   5.721   1.372  11.964  0.0784  1.5194  1.8616
16130TIP3    H269806   5.788   1.454  11.856 -0.6667  2.9148  2.4349
16131TIP3   OH269807   6.167   0.046   1.509 -0.2169 -0.1869  1.0528
16131TIP3    H169808   6.209   0.049   1.422  0.5693 -0.6885  1.4049
16131TIP3    H269809   6.097   0.111   1.503 -0.5817 -0.6526 -0.1703
16132TIP3   OH269810   6.500   0.213   3.075  0.1746  0.5545  0.2395
16132TIP3    H169811   6.475   0.174   3.158 -1.6076  0.2143 -0.4189
16132TIP3    H269812   6.457   0.299   3.074  0.3425  0.6415 -0.2460
16133TIP3   OH269813   6.136   6.344  14.353  0.2237  0.1364 -0.0715
16133TIP3    H169814   6.107   6.253  14.342  2.6190 -0.6236 -0.6610
16133TIP3    H269815   6.056   6.396  14.343 -0.9124 -1.7777 -1.6513
16134TIP3   OH269816   2.196   4.945   0.336 -0.1913 -0.6364  0.2090
16134TIP3    H169817   2.174   4.855   0.358 -2.7994  0.0270  0.6238
16134TIP3    H269818   2.256   4.972   0.405  1.0128 -2.1608 -0.1865
16135TIP3   OH269819   1.270   1.987  12.373  0.8633  0.3299  0.3048
16135TIP3    H169820   1.230   2.038  12.444 -0.8978 -0.7132  0.1176
16135TIP3    H269821   1.299   2.053  12.310 -0.5146  1.1510  0.5013
16136TIP3   OH269822   0.462   2.645  15.686  0.7305 -0.5195  0.5615
16136TIP3    H169823   0.460   2.610  15.597 -0.0912 -1.8508  1.0742
16136TIP3    H269824   0.384   2.701  15.692  0.7896 -0.4247  0.4401
16137TIP3   OH269825   5.104   2.834  14.156  0.2072 -0.2606 -0.5023
16137TIP3    H169826   5.175   2.882  14.198 -0.7438  0.2801  0.5439
16137TIP3    H269827   5.099   2.871  14.068  0.4544  0.5246 -0.1962
16138TIP3   OH269828   3.079   1.309  14.510  0.6012 -0.6270  0.5076
16138TIP3    H169829   3.172   1.316  14.534  0.5785 -0.1915  0.4775
16138TIP3    H269830   3.041   1.392  14.538  0.3607 -0.5312 -0.0924
16139TIP3   OH269831   0.588   4.216  14.413 -0.1879 -0.0026 -0.5131
16139TIP3    H169832   0.501   4.237  14.448  0.0389  1.5382 -0.8091
16139TIP3    H269833   0.632   4.169  14.484 -0.4375  1.3009  0.5433
16140TIP3   OH269834   4.288   5.267  10.901  0.5770 -0.3769 -0.3003
16140TIP3    H169835   4.230   5.331  10.941  1.0375  1.0892 -1.8970
16140TIP3    H269836   4.355   5.319  10.857  1.3728 -1.9711 -1.0544
16141TIP3   OH269837   5.499   0.548  11.719  0.3166 -0.0151 -0.0697
16141TIP3    H169838   5.535   0.460  11.726  0.9873  0.2211 -0.4371
16141TIP3    H269839   5.423   0.539  11.662 -0.9031 -0.7054  1.5777
16142TIP3   OH269840   4.847   2.562   2.854  0.3812 -0.2364 -0.1532
16142TIP3    H169841   4.897   2.570   2.935 -0.7865 -0.4925  0.6163
16142TIP3    H269842   4.820   2.470   2.852 -1.0215  0.1510  0.0482
16143TIP3   OH269843   2.805   4.011   0.089  0.0835  0.5136  0.3862
16143TIP3    H169844   2.809   3.923   0.126 -0.5152  0.7512  1.0337
16143TIP3    H269845   2.832   4.000  -0.002  0.9264 -0.1882  0.7029
16144TIP3   OH269846   4.451   2.838  13.833 -0.0402 -0.2184  0.2451
16144TIP3    H169847   4.462   2.791  13.750  0.4806 -0.4177  0.4248
16144TIP3    H269848   4.397   2.914  13.810 -1.7815 -1.4259  0.1589
16145TIP3   OH269849   1.797   0.348  17.224  0.5703  0.2078 -0.3841
16145TIP3    H169850   1.731   0.394  17.173  0.5391 -0.1620 -0.6777
16145TIP3    H269851   1.866   0.413  17.237 -0.8559  1.3720  1.9528
16146TIP3   OH269852   1.447   5.567   4.124  0.2779 -0.0644 -0.2141
16146TIP3    H169853   1.400   5.636   4.077  1.0029  0.9362  0.4662
16146TIP3    H269854   1.407   5.567   4.211  0.5889 -0.1938 -0.0721
16147TIP3   OH269855   1.682   1.046  15.989  0.0670  0.3262  0.1074
16147TIP3    H169856   1.626   1.008  16.057  0.6944 -0.0942  0.3906
16147TIP3    H269857   1.633   1.123  15.959  0.0871  0.9123  1.4974
16148TIP3   OH269858   2.175   1.537   2.830  0.2836  0.1540  0.9172
16148TIP3    H169859   2.082   1.525   2.848 -0.0473 -0.2869 -0.9234
16148TIP3    H269860   2.190   1.493   2.747  1.5956  2.2966 -0.0894
16149TIP3   OH269861   2.925   0.462   3.381 -0.5501 -0.7437  0.0506
16149TIP3    H169862   2.915   0.456   3.476 -3.2601 -1.0413 -0.1694
16149TIP3    H269863   2.927   0.371   3.352 -0.9759 -0.6687 -0.2369
16150TIP3   OH269864   5.959   0.099  11.133 -0.1621  0.3222  1.3403
16150TIP3    H169865   5.939   0.006  11.124 -0.8820  0.4605  1.4168
16150TIP3    H269866   5.874   0.140  11.147 -0.3546  1.4721 -2.2664
16151TIP3   OH269867   5.821   5.570  13.673 -0.3328 -0.7163  0.0528
16151TIP3    H169868   5.873   5.545  13.597  0.5158 -1.1301  0.7528
16151TIP3    H269869   5.885   5.595  13.740 -1.0209 -1.2133  0.9252
16152TIP3   OH269870   3.377   3.256   2.756  0.4395 -0.1288  0.1997
16152TIP3    H169871   3.455   3.276   2.808 -0.2474  1.1217  0.8104
16152TIP3    H269872   3.340   3.342   2.734 -1.0537 -0.6885  0.3975
16153TIP3   OH269873   1.244   6.520   3.889  0.1034 -0.1018 -0.3926
16153TIP3    H169874   1.190   6.593   3.861 -0.8553 -1.0006 -0.9505
16153TIP3    H269875   1.214   6.501   3.978 -0.3695 -0.4574 -0.6207
16154TIP3   OH269876   5.808   5.972  14.256  0.0368 -0.0553 -0.1449
16154TIP3    H169877   5.893   5.958  14.297 -0.2895 -2.7476 -0.1958
16154TIP3    H269878   5.754   6.010  14.325  0.7365 -0.2619  0.5353
16155TIP3   OH269879   0.171   0.037   6.211  0.3390 -0.3659  0.7308
16155TIP3    H169880   0.155  -0.056   6.225 -0.8821 -0.4119 -0.6676
16155TIP3    H269881   0.096   0.081   6.253 -0.7294 -0.2409 -1.1838
16156TIP3   OH269882   1.946   1.106   0.122  0.0940  0.4141 -0.1923
16156TIP3    H169883   1.911   1.174   0.065 -0.5098 -1.3710 -2.0508
16156TIP3    H269884   1.875   1.043   0.131  1.0404 -0.5798  0.4976
16157TIP3   OH269885   3.358   3.798   0.977 -0.5846 -0.1767 -0.4673
16157TIP3    H169886   3.380   3.710   1.010 -0.9799  0.6847  2.3110
16157TIP3    H269887   3.443   3.836   0.953 -0.0757 -0.3391  0.9936
16158TIP3   OH269888   0.592   6.474  17.316  0.7748 -0.0862  0.2084
16158TIP3    H169889   0.595   6.388  17.358  0.9676  0.5807  1.6303
16158TIP3    H269890   0.606   6.456  17.223 -1.0624 -1.7722  0.1830
16159TIP3   OH269891   3.472   4.269  16.681 -0.7323  0.1726 -1.1861
16159TIP3    H169892   3.532   4.266  16.755 -0.9677  0.7046 -0.9708
16159TIP3    H269893   3.491   4.351  16.637 -0.0216 -0.5194 -2.2108
16160TIP3   OH269894   4.142   4.514   2.483 -0.7741  0.4931 -0.7287
16160TIP3    H169895   4.170   4.508   2.575 -1.2953 -0.7491 -0.6259
16160TIP3    H269896   4.222   4.496   2.433 -1.1828 -2.8740 -0.4350
16161TIP3   OH269897   1.525   4.909  14.973 -0.1820 -0.9469  0.1537
16161TIP3    H169898   1.457   4.903  15.040  1.0381 -2.2127  1.3349
16161TIP3    H269899   1.476   4.907  14.890 -1.5928 -1.7114  0.9570
16162TIP3   OH269900   0.527   2.264  16.335 -0.1388  0.3415  0.3091
16162TIP3    H169901   0.606   2.211  16.346 -0.1696  0.2463  0.0697
16162TIP3    H269902   0.521   2.279  16.241 -0.3938  0.3735  0.3318
16163TIP3   OH269903   6.052   1.719  11.700  0.7279 -0.1611  0.0374
16163TIP3    H169904   5.961   1.747  11.698  1.1280  1.2543 -2.2106
16163TIP3    H269905   6.049   1.625  11.684 -0.3213  0.0247 -1.0378
16164TIP3   OH269906   3.127   4.869  16.656  0.3995 -0.6135 -0.2271
16164TIP3    H169907   3.175   4.806  16.710 -0.6304 -0.7980  0.5017
16164TIP3    H269908   3.147   4.844  16.566  0.5465 -1.5504  0.0588
16165TIP3   OH269909   1.441   3.184   0.381  0.0677  0.2407 -0.1987
16165TIP3    H169910   1.533   3.165   0.367 -0.0522  0.4157 -1.3420
16165TIP3    H269911   1.428   3.270   0.340 -0.4536  0.5235  0.5480
16166TIP3   OH269912   5.966   4.300  11.498  0.2972 -0.4981 -0.3966
16166TIP3    H169913   5.933   4.306  11.587  1.5143 -1.1366  0.1250
16166TIP3    H269914   5.906   4.239  11.454  0.9439 -1.9198  0.6261
16167TIP3   OH269915   0.336   5.026  14.276  0.7427  0.1478 -0.3668
16167TIP3    H169916   0.407   4.982  14.229  0.9846  1.0766 -0.8994
16167TIP3    H269917   0.364   5.117  14.282  0.9249 -0.0048  2.0014
16168TIP3   OH269918   6.495   5.088  13.877 -0.4692  0.6026  0.5696
16168TIP3    H169919   6.562   5.020  13.875  1.3309  2.2855  0.2681
16168TIP3    H269920   6.489   5.113  13.969 -1.2972 -0.0996  0.7133
16169TIP3   OH269921   3.936   0.602  11.842 -0.1427 -0.6126 -0.4087
16169TIP3    H169922   3.990   0.652  11.780 -1.7436  1.1933 -0.4465
16169TIP3    H269923   3.932   0.658  11.920 -0.1292 -1.7526  0.4285
16170TIP3   OH269924   0.880   1.604  16.619 -0.2320 -0.0829 -0.5612
16170TIP3    H169925   0.802   1.575  16.570  1.2670 -0.5730 -2.8534
16170TIP3    H269926   0.922   1.668  16.561  0.5403  0.9833  1.0982
16171TIP3   OH269927   5.394   3.713   0.852 -0.3945  0.2108 -0.0032
16171TIP3    H169928   5.386   3.651   0.780 -2.1599 -1.7512  1.7321
16171TIP3    H269929   5.308   3.756   0.857  0.6800  2.6438 -0.9339
16172TIP3   OH269930   2.056   5.800   5.653  0.1196 -0.4517 -0.0718
16172TIP3    H169931   1.987   5.830   5.713 -0.0461  0.3786 -0.6459
16172TIP3    H269932   2.101   5.881   5.627  2.3816 -1.1038  1.5308
16173TIP3   OH269933   1.891   0.510  13.105 -0.3345  0.3393 -0.2373
16173TIP3    H169934   1.822   0.477  13.163  1.0338 -2.1736  0.1033
16173TIP3    H269935   1.873   0.470  13.020  0.4566 -0.0334 -0.2411
16174TIP3   OH269936   5.797   3.407  15.032  0.1538 -0.1882 -0.3798
16174TIP3    H169937   5.725   3.442  14.979  0.1973  0.8035  0.1842
16174TIP3    H269938   5.764   3.325  15.067 -0.8910  0.4811  0.2487
16175TIP3   OH269939   6.474   0.910  10.833  0.5455  0.3382  0.1749
16175TIP3    H169940   6.494   0.824  10.797  0.4192  0.7355 -0.8838
16175TIP3    H269941   6.380   0.910  10.846  0.3448  0.7779 -1.1301
16176TIP3   OH269942   2.575   6.301   2.835 -0.1507  0.0866 -0.3124
16176TIP3    H169943   2.630   6.225   2.813 -0.7630 -1.4272  2.8365
16176TIP3    H269944   2.485   6.267   2.833 -0.4769  0.8578  0.6875
16177TIP3   OH269945   4.655   0.442   5.577  0.2650  0.1036  0.3321
16177TIP3    H169946   4.585   0.507   5.568 -0.3066 -0.6020 -0.3163
16177TIP3    H269947   4.732   0.484   5.538 -0.5861 -0.3624 -1.9899
16178TIP3   OH269948   1.830   6.304  13.684 -0.0453  0.3807  0.6222
16178TIP3    H169949   1.776   6.341  13.615 -0.1614  0.8184  0.9488
16178TIP3    H269950   1.828   6.209  13.668  0.8499  0.5510 -0.6542
16179TIP3   OH269951   0.359   1.811  15.467  0.4419  0.5057 -0.2960
16179TIP3    H169952   0.440   1.765  15.447  0.3430  1.4718 -3.4226
16179TIP3    H269953   0.303   1.795  15.391 -2.1913  0.2821  1.5202
16180TIP3   OH269954   1.602   3.281   3.914 -0.1194  0.2647 -0.6592
16180TIP3    H169955   1.543   3.210   3.889  0.8518 -0.5847 -0.5905
16180TIP3    H269956   1.602   3.339   3.838  0.0114 -0.4405 -1.2092
16181TIP3   OH269957   5.685   0.295  14.786 -0.3966 -0.0841 -0.2171
16181TIP3    H169958   5.747   0.222  14.794 -0.9299 -0.3272  2.6400
16181TIP3    H269959   5.697   0.327  14.697  2.0300 -1.7317 -0.5681
16182TIP3   OH269960   0.805   5.590  13.456 -0.4159  0.0142  0.2584
16182TIP3    H169961   0.749   5.667  13.458 -0.5975 -0.0942 -0.5357
16182TIP3    H269962   0.771   5.537  13.384  1.4431  0.5164 -1.0713
16183TIP3   OH269963   2.742   1.768  12.043 -0.1123  0.2321 -0.0547
16183TIP3    H169964   2.836   1.753  12.028 -0.3322 -1.4404  0.0819
16183TIP3    H269965   2.709   1.683  12.072 -1.9191  0.4726 -1.2877
16184TIP3   OH269966   6.190   5.937  12.113 -0.0716 -0.5093  0.3494
16184TIP3    H169967   6.258   5.873  12.132  0.5907 -0.2015 -0.8837
16184TIP3    H269968   6.215   6.015  12.163  0.5738 -0.3474 -0.2190
16185TIP3   OH269969   0.194   5.778  11.576  0.0714 -0.4741  0.1949
16185TIP3    H169970   0.273   5.752  11.529 -0.5084  0.2849 -1.2647
16185TIP3    H269971   0.123   5.766  11.513 -0.7933  0.2491  0.9971
16186TIP3   OH269972   6.057   0.883  15.074  0.4371  0.1055 -0.1094
16186TIP3    H169973   6.014   0.799  15.090  0.2223  0.2085 -0.1358
16186TIP3    H269974   6.107   0.900  15.154  2.1402 -1.0178 -0.8705
16187TIP3   OH269975   0.760   1.192  13.353 -0.0399  0.2558 -0.8606
16187TIP3    H169976   0.812   1.157  13.426 -0.9787  0.0390 -0.2699
16187TIP3    H269977   0.720   1.271  13.390  0.8417  1.1236 -1.7028
16188TIP3   OH269978   3.856   0.864  11.996 -0.0734  0.4956 -0.4346
16188TIP3    H169979   3.852   0.937  11.935  1.7851  2.6604  1.8100
16188TIP3    H269980   3.774   0.868  12.045  0.2159  1.4786  0.0057
16189TIP3   OH269981   5.034   2.273   0.517  0.0424 -0.5064 -0.1248
16189TIP3    H169982   4.988   2.194   0.488 -1.2673  0.2625 -0.2109
16189TIP3    H269983   5.102   2.286   0.451  0.6923 -1.9013  0.2363
16190TIP3   OH269984   6.267   0.873   5.438  0.3587 -0.3223  0.2304
16190TIP3    H169985   6.197   0.888   5.375 -2.4200  1.2864  3.3746
16190TIP3    H269986   6.311   0.794   5.407 -1.8949 -0.5835 -2.7135
16191TIP3   OH269987   3.374   1.079   3.039 -0.8147 -0.7914  0.5418
16191TIP3    H169988   3.414   1.113   2.958  0.5898  1.0016  1.8949
16191TIP3    H269989   3.361   0.986   3.022  1.6616 -0.9625 -0.9439
16192TIP3   OH269990   1.163   5.446  12.786 -0.6030 -0.1759  0.4922
16192TIP3    H169991   1.161   5.399  12.870  1.9070  2.3748  2.1946
16192TIP3    H269992   1.247   5.493  12.787 -0.7728  0.5160 -3.2096
16193TIP3   OH269993   1.845   4.028  14.853 -0.1945  0.7259  0.4098
16193TIP3    H169994   1.918   4.088  14.869  1.3511 -0.4650 -1.5759
16193TIP3    H269995   1.864   3.951  14.906 -0.8201  0.9743  1.0101
16194TIP3   OH269996   0.996   2.963  16.658  0.3751 -0.3057 -0.3859
16194TIP3    H169997   1.012   3.051  16.691  0.3587 -0.7845  0.9319
16194TIP3    H269998   1.047   2.959  16.577 -1.4565  1.6871 -1.7836
16195TIP3   OH269999   5.144   4.271   1.480 -0.3652 -0.1164 -0.0835
16195TIP3    H170000   5.057   4.280   1.441 -0.1753  0.9250 -0.3102
16195TIP3    H270001   5.175   4.361   1.489  0.8905 -0.4926 -0.4604
16196TIP3   OH270002   4.844   3.846  11.837 -0.1826 -0.7084 -0.0054
16196TIP3    H170003   4.883   3.776  11.784  0.0649  0.6246 -1.6791
16196TIP3    H270004   4.914   3.911  11.846 -0.7131 -0.2090  0.6466
16197TIP3   OH270005   2.724   1.547  14.260 -0.5274 -0.0132  0.0416
16197TIP3    H170006   2.682   1.480  14.206 -1.0032 -0.4256  0.9079
16197TIP3    H270007   2.759   1.609  14.197  1.3611 -1.8815 -0.8868
16198TIP3   OH270008   6.329   4.837  13.063  0.4396 -0.3093  0.1528
16198TIP3    H170009   6.358   4.921  13.098 -1.5360  0.9612 -1.0760
16198TIP3    H270010   6.348   4.774  13.132  1.8193  1.1522  1.1693
16199TIP3   OH270011   5.391   0.081   0.125  0.6918 -0.6996 -0.0246
16199TIP3    H170012   5.384   0.010   0.062  0.9942 -0.2900 -0.5217
16199TIP3    H270013   5.456   0.051   0.188  1.5345 -0.4708 -0.7647
16200TIP3   OH270014   3.083   4.718  12.945  0.4817  0.8722  0.1315
16200TIP3    H170015   3.040   4.781  13.002  0.0186 -1.0387  2.0433
16200TIP3    H270016   3.163   4.693  12.991 -0.0369 -0.9207  0.1572
16201TIP3   OH270017   6.513   1.044   2.361 -0.2531 -0.1856  0.1601
16201TIP3    H170018   6.467   1.004   2.435 -0.9705  1.2282  0.5114
16201TIP3    H270019   6.545   1.127   2.396 -0.8758  0.6488 -1.1956
16202TIP3   OH270020   2.491   6.367   0.931  0.0075 -0.2609 -0.3262
16202TIP3    H170021   2.522   6.277   0.928 -1.9484 -0.9613 -0.8974
16202TIP3    H270022   2.409   6.363   0.981 -0.7838  0.9805 -1.4585
16203TIP3   OH270023   3.834   3.875   5.347  0.2975 -0.3707  0.2505
16203TIP3    H170024   3.799   3.845   5.263  1.8009 -0.8898 -0.2379
16203TIP3    H270025   3.921   3.910   5.325  0.4608  0.0455  1.5043
16204TIP3   OH270026   6.156   4.419   1.023  0.0294 -0.0782 -0.8312
16204TIP3    H170027   6.123   4.505   0.996 -1.5937 -0.5134 -0.3914
16204TIP3    H270028   6.165   4.425   1.118 -1.1952 -0.7059 -0.6500
16205TIP3   OH270029   3.221   0.382   4.922  0.1901 -0.8566  0.3479
16205TIP3    H170030   3.210   0.393   5.017  0.3655 -0.2219  0.3021
16205TIP3    H270031   3.199   0.468   4.886 -0.4331 -1.2588 -0.2413
16206TIP3   OH270032   1.326   3.966  12.729 -0.9942  0.5571 -0.1517
16206TIP3    H170033   1.267   4.008  12.791 -2.4298  0.5760 -1.4719
16206TIP3    H270034   1.285   3.979  12.644 -0.6976 -2.1542 -0.8025
16207TIP3   OH270035   6.495   6.035  12.746  0.0668  0.2766 -0.7482
16207TIP3    H170036   6.517   5.941  12.743  0.5405  0.3792 -0.6559
16207TIP3    H270037   6.428   6.042  12.814  1.3384  0.2438  0.5681
16208TIP3   OH270038   1.286   6.592   6.101 -0.2354 -0.1872 -0.1549
16208TIP3    H170039   1.299   6.570   6.193 -1.0804 -3.4182 -0.6460
16208TIP3    H270040   1.310   6.512   6.054 -0.2938  1.1868 -2.7231
16209TIP3   OH270041   5.521   2.815  17.345  0.1404  0.4724 -0.3946
16209TIP3    H170042   5.596   2.760  17.369  1.0179  2.3632  1.5991
16209TIP3    H270043   5.485   2.844  17.429 -0.9470  2.0490 -1.3518
16210TIP3   OH270044   6.049   2.520  12.807 -0.3565  0.3127  0.1609
16210TIP3    H170045   6.138   2.519  12.842  0.9000 -2.4114 -2.5683
16210TIP3    H270046   6.053   2.578  12.731 -0.7605 -0.1517 -0.2278
16211TIP3   OH270047   4.861   5.511   0.987  0.0946 -0.0456  0.6038
16211TIP3    H170048   4.885   5.522   0.896 -0.6077 -0.6250  0.3309
16211TIP3    H270049   4.940   5.533   1.037 -0.3584  3.4257  0.0640
16212TIP3   OH270050   3.701   2.325  14.831  0.1640 -0.5346  0.1213
16212TIP3    H170051   3.764   2.278  14.776  0.9517  0.2476  0.3235
16212TIP3    H270052   3.739   2.321  14.919 -1.4495 -2.4105  0.8013
16213TIP3   OH270053   3.381   0.261  12.672  0.0713 -0.5499 -0.5714
16213TIP3    H170054   3.451   0.246  12.609  1.0662 -0.8939  0.5728
16213TIP3    H270055   3.363   0.175  12.710  0.5292 -0.1291  0.6488
16214TIP3   OH270056   2.588   1.001  15.518  0.9085  0.0060  0.0833
16214TIP3    H170057   2.538   0.933  15.563  0.0935 -0.3904 -1.3448
16214TIP3    H270058   2.521   1.056  15.477  1.5998 -0.6472 -2.0325
16215TIP3   OH270059   4.771   4.237   3.917  0.0521 -0.2016 -0.0978
16215TIP3    H170060   4.800   4.265   3.830  0.5969  1.2630  0.5198
16215TIP3    H270061   4.712   4.307   3.946 -0.9908 -1.2112  0.2905
16216TIP3   OH270062   4.961   0.998   3.074  0.2334  0.1172 -0.0409
16216TIP3    H170063   4.872   0.989   3.040  0.3691  0.2040 -0.4212
16216TIP3    H270064   4.966   0.934   3.145 -0.2036  0.2657  0.1311
16217TIP3   OH270065   1.062   2.693  12.257 -0.4963  0.0409  0.2653
16217TIP3    H170066   1.099   2.714  12.343  1.4511  0.5932 -0.6613
16217TIP3    H270067   1.127   2.637  12.216 -0.9325  0.5846 -1.2377
16218TIP3   OH270068   5.034   4.042  16.147  0.2031  0.1630 -0.1807
16218TIP3    H170069   5.100   4.111  16.139  0.1103  0.2673 -0.0524
16218TIP3    H270070   5.079   3.970  16.190  0.1155  0.3935  0.3007
16219TIP3   OH270071   3.082   1.195   2.839 -0.2383  0.0401  0.0550
16219TIP3    H170072   3.127   1.239   2.912 -0.4066 -0.3376  0.3877
16219TIP3    H270073   3.123   1.109   2.834 -0.1247  0.1171 -0.3987
16220TIP3   OH270074   1.897   4.726  13.885  0.1722 -0.6685  0.0993
16220TIP3    H170075   1.813   4.725  13.931  0.6461 -5.2883  1.3930
16220TIP3    H270076   1.874   4.700  13.795  0.1598 -2.8537  0.6732
16221TIP3   OH270077   3.690   2.488   4.664 -0.2364  0.0998 -0.2434
16221TIP3    H170078   3.725   2.519   4.580 -1.8802  0.5785 -0.7782
16221TIP3    H270079   3.635   2.560   4.695 -0.1830 -0.3401  0.9379
16222TIP3   OH270080   1.124   2.332  11.497 -0.0079  0.3340  0.4847
16222TIP3    H170081   1.103   2.418  11.461 -2.5413 -0.4689 -0.1394
16222TIP3    H270082   1.200   2.303  11.446  0.4849  1.9173  0.2677
16223TIP3   OH270083   0.835   2.259   5.982 -0.2477 -0.2114 -0.5100
16223TIP3    H170084   0.797   2.270   6.070  2.3665 -0.0398  0.6918
16223TIP3    H270085   0.880   2.175   5.987  1.8552  0.8356 -0.8714
16224TIP3   OH270086   3.704   6.289  12.613 -0.3436 -0.3450 -0.2032
16224TIP3    H170087   3.685   6.276  12.520  0.8283  0.0820 -0.5217
16224TIP3    H270088   3.786   6.340  12.613  1.6537 -3.2691  1.0448
16225TIP3   OH270089   6.588   6.314   5.528  0.0386 -0.4034 -0.2282
16225TIP3    H170090   6.542   6.307   5.611 -0.0552 -1.8952 -0.3772
16225TIP3    H270091   6.634   6.230   5.519  1.1846  0.2788 -1.0211
16226TIP3   OH270092   6.709   5.216  13.538 -0.2378  0.5528 -0.0400
16226TIP3    H170093   6.784   5.200  13.595 -1.4988 -2.1113  1.0686
16226TIP3    H270094   6.733   5.175  13.455  0.0105  0.7780 -0.0794
16227TIP3   OH270095   1.802   4.870   1.990 -0.5479 -0.3272 -0.6459
16227TIP3    H170096   1.814   4.953   1.944 -4.2628  1.1457  0.5817
16227TIP3    H270097   1.869   4.870   2.059  1.6031 -0.0333 -2.6181
16228TIP3   OH270098   4.113   0.401   1.059  0.1606  0.0755  0.6684
16228TIP3    H170099   4.155   0.473   1.012  2.4969 -1.0384  0.9230
16228TIP3    H270100   4.050   0.444   1.116 -1.2725  1.6129 -1.8791
16229TIP3   OH270101   2.080   2.436  12.726 -0.3407  0.2232  0.0725
16229TIP3    H170102   2.127   2.509  12.685 -0.1348  0.2615  0.3731
16229TIP3    H270103   2.035   2.393  12.653 -1.0730  1.0886 -0.0062
16230TIP3   OH270104   4.430   0.585  13.498  0.7088  0.2385  0.5942
16230TIP3    H170105   4.371   0.626  13.562 -1.5603 -0.2464 -1.0404
16230TIP3    H270106   4.455   0.502  13.538 -0.1119  0.2549  1.1612
16231TIP3   OH270107   4.523   4.161   0.808  0.2552  0.0487 -0.0435
16231TIP3    H170108   4.553   4.252   0.810  1.3187 -0.2876  0.3038
16231TIP3    H270109   4.465   4.153   0.884  0.3435  0.3844  0.0603
16232TIP3   OH270110   3.602   2.136  13.527 -0.2585  0.2820  0.1487
16232TIP3    H170111   3.628   2.170  13.441 -1.5656  2.3268  0.4981
16232TIP3    H270112   3.658   2.182  13.589  0.5195 -1.0205  0.4382
16233TIP3   OH270113   5.754   2.804   3.246 -0.2272  0.3328 -0.5235
16233TIP3    H170114   5.778   2.896   3.239 -0.3784  0.3469 -0.8911
16233TIP3    H270115   5.810   2.760   3.182  0.7571 -0.0155  0.5345
16234TIP3   OH270116   5.900   1.500  12.874  0.1371  0.9552  0.0448
16234TIP3    H170117   5.903   1.587  12.834  1.8946  1.0445  0.2820
16234TIP3    H270118   5.867   1.514  12.962 -2.9821  0.8675 -0.9890
16235TIP3   OH270119   5.277   3.919  16.221  0.0999  0.0235  0.1712
16235TIP3    H170120   5.360   3.887  16.186 -0.1918 -0.0742 -0.4421
16235TIP3    H270121   5.235   3.841  16.259  0.1714  0.0216  0.2459
16236TIP3   OH270122   6.498   5.086   4.526  0.1772  0.4268 -0.1516
16236TIP3    H170123   6.425   5.147   4.534 -0.9757 -1.0628  1.2994
16236TIP3    H270124   6.556   5.108   4.599  0.8871  1.1724 -0.9135
16237TIP3   OH270125   1.839   2.693  16.395 -0.4262 -0.1323 -0.8234
16237TIP3    H170126   1.779   2.699  16.469  2.0642 -0.3230  1.3531
16237TIP3    H270127   1.875   2.605  16.399  0.4273  0.1497 -1.7128
16238TIP3   OH270128   0.551   0.190   3.575  0.1271 -0.1384 -0.3893
16238TIP3    H170129   0.481   0.147   3.526 -1.0617  2.6325 -1.3323
16238TIP3    H270130   0.601   0.118   3.615 -3.6142 -2.2448  0.9364
16239TIP3   OH270131   1.130   6.044   1.068 -0.4076  0.2571  0.3006
16239TIP3    H170132   1.178   5.988   1.129 -0.7589 -0.7145 -0.2900
16239TIP3    H270133   1.080   5.982   1.014 -0.4920  1.1292 -0.6351
16240TIP3   OH270134   0.948   5.262  12.926  0.6076  0.5320 -0.5993
16240TIP3    H170135   1.034   5.233  12.896  0.8570  2.2153 -1.6378
16240TIP3    H270136   0.892   5.254  12.849 -0.2163 -0.6581  0.0997
16241TIP3   OH270137   0.719   1.817  14.313 -0.2879  0.7856  0.5222
16241TIP3    H170138   0.647   1.829  14.374  1.7882  1.6877  2.9562
16241TIP3    H270139   0.790   1.781  14.366  1.0673 -0.1476 -1.7780
16242TIP3   OH270140   2.175   1.090  16.954 -0.0010  0.3930 -0.0778
16242TIP3    H170141   2.142   1.166  16.906  0.7496  0.4653 -0.4894
16242TIP3    H270142   2.104   1.067  17.014 -0.3345  1.2615 -0.1282
16243TIP3   OH270143   1.305   4.074   5.266 -0.0470  0.3667 -0.1820
16243TIP3    H170144   1.359   4.135   5.217 -1.2518  1.3947 -0.2746
16243TIP3    H270145   1.357   4.052   5.344  1.1498  0.0690 -1.0473
16244TIP3   OH270146   5.651   6.690  13.525  0.8295  0.0859 -0.8811
16244TIP3    H170147   5.726   6.717  13.472 -0.0626  1.5857 -1.4314
16244TIP3    H270148   5.574   6.719  13.476 -0.1243 -1.0887 -0.1519
16245TIP3   OH270149   1.681   6.453   1.153  0.2960 -0.0739 -0.4614
16245TIP3    H170150   1.627   6.464   1.231  0.9833  0.1865 -0.0073
16245TIP3    H270151   1.692   6.359   1.144  1.5980 -0.0785  0.7598
16246TIP3   OH270152   3.695   2.198  15.728  0.0358  0.0677 -0.2250
16246TIP3    H170153   3.691   2.120  15.673 -1.1298 -0.1323  0.1321
16246TIP3    H270154   3.620   2.191  15.787 -0.0285  1.3940 -0.1084
16247TIP3   OH270155   2.533   4.170  11.593 -0.5574 -0.3063 -0.2910
16247TIP3    H170156   2.577   4.204  11.671 -0.9493 -0.5961  0.0685
16247TIP3    H270157   2.587   4.097  11.565  0.4788  0.8105 -1.2769
16248TIP3   OH270158   4.897   0.200   5.900  0.2901  0.7360 -0.1645
16248TIP3    H170159   4.857   0.283   5.875  0.8481  0.6180 -1.4945
16248TIP3    H270160   4.835   0.162   5.962  0.4909  2.5729  1.2564
16249TIP3   OH270161   0.229   0.572  15.173  0.4687  0.0518  0.4405
16249TIP3    H170162   0.306   0.619  15.142  0.9467 -0.1723  1.2654
16249TIP3    H270163   0.263   0.508  15.235 -0.3297 -0.3983  0.4268
16250TIP3   OH270164   4.002   4.709  12.107 -0.2574 -0.2090 -0.4484
16250TIP3    H170165   3.909   4.694  12.089 -0.4754  2.3130 -1.9535
16250TIP3    H270166   4.007   4.801  12.132  1.8294 -0.3245 -0.2518
16251TIP3   OH270167   5.253   4.682  16.255  0.4380 -0.1242 -0.6284
16251TIP3    H170168   5.310   4.611  16.227  0.0442 -0.4567 -0.6089
16251TIP3    H270169   5.165   4.653  16.229  0.4537  1.1435 -2.2288
16252TIP3   OH270170   3.086   5.511  13.882  0.8043  0.0583 -0.2220
16252TIP3    H170171   3.055   5.470  13.801  1.0959  0.2835 -0.4476
16252TIP3    H270172   3.006   5.543  13.924  0.5833 -0.6420 -0.0942
16253TIP3   OH270173   6.279   3.672   1.017  0.0699 -0.2953  0.2683
16253TIP3    H170174   6.311   3.640   0.933  0.1463  1.4184 -0.3893
16253TIP3    H270175   6.359   3.697   1.064 -0.0830  0.7651 -0.0175
16254TIP3   OH270176   5.755   5.157   5.460  0.2573  0.1241  0.4691
16254TIP3    H170177   5.729   5.109   5.381  0.7649 -0.6887  0.7817
16254TIP3    H270178   5.739   5.096   5.532 -1.8829  1.4671  1.2169
16255TIP3   OH270179   2.617   3.868   2.493 -0.7817 -0.0266 -0.5215
16255TIP3    H170180   2.658   3.797   2.444  1.8128  0.6976  0.4026
16255TIP3    H270181   2.582   3.926   2.426 -1.2191 -1.2002 -1.3391
16256TIP3   OH270182   2.386   3.847   0.659  0.0323  0.2948 -0.2709
16256TIP3    H170183   2.344   3.845   0.745  1.8091  1.9134  0.7174
16256TIP3    H270184   2.313   3.851   0.597 -1.2861  0.4057  1.2101
16257TIP3   OH270185   5.895   6.677   0.778  0.2541  0.6730 -0.2327
16257TIP3    H170186   5.970   6.655   0.723 -0.5681 -0.2278 -1.0257
16257TIP3    H270187   5.902   6.616   0.852  0.1402  0.3755 -0.4639
16258TIP3   OH270188   5.378   1.846   5.051  0.2116  0.1601 -0.2017
16258TIP3    H170189   5.404   1.769   5.000 -0.0794  0.1498 -0.3431
16258TIP3    H270190   5.399   1.824   5.141  0.0654 -0.1160 -0.2336
16259TIP3   OH270191   2.158   2.686  12.647  0.3245  0.2835 -0.1159
16259TIP3    H170192   2.184   2.725  12.731 -0.5560 -2.3300  1.4582
16259TIP3    H270193   2.073   2.726  12.628  0.2993  0.5359  0.4864
16260TIP3   OH270194   1.889   1.368   0.404  0.4344  0.4403  0.1754
16260TIP3    H170195   1.825   1.305   0.435  1.2656  0.9411  3.2744
16260TIP3    H270196   1.851   1.405   0.325 -1.8581 -1.1289  0.4660
16261TIP3   OH270197   2.438   0.488  15.559 -0.0385  0.0556  0.1184
16261TIP3    H170198   2.524   0.529  15.552  0.8208 -1.4548  1.2009
16261TIP3    H270199   2.411   0.505  15.650 -0.0201 -1.0345  0.3485
16262TIP3   OH270200   0.020   1.325   5.347 -0.2675  0.5229  0.2886
16262TIP3    H170201  -0.011   1.371   5.425 -2.4242  0.9148 -0.7112
16262TIP3    H270202  -0.003   1.234   5.363  0.8184  0.3259  0.7924
16263TIP3   OH270203   0.472   4.480   5.670 -0.0445  0.1346  0.1660
16263TIP3    H170204   0.455   4.450   5.760 -0.3035 -0.8141 -0.1811
16263TIP3    H270205   0.558   4.522   5.675  0.2398 -0.4854  0.7387
16264TIP3   OH270206   1.019   2.518  16.490 -0.3139  0.6796 -0.0251
16264TIP3    H170207   1.017   2.560  16.576 -3.5410  2.2529 -0.7377
16264TIP3    H270208   0.949   2.453  16.492  1.4995 -1.4362 -0.5760
16265TIP3   OH270209   3.076   4.805   3.303  0.4075 -0.1063 -0.5269
16265TIP3    H170210   3.139   4.733   3.295 -1.1225 -1.6193  0.2921
16265TIP3    H270211   2.993   4.768   3.272 -0.4458  1.3035 -0.0382
16266TIP3   OH270212   6.125   5.818  12.790 -0.0732  0.4201  0.3831
16266TIP3    H170213   6.103   5.732  12.756  2.0354 -0.1737  0.3865
16266TIP3    H270214   6.093   5.879  12.723 -0.7112 -0.4028 -0.0827
16267TIP3   OH270215   3.261   1.758  13.656  0.1168 -0.2883 -0.3330
16267TIP3    H170216   3.350   1.792  13.667  0.1987 -0.7929  0.6475
16267TIP3    H270217   3.204   1.834  13.674  0.3348 -0.0937 -0.4586
16268TIP3   OH270218   6.609   1.628   5.224  0.4671 -0.2057 -0.2187
16268TIP3    H170219   6.562   1.582   5.154 -2.0738  1.0986  0.5085
16268TIP3    H270220   6.600   1.572   5.301 -0.3719  0.2822  0.0451
16269TIP3   OH270221   5.020   3.174   0.408  0.2170 -0.1757  0.1717
16269TIP3    H170222   5.023   3.110   0.336 -1.3273  0.8486 -0.8650
16269TIP3    H270223   5.091   3.235   0.388 -0.5007  0.3765 -0.8027
16270TIP3   OH270224   2.109   3.120   4.007 -0.0738 -0.3303  0.6082
16270TIP3    H170225   2.024   3.138   3.967  0.0570 -0.8729  0.0601
16270TIP3    H270226   2.094   3.043   4.062  0.0305 -0.3553  0.6033
16271TIP3   OH270227   2.178   0.877   4.845 -0.2701  0.2457  0.0006
16271TIP3    H170228   2.213   0.928   4.918  2.0024  0.3539 -1.0630
16271TIP3    H270229   2.166   0.942   4.775 -1.9808  0.0686  0.0823
16272TIP3   OH270230   5.267   0.773  16.498 -0.1603  0.5588 -0.0372
16272TIP3    H170231   5.349   0.731  16.522 -0.7816  0.8955  3.1098
16272TIP3    H270232   5.207   0.752  16.569 -1.0447  5.2216  0.9427
16273TIP3   OH270233   1.252   3.075  13.118  0.0391  0.2523  0.1849
16273TIP3    H170234   1.170   3.042  13.153  0.4774 -0.5926  0.4578
16273TIP3    H270235   1.275   3.148  13.175 -0.4209  0.3625  0.2286
16274TIP3   OH270236   1.975   4.553  11.381 -0.0873 -0.3617  0.2075
16274TIP3    H170237   2.001   4.633  11.335  1.3926 -0.5070  0.7324
16274TIP3    H270238   1.976   4.576  11.473 -0.8381 -0.6678  0.2939
16275TIP3   OH270239   0.558   5.136  10.919  0.2606  0.2261  0.1744
16275TIP3    H170240   0.558   5.231  10.932  2.1969  0.4212 -0.8569
16275TIP3    H270241   0.521   5.124  10.831 -0.9790 -0.0846  0.7206
16276TIP3   OH270242   3.772   3.517   6.727 -0.0112 -0.0818  0.4899
16276TIP3    H170243   3.826   3.438   6.730 -0.7778 -0.6437 -0.2365
16276TIP3    H270244   3.806   3.568   6.654  0.9312  0.6184  1.3765
16277TIP3   OH270245   6.442   0.873   1.309 -0.1918  0.8598  0.3689
16277TIP3    H170246   6.537   0.857   1.315 -0.3328 -1.6604 -2.1321
16277TIP3    H270247   6.406   0.829   1.386  0.6254  1.8235  1.3369
16278TIP3   OH270248   2.882   5.666   3.955  0.0755 -0.1034 -0.0857
16278TIP3    H170249   2.886   5.721   3.877  1.6902  2.4580  1.6835
16278TIP3    H270250   2.905   5.578   3.923  2.6964  1.2187 -2.2185
16279TIP3   OH270251   0.520   2.546   6.524  0.6627  0.0779 -0.1469
16279TIP3    H170252   0.516   2.483   6.596 -0.6343 -0.5216 -0.7105
16279TIP3    H270253   0.613   2.552   6.503  0.9569 -0.5232  0.8902
16280TIP3   OH270254   0.595   3.675   5.942 -0.3277 -0.1982 -0.0184
16280TIP3    H170255   0.635   3.762   5.941  2.3025 -1.3173  0.3748
16280TIP3    H270256   0.661   3.618   5.981 -2.1696 -2.3153  0.2191
16281TIP3   OH270257   0.416   1.611   2.269  0.0784 -0.0361  0.2964
16281TIP3    H170258   0.329   1.621   2.231  0.4193 -0.4222 -0.6127
16281TIP3    H270259   0.466   1.564   2.202  0.7660 -0.5177  1.1348
16282TIP3   OH270260   4.937   4.389   2.046  0.8081  0.0340 -0.8744
16282TIP3    H170261   4.858   4.360   2.001 -0.2740  1.2832  0.1348
16282TIP3    H270262   4.986   4.437   1.980  0.6885 -0.6722 -1.4865
16283TIP3   OH270263   1.212   1.373  11.078  0.1698  0.1682  0.1106
16283TIP3    H170264   1.165   1.380  11.161 -0.5559  0.6547 -0.3354
16283TIP3    H270265   1.303   1.355  11.104 -0.4355 -2.0267  0.9691
16284TIP3   OH270266   4.854   3.079   2.159 -0.6859 -0.3323  0.5629
16284TIP3    H170267   4.792   3.118   2.097 -1.6752 -0.8730  1.1971
16284TIP3    H270268   4.903   3.016   2.106 -1.1344 -0.3861  0.2016
16285TIP3   OH270269   5.466   5.799  15.168 -0.1702 -0.0550 -0.3630
16285TIP3    H170270   5.487   5.711  15.139  0.0281 -0.5612  1.2463
16285TIP3    H270271   5.441   5.790  15.259 -1.0955  1.4321 -0.4210
16286TIP3   OH270272   5.092   5.531  14.264  0.2076 -0.0410 -0.3753
16286TIP3    H170273   5.048   5.607  14.224 -0.5856 -0.5737 -0.5472
16286TIP3    H270274   5.131   5.565  14.344 -0.5056  0.4679 -0.2334
16287TIP3   OH270275   4.912   5.269   4.297 -0.5761  0.2028  0.5429
16287TIP3    H170276   4.905   5.249   4.203  0.6199 -0.7401  0.6188
16287TIP3    H270277   4.940   5.360   4.300  0.5167 -0.0940 -0.0784
16288TIP3   OH270278   3.954   2.074   3.265 -0.1415  0.4245  0.3444
16288TIP3    H170279   3.985   2.008   3.327 -0.2660 -1.1148 -1.1444
16288TIP3    H270280   3.861   2.084   3.286 -0.5200 -1.1351 -0.4399
16289TIP3   OH270281   5.661   1.392  13.377  0.3053  0.0875  0.3844
16289TIP3    H170282   5.703   1.394  13.463 -0.7263 -2.2690  1.0136
16289TIP3    H270283   5.717   1.448  13.323  2.4526 -0.3848  1.9458
16290TIP3   OH270284   5.796   2.914  16.396  0.4516 -0.1184 -0.7785
16290TIP3    H170285   5.770   2.995  16.353  1.8669  1.5697  1.3256
16290TIP3    H270286   5.735   2.904  16.469  0.6390 -0.6408 -0.6883
16291TIP3   OH270287   5.540   3.110  16.128 -0.7788 -0.2221  0.8565
16291TIP3    H170288   5.477   3.102  16.200  1.0507  1.8448  2.8349
16291TIP3    H270289   5.498   3.170  16.067 -1.0538  0.5495  1.7850
16292TIP3   OH270290   0.930   0.199  15.363 -0.0448  0.3867 -0.3477
16292TIP3    H170291   0.877   0.155  15.296 -0.0245  0.4860 -0.4280
16292TIP3    H270292   0.947   0.130  15.428 -1.1966  0.6334  0.2285
16293TIP3   OH270293   6.492   3.084   3.337  0.5780 -0.1085  0.2200
16293TIP3    H170294   6.576   3.044   3.316  1.1176  0.8008  0.5636
16293TIP3    H270295   6.515   3.162   3.389 -0.5601 -1.1444  2.4274
16294TIP3   OH270296   5.557   2.671  15.396 -1.2735 -0.6369 -0.0472
16294TIP3    H170297   5.610   2.627  15.463 -0.9573  0.3691  0.3734
16294TIP3    H270298   5.501   2.730  15.446 -0.1413  1.0775 -0.7336
16295TIP3   OH270299   3.154   2.926  14.978  0.3406 -0.0052 -0.4310
16295TIP3    H170300   3.123   2.893  14.893  1.2737  0.3905 -0.9372
16295TIP3    H270301   3.128   3.018  14.979 -0.7665 -0.3129  0.2569
16296TIP3   OH270302   1.071   6.208  14.980  0.4637  0.6652 -0.1081
16296TIP3    H170303   1.072   6.127  14.929 -2.1520 -0.2523  1.1021
16296TIP3    H270304   1.089   6.180  15.070 -0.5459  1.3518  0.3313
16297TIP3   OH270305   6.199   0.866   1.130 -0.2846  0.2156  0.6912
16297TIP3    H170306   6.281   0.889   1.173 -0.5094  1.1446  0.6559
16297TIP3    H270307   6.157   0.950   1.113 -1.0496 -0.2284  0.3271
16298TIP3   OH270308   6.410   1.897  16.395 -0.1028 -0.4629 -0.0942
16298TIP3    H170309   6.402   1.993  16.392  0.0917 -0.3471  1.9430
16298TIP3    H270310   6.495   1.878  16.356 -0.3388  0.1509 -0.9242
16299TIP3   OH270311   3.961   2.690   1.088  0.1203 -0.5093  0.0217
16299TIP3    H170312   3.920   2.633   1.023 -1.2010  1.1011 -0.6459
16299TIP3    H270313   4.029   2.737   1.040  0.2466 -0.4890  0.2182
16300TIP3   OH270314   2.416   1.427  11.233 -0.8721 -0.2640  0.6667
16300TIP3    H170315   2.322   1.444  11.234 -0.9096 -0.3191 -0.3797
16300TIP3    H270316   2.455   1.501  11.278 -1.2514  1.0684 -1.0853
16301TIP3   OH270317   0.253   4.602   1.355  0.0629 -0.0359  0.1232
16301TIP3    H170318   0.259   4.512   1.323  1.4216  0.2599 -0.5392
16301TIP3    H270319   0.296   4.601   1.440 -0.5436 -0.1382  0.4365
16302TIP3   OH270320   5.372   2.318  16.534  0.2000  0.1397  0.1942
16302TIP3    H170321   5.384   2.235  16.580 -1.5122 -0.9026 -1.1088
16302TIP3    H270322   5.357   2.292  16.443  0.3351  1.9358 -0.3660
16303TIP3   OH270323   0.030   1.678  17.279  0.3973 -0.3373 -0.0942
16303TIP3    H170324  -0.005   1.668  17.368  0.0685 -2.9647 -0.4188
16303TIP3    H270325   0.014   1.769  17.257 -0.0820  0.2424  2.2963
16304TIP3   OH270326   4.127   6.133  17.250 -0.2311 -0.4543 -0.2455
16304TIP3    H170327   4.215   6.136  17.210  0.2857  0.9722  0.9178
16304TIP3    H270328   4.095   6.223  17.242 -0.2442 -0.1881  2.1924
16305TIP3   OH270329   2.943   4.981   4.147 -0.0353  0.3469 -0.1570
16305TIP3    H170330   2.904   5.035   4.215 -1.3611 -0.3819 -0.3077
16305TIP3    H270331   2.935   5.033   4.067 -0.5898  0.2477 -0.1653
16306TIP3   OH270332   0.514   1.316   2.043 -0.2084 -0.2230  0.4157
16306TIP3    H170333   0.465   1.302   2.124 -0.9923  0.2113  0.0275
16306TIP3    H270334   0.585   1.375   2.069 -1.1725  0.9223  0.5642
16307TIP3   OH270335   4.784   3.958   2.995  0.1934  0.6771 -0.4921
16307TIP3    H170336   4.798   3.876   3.042  0.0716  0.3955 -0.9393
16307TIP3    H270337   4.872   3.990   2.976  0.3361 -0.7455 -2.7086
16308TIP3   OH270338   5.470   4.219   1.468 -0.0497  0.1690  0.0037
16308TIP3    H170339   5.539   4.189   1.527  1.2135  1.8945 -0.5320
16308TIP3    H270340   5.454   4.310   1.493 -2.0080 -0.1273 -0.0298
16309TIP3   OH270341   1.279   3.266  13.831 -0.8966  0.6913 -0.0512
16309TIP3    H170342   1.359   3.215  13.842 -1.2280  0.1610 -0.0674
16309TIP3    H270343   1.237   3.228  13.754 -0.4968  1.8552 -0.8552
16310TIP3   OH270344   2.530   3.972   3.535  0.1309  0.1826  0.1401
16310TIP3    H170345   2.600   3.983   3.471  0.1505  1.4179  0.3558
16310TIP3    H270346   2.575   3.948   3.616  0.0299 -2.5670 -0.5285
16311TIP3   OH270347   0.942   0.948  10.657 -0.3361  0.8355  0.0583
16311TIP3    H170348   1.017   0.905  10.697  0.7774  1.6111 -1.1110
16311TIP3    H270349   0.900   0.880  10.605 -0.0646  0.5383  0.2263
16312TIP3   OH270350   0.912   0.073   3.377 -0.1652 -0.5909 -0.5803
16312TIP3    H170351   0.963   0.147   3.409 -0.8642 -0.4265  0.2094
16312TIP3    H270352   0.821   0.096   3.397 -0.4839 -1.2080 -1.2572
16313TIP3   OH270353   0.510   1.675   4.651 -0.1684 -0.0221  0.2777
16313TIP3    H170354   0.428   1.630   4.673 -0.4027  0.0958 -0.3286
16313TIP3    H270355   0.488   1.768   4.658 -0.8832  0.1064 -2.4757
16314TIP3   OH270356   2.282   5.352   0.479  0.2656  0.2389  0.2030
16314TIP3    H170357   2.196   5.387   0.504  0.9339  1.7377  0.5720
16314TIP3    H270358   2.274   5.332   0.386 -0.5928 -0.0103  0.3244
16315TIP3   OH270359   3.451   2.088  15.902  1.0705  0.0736 -0.7645
16315TIP3    H170360   3.375   2.121  15.856  1.2941  0.1810 -1.0560
16315TIP3    H270361   3.432   1.995  15.915  1.2089 -0.0593 -1.4812
16316TIP3   OH270362   6.094   3.327   3.082 -0.1994  0.4428  0.1213
16316TIP3    H170363   6.037   3.385   3.132 -0.0458  2.1149 -1.5814
16316TIP3    H270364   6.035   3.278   3.025 -0.1760 -0.0540  0.5054
16317TIP3   OH270365   0.701   0.839  12.855  0.1834 -0.1910 -0.3000
16317TIP3    H170366   0.760   0.862  12.783  0.5322  0.5634  0.2127
16317TIP3    H270367   0.741   0.761  12.895  0.8045  0.2671 -0.0069
16318TIP3   OH270368   3.428   5.604   0.268 -0.0465  0.0617  0.3838
16318TIP3    H170369   3.413   5.537   0.202  0.8035 -0.8717  1.1104
16318TIP3    H270370   3.373   5.677   0.241 -0.1634 -0.5217 -1.0166
16319TIP3   OH270371   3.928   1.689   0.277 -0.1824 -0.1833 -0.1633
16319TIP3    H170372   3.960   1.762   0.330  0.8817 -0.9728  0.3235
16319TIP3    H270373   3.833   1.691   0.288 -0.1251  0.7979  0.2579
16320TIP3   OH270374   5.602   0.967  12.129 -0.3617  0.4052 -0.6909
16320TIP3    H170375   5.607   0.898  12.196  0.6996 -0.3505 -1.5000
16320TIP3    H270376   5.660   0.936  12.059 -0.1901  1.9376 -1.2624
16321TIP3   OH270377   0.062   0.760  15.291  0.2167  0.2040 -0.0447
16321TIP3    H170378   0.124   0.705  15.243 -1.5796 -1.4532 -0.5829
16321TIP3    H270379   0.079   0.849  15.260  2.0831 -0.2299 -0.3879
16322TIP3   OH270380   6.162   2.223   5.382 -0.5446  0.3186 -0.3496
16322TIP3    H170381   6.195   2.137   5.354  0.5868  0.2249  1.0837
16322TIP3    H270382   6.238   2.281   5.374 -0.4549  0.5005  1.4183
16323TIP3   OH270383   0.296   6.159  15.094  0.1883 -0.3027 -0.5178
16323TIP3    H170384   0.225   6.110  15.135 -0.1652 -0.2189 -1.0292
16323TIP3    H270385   0.367   6.158  15.160  0.1561 -1.4073 -0.4880
16324TIP3   OH270386   4.178   0.662  12.862 -0.1768 -0.5398  0.5139
16324TIP3    H170387   4.224   0.687  12.782 -2.9104 -0.6160 -1.2279
16324TIP3    H270388   4.223   0.709  12.932  0.8704  1.4707 -1.3931
16325TIP3   OH270389   0.402   3.272  16.240  0.3500 -0.4604 -0.3558
16325TIP3    H170390   0.354   3.190  16.237  1.7314 -1.3725  0.9278
16325TIP3    H270391   0.347   3.331  16.290 -1.1341 -0.2052 -2.1667
16326TIP3   OH270392   0.813   5.872  17.304  0.3198  0.4740 -0.2784
16326TIP3    H170393   0.908   5.865  17.319  0.0417 -1.4434  0.9708
16326TIP3    H270394   0.788   5.788  17.266 -1.1469  0.1771  1.2294
16327TIP3   OH270395   2.301   3.666  16.152  0.3753 -0.6852  0.3290
16327TIP3    H170396   2.326   3.626  16.235  0.1366 -1.9711 -0.1851
16327TIP3    H270397   2.211   3.694  16.165  0.2206 -1.2034  0.4029
16328TIP3   OH270398   4.358   6.430  15.205  0.2429 -0.4995 -0.0061
16328TIP3    H170399   4.347   6.343  15.243  1.2091 -0.0523  1.3760
16328TIP3    H270400   4.452   6.444  15.204  0.0810  1.7250  2.7959
16329TIP3   OH270401   0.916   5.657   3.794  0.1240 -0.1785 -0.8551
16329TIP3    H170402   0.832   5.620   3.766  0.2315 -0.3561 -0.9492
16329TIP3    H270403   0.898   5.699   3.878 -0.8513  2.8400 -2.4484
16330TIP3   OH270404   4.191   2.069  14.271 -0.0526  0.5337 -0.2338
16330TIP3    H170405   4.133   1.998  14.299 -0.2886  0.5686 -0.6149
16330TIP3    H270406   4.273   2.025  14.247  0.6428  0.6383  1.7736
16331TIP3   OH270407   1.915   4.631   0.515 -0.1807 -0.1335  0.3881
16331TIP3    H170408   1.897   4.674   0.431 -1.2283 -0.2218  0.5533
16331TIP3    H270409   1.832   4.635   0.562 -0.1163 -1.6820  0.6902
16332TIP3   OH270410   3.404   2.529  14.265 -0.0706  0.3063  0.0096
16332TIP3    H170411   3.478   2.471  14.251  2.6692  2.7115  3.0375
16332TIP3    H270412   3.399   2.582  14.185  1.7632  0.3577 -0.1010
16333TIP3   OH270413   1.005   4.332  14.803  0.4565  0.5438  0.1890
16333TIP3    H170414   1.050   4.299  14.725  1.1522  0.6212  0.5548
16333TIP3    H270415   1.074   4.370  14.857  0.2491 -1.0008  1.6180
16334TIP3   OH270416   0.213   3.802   0.790  0.0787 -0.2125  0.2329
16334TIP3    H170417   0.198   3.864   0.861  0.9525 -0.0337  0.2795
16334TIP3    H270418   0.160   3.835   0.718  2.3755  2.0808 -0.5800
16335TIP3   OH270419   4.772   2.673  14.791  0.0337 -0.4575 -0.9610
16335TIP3    H170420   4.795   2.742  14.729 -1.5617 -0.2707 -1.3768
16335TIP3    H270421   4.701   2.625  14.749 -0.5140 -0.8549  0.3600
16336TIP3   OH270422   6.266   6.488   2.074  0.5269 -0.1325  0.1840
16336TIP3    H170423   6.245   6.582   2.075 -0.3292 -0.3146  0.5931
16336TIP3    H270424   6.320   6.477   1.997 -1.3762  0.3040 -1.2889
16337TIP3   OH270425   3.721   5.277   5.622 -0.6155 -0.2307 -0.0684
16337TIP3    H170426   3.629   5.287   5.599 -0.8625 -0.5120  0.7569
16337TIP3    H270427   3.722   5.202   5.682  0.4793 -1.9455 -2.0887
16338TIP3   OH270428   0.983   3.222  16.723 -0.0302  0.4439  0.1772
16338TIP3    H170429   0.961   3.305  16.765  0.8081  1.0266 -0.5187
16338TIP3    H270430   1.050   3.244  16.659  0.6642 -0.8702  0.4170
16339TIP3   OH270431   3.526   3.872   4.272 -0.2770  0.1882 -0.1227
16339TIP3    H170432   3.538   3.925   4.193 -1.2734 -1.4754 -1.4382
16339TIP3    H270433   3.494   3.934   4.338 -0.3332  1.4227 -1.2707
16340TIP3   OH270434   5.166   0.867  13.675  0.5010  0.1281  0.2641
16340TIP3    H170435   5.257   0.851  13.648  0.3252 -3.6117  1.4124
16340TIP3    H270436   5.118   0.871  13.592  1.3608 -0.5011 -0.2915
16341TIP3   OH270437   2.198   6.379  15.332 -0.2725 -0.1130  0.0615
16341TIP3    H170438   2.146   6.358  15.255 -0.2617 -0.5393  0.1651
16341TIP3    H270439   2.278   6.418  15.298  0.7939 -2.4571 -0.3036
16342TIP3   OH270440   4.902   2.297   2.310 -0.1006  0.6845 -0.1616
16342TIP3    H170441   4.941   2.254   2.234 -0.2623  0.4395 -0.1081
16342TIP3    H270442   4.839   2.232   2.344  1.2798  0.0467  1.2790
16343TIP3   OH270443   3.740   6.528  12.892 -0.4048  0.1415 -0.4412
16343TIP3    H170444   3.658   6.481  12.912  0.2360 -0.9366 -0.2553
16343TIP3    H270445   3.713   6.597  12.832 -1.3073 -0.8727 -1.2602
16344TIP3   OH270446   1.560   1.002  15.202 -0.0748 -0.0743 -0.0849
16344TIP3    H170447   1.583   1.091  15.229 -0.3945 -0.2702  0.8651
16344TIP3    H270448   1.633   0.974  15.147  1.1449 -0.0394  1.4478
16345TIP3   OH270449   6.546   5.944  12.403  0.0843  0.0058 -0.3590
16345TIP3    H170450   6.560   6.013  12.339  1.4455  1.1936  1.1266
16345TIP3    H270451   6.586   5.977  12.483 -0.6040 -1.8652  0.8346
16346TIP3   OH270452   1.279   4.764   6.495 -0.3586 -0.0153 -0.2478
16346TIP3    H170453   1.374   4.765   6.478 -0.1832  0.3389  0.6873
16346TIP3    H270454   1.252   4.674   6.476 -0.2787  0.4171 -2.7640
16347TIP3   OH270455   0.860   0.556  15.826 -0.7720 -0.2326  0.3041
16347TIP3    H170456   0.813   0.639  15.823 -1.0205 -0.3118  1.5333
16347TIP3    H270457   0.933   0.571  15.886 -2.3280 -1.5896  2.6941
16348TIP3   OH270458   2.206   6.015  12.364 -0.1747 -0.1690  0.4293
16348TIP3    H170459   2.232   6.096  12.320  0.8925  0.3788  1.9582
16348TIP3    H270460   2.130   6.040  12.417 -0.6337 -0.4975 -0.0636
16349TIP3   OH270461   5.482   5.169   1.729 -0.3176 -0.2562 -0.6532
16349TIP3    H170462   5.499   5.198   1.639 -0.3815  1.6307 -0.1127
16349TIP3    H270463   5.539   5.224   1.783 -1.3098 -0.3651  0.5524
16350TIP3   OH270464   4.393   0.448   4.385 -0.0212 -0.0263  0.4903
16350TIP3    H170465   4.306   0.435   4.350  0.0145  1.4416 -0.2109
16350TIP3    H270466   4.405   0.376   4.448 -0.6613 -1.8271 -1.3448
16351TIP3   OH270467   4.020   4.217   5.208 -0.1413 -0.7348 -0.2724
16351TIP3    H170468   4.036   4.141   5.264  2.1101  0.6945  1.2129
16351TIP3    H270469   4.096   4.220   5.150 -0.3061  0.2454 -0.4527
16352TIP3   OH270470   4.422   0.396   5.381 -0.2515  0.0587 -0.7073
16352TIP3    H170471   4.338   0.398   5.427  0.7583  0.4334  1.2308
16352TIP3    H270472   4.469   0.473   5.414  1.0116 -0.3733 -1.4323
16353TIP3   OH270473   5.367   3.086  14.718 -0.4773 -0.0716 -0.1426
16353TIP3    H170474   5.289   3.136  14.693  1.0556  2.0510 -0.9990
16353TIP3    H270475   5.369   3.092  14.813 -0.2881  1.6449 -0.2285
16354TIP3   OH270476   5.736   3.055   5.624 -0.1800 -0.0955 -0.3768
16354TIP3    H170477   5.750   3.059   5.529  0.8111 -0.6684 -0.2690
16354TIP3    H270478   5.823   3.068   5.661 -0.4186 -0.7966  0.4355
16355TIP3   OH270479   1.543   3.999   4.316 -0.3405  0.7858  0.6072
16355TIP3    H170480   1.525   3.939   4.389 -1.2487 -0.0491 -0.2670
16355TIP3    H270481   1.581   3.943   4.248 -1.2927  1.1524 -0.2604
16356TIP3   OH270482   3.264   0.839  11.783  0.3367 -0.1005  0.2061
16356TIP3    H170483   3.357   0.819  11.793  0.8714  1.7201 -0.6895
16356TIP3    H270484   3.252   0.922  11.829 -1.2709 -1.1481  1.8102
16357TIP3   OH270485   5.091   3.244  16.107 -0.2343  0.1227 -0.1275
16357TIP3    H170486   5.049   3.321  16.146 -0.7238  0.1587 -0.7104
16357TIP3    H270487   5.083   3.176  16.175  1.1662  0.8648  0.8216
16358TIP3   OH270488   6.056   1.375  15.683  0.3378 -0.2262 -0.3470
16358TIP3    H170489   5.991   1.365  15.614  0.8826  0.0191 -0.9028
16358TIP3    H270490   6.033   1.459  15.724  0.4913  0.0077 -0.7397
16359TIP3   OH270491   2.124   5.210   2.174  0.5257 -0.1149  0.3307
16359TIP3    H170492   2.138   5.134   2.116 -0.8215  0.8741 -1.4162
16359TIP3    H270493   2.033   5.235   2.157  0.7006  1.3999  1.4850
16360TIP3   OH270494   0.200   3.616   5.144 -0.3503  0.9718 -0.1305
16360TIP3    H170495   0.160   3.696   5.107 -1.2761 -0.2914 -2.0524
16360TIP3    H270496   0.294   3.632   5.140 -0.5159  1.9010 -0.6798
16361TIP3   OH270497   5.660   1.762   4.902 -0.2019 -0.1779  0.0362
16361TIP3    H170498   5.687   1.693   4.962  0.8696  0.5082  0.3700
16361TIP3    H270499   5.684   1.843   4.946 -2.5608  0.5048  0.2065
16362TIP3   OH270500   6.285   1.311   1.029 -0.0784 -0.3022 -0.4627
16362TIP3    H170501   6.317   1.238   1.081 -0.9357  0.8201  1.7431
16362TIP3    H270502   6.212   1.275   0.978 -0.6429 -0.9465  0.7707
16363TIP3   OH270503   6.649   3.989  13.378  0.1753  0.1093  0.3754
16363TIP3    H170504   6.653   3.908  13.428 -0.0106 -0.3013 -0.2634
16363TIP3    H270505   6.741   4.013  13.364  0.2314  0.3786  1.1337
16364TIP3   OH270506   5.267   4.172  11.966  0.2735 -0.0276  0.1021
16364TIP3    H170507   5.294   4.189  11.875 -1.0159 -0.1577 -0.3193
16364TIP3    H270508   5.228   4.254  11.995  2.4065  0.6750  1.2413
16365TIP3   OH270509   1.943   0.495  16.114 -0.0143  0.0705 -0.0459
16365TIP3    H170510   1.875   0.469  16.177 -0.2762  2.0293  0.5372
16365TIP3    H270511   2.025   0.487  16.162 -0.0832  0.2309  0.0979
16366TIP3   OH270512   1.698   1.604  12.205 -0.1385  0.4935  0.3190
16366TIP3    H170513   1.743   1.688  12.199 -1.0499  0.9989  0.2996
16366TIP3    H270514   1.633   1.607  12.135 -1.5233  0.6252  1.5673
16367TIP3   OH270515   4.530   2.032   3.734  0.4969 -0.3895 -0.1086
16367TIP3    H170516   4.492   2.074   3.657  1.4568 -1.6908 -1.3640
16367TIP3    H270517   4.511   1.939   3.722  0.2588 -0.5764  1.4948
16368TIP3   OH270518   2.968   1.391  17.143 -0.5639 -0.5575  0.7758
16368TIP3    H170519   2.976   1.296  17.136  0.9228 -0.3953 -0.2843
16368TIP3    H270520   3.058   1.422  17.156 -0.7965  0.7816 -0.4687
16369TIP3   OH270521   1.991   6.061  14.065  0.3420 -0.0037  0.4802
16369TIP3    H170522   1.960   6.151  14.062 -2.4126 -0.8890 -0.0457
16369TIP3    H270523   1.990   6.038  14.158  0.7217  0.3730  0.5813
16370TIP3   OH270524   5.211   0.969   2.030  0.1986  0.3176  0.5286
16370TIP3    H170525   5.292   0.931   2.064  1.5917  1.9948 -0.7712
16370TIP3    H270526   5.203   0.932   1.942 -0.1044  0.6521  0.4145
16371TIP3   OH270527   3.712   0.422   0.006 -0.0402 -0.0038 -0.2983
16371TIP3    H170528   3.661   0.371   0.068 -0.2271 -1.0090 -1.2431
16371TIP3    H270529   3.757   0.357  -0.048 -0.0010  0.8237 -1.3021
16372TIP3   OH270530   2.236   5.838   2.152 -0.0052 -0.3126 -0.2174
16372TIP3    H170531   2.219   5.932   2.143 -0.8975 -0.4089  0.3663
16372TIP3    H270532   2.313   5.833   2.208 -0.7448  0.0554  0.8649
16373TIP3   OH270533   6.534   6.744  17.408  0.4934 -0.1317 -0.4137
16373TIP3    H170534   6.614   6.691  17.408  0.0548 -0.8850 -2.4631
16373TIP3    H270535   6.539   6.795  17.326 -1.0181 -0.0348 -0.4697
16374TIP3   OH270536   6.623   6.730   4.795 -0.1765  0.4765 -0.6310
16374TIP3    H170537   6.668   6.794   4.849 -1.0093  1.2091 -0.7811
16374TIP3    H270538   6.643   6.756   4.705 -2.4615  2.0394 -0.7631
16375TIP3   OH270539   1.771   4.530   2.250 -0.5414  0.0694 -0.2351
16375TIP3    H170540   1.806   4.591   2.315 -1.0846 -0.5550  0.6714
16375TIP3    H270541   1.714   4.584   2.195 -1.0738  0.3844  0.5974
16376TIP3   OH270542   0.047   5.049   2.838 -0.6575  0.1002 -0.0559
16376TIP3    H170543   0.012   5.035   2.750  0.0842  0.3610 -0.4011
16376TIP3    H270544   0.058   5.143   2.845 -0.5734  0.0685  0.2643
16377TIP3   OH270545   2.483   5.380  15.259  1.2735 -0.1640  0.0900
16377TIP3    H170546   2.540   5.452  15.232  1.0315 -0.3884 -1.1058
16377TIP3    H270547   2.447   5.347  15.176  1.1081 -1.4244  0.6537
16378TIP3   OH270548   0.391   4.950  11.133 -0.4095  0.4078  0.4546
16378TIP3    H170549   0.305   4.910  11.144  0.0751 -0.8571 -0.1502
16378TIP3    H270550   0.380   5.012  11.061 -1.1559  1.3698  1.3702
16379TIP3   OH270551   1.012   5.768   5.151 -0.3853  0.1768 -0.0576
16379TIP3    H170552   1.049   5.855   5.141  0.3922 -0.2603 -1.2216
16379TIP3    H270553   1.005   5.734   5.061 -1.1921 -0.7480  0.3288
16380TIP3   OH270554   5.299   0.157  12.296 -0.3464 -0.1422  0.3619
16380TIP3    H170555   5.297   0.070  12.257 -1.2722 -0.7722  1.7480
16380TIP3    H270556   5.252   0.212  12.233 -0.8295 -0.9019  0.0349
16381TIP3   OH270557   1.569   3.722  15.895  0.3346 -0.1208  0.1441
16381TIP3    H170558   1.500   3.684  15.949  0.2352  1.5059  1.2367
16381TIP3    H270559   1.646   3.668  15.912 -0.1424 -0.6799  0.5602
16382TIP3   OH270560   3.477   5.512   5.664  0.4092  0.4044 -0.1196
16382TIP3    H170561   3.504   5.458   5.589  0.9529  1.0699 -0.4121
16382TIP3    H270562   3.559   5.545   5.699  0.1851 -0.1774  0.9941
16383TIP3   OH270563   2.784   5.482  12.940 -0.3032  0.1974  0.2778
16383TIP3    H170564   2.822   5.559  12.983 -1.6377  1.5166 -0.8119
16383TIP3    H270565   2.692   5.482  12.969 -0.7137 -0.0522 -0.9784
16384TIP3   OH270566   1.757   5.214  14.180  0.1994 -0.3762  0.2727
16384TIP3    H170567   1.759   5.263  14.263 -0.7095  2.2332 -1.1129
16384TIP3    H270568   1.834   5.244  14.133 -1.1815  1.0583 -1.2262
16385TIP3   OH270569   3.400   0.025   6.152 -0.2568  0.0262  0.5281
16385TIP3    H170570   3.323   0.018   6.208  0.4744 -3.0672  1.3415
16385TIP3    H270571   3.475   0.025   6.212  0.4568  0.9327 -0.3162
16386TIP3   OH270572   3.959   3.058  14.151 -0.2462 -0.3945  0.3001
16386TIP3    H170573   3.888   3.118  14.126 -0.2449 -0.4051  0.2701
16386TIP3    H270574   3.944   3.040  14.243 -0.1877 -0.2673  0.3351
16387TIP3   OH270575   5.918   4.972  13.862 -0.1568  0.3802 -0.2050
16387TIP3    H170576   5.885   5.022  13.787  1.8562 -0.3505 -1.6766
16387TIP3    H270577   5.975   4.905  13.822  2.0220  0.7671  2.0335
16388TIP3   OH270578   0.722   4.585  16.942 -0.4006 -0.5235  0.3394
16388TIP3    H170579   0.700   4.507  16.994  1.6108 -1.3729  0.0117
16388TIP3    H270580   0.816   4.579  16.928 -0.5411  0.7863 -1.6502
16389TIP3   OH270581   1.573   0.470  13.744 -0.4310  0.0379 -0.6689
16389TIP3    H170582   1.551   0.444  13.654 -1.2249  0.3671 -0.5775
16389TIP3    H270583   1.490   0.468  13.791 -0.3267  1.5371 -0.3617
16390TIP3   OH270584   3.028   1.356   2.134 -0.0121  0.2081  0.6755
16390TIP3    H170585   2.959   1.368   2.069 -0.3195  2.6801  1.3597
16390TIP3    H270586   3.102   1.322   2.084 -1.1041 -0.6461 -0.4218
16391TIP3   OH270587   2.917   0.929  11.225  0.5342  0.3033 -0.2458
16391TIP3    H170588   2.830   0.906  11.259 -0.0957  1.5701 -0.9324
16391TIP3    H270589   2.948   0.850  11.181  0.2380 -0.5306  0.9955
16392TIP3   OH270590   6.345   2.520  16.251  0.5596 -0.1548  0.7560
16392TIP3    H170591   6.294   2.549  16.175  1.6811 -2.1351 -0.8662
16392TIP3    H270592   6.317   2.577  16.322 -1.4911  0.9563 -0.8320
16393TIP3   OH270593   6.309   4.311  13.690  0.2308 -0.3741  0.6941
16393TIP3    H170594   6.254   4.270  13.623  1.8007  0.8311 -1.4480
16393TIP3    H270595   6.397   4.277  13.672  0.8032  0.5742  1.6561
16394TIP3   OH270596   0.687   3.275   5.627  0.7802 -0.0959 -0.2732
16394TIP3    H170597   0.659   3.366   5.626  1.4396  0.2009  2.0349
16394TIP3    H270598   0.778   3.278   5.659 -0.0434 -1.6579  2.6482
16395TIP3   OH270599   5.100   2.525  11.225  0.3577  0.1168 -0.2270
16395TIP3    H170600   5.064   2.438  11.204 -0.9634  1.0198 -1.9833
16395TIP3    H270601   5.032   2.568  11.275  0.5801  0.5219 -0.2704
16396TIP3   OH270602   4.557   6.264  11.614 -0.3750  0.0683  0.6752
16396TIP3    H170603   4.575   6.213  11.535  0.1622  0.5995  0.4451
16396TIP3    H270604   4.467   6.243  11.636 -0.7278  0.3643 -0.4151
16397TIP3   OH270605   3.158   6.199  15.657 -0.3110  0.3624  0.2331
16397TIP3    H170606   3.222   6.192  15.727  0.0409  2.5883  0.1902
16397TIP3    H270607   3.076   6.221  15.702 -0.3929  0.4155  0.0572
16398TIP3   OH270608   3.652   5.123   0.624 -0.2482 -0.0837 -0.2810
16398TIP3    H170609   3.579   5.076   0.665  0.1456 -0.0769  0.4370
16398TIP3    H270610   3.630   5.125   0.531 -0.5701 -1.1508 -0.2377
16399TIP3   OH270611   3.081   3.562   3.268 -0.0001 -0.5495  0.5482
16399TIP3    H170612   3.042   3.646   3.293 -1.5224 -1.3151  0.8968
16399TIP3    H270613   3.175   3.576   3.274 -0.1943  1.3749 -0.2430
16400TIP3   OH270614   3.745   6.539   0.537 -0.3754 -0.1927 -0.0679
16400TIP3    H170615   3.746   6.615   0.478  0.8744 -1.5782 -1.9459
16400TIP3    H270616   3.723   6.465   0.480 -0.9306 -1.3478  1.5900
16401TIP3   OH270617   4.459   2.105   5.582 -1.2195 -0.1849  0.4048
16401TIP3    H170618   4.505   2.111   5.499 -1.1500 -1.1399  0.3637
16401TIP3    H270619   4.390   2.171   5.576  0.7418  2.0692  0.8914
16402TIP3   OH270620   2.935   0.837   0.969 -0.1423  0.0313 -0.5409
16402TIP3    H170621   3.007   0.822   0.907 -0.5969  0.2908 -1.1361
16402TIP3    H270622   2.883   0.907   0.929 -1.5918 -1.1973 -0.8738
16403TIP3   OH270623   1.564   3.753  13.732 -0.3354 -0.3739  0.1906
16403TIP3    H170624   1.572   3.679  13.792 -1.2137 -1.0292 -0.4751
16403TIP3    H270625   1.547   3.713  13.647 -1.1042  0.5964 -0.1263
16404TIP3   OH270626   2.300   1.119   4.874  0.4559  0.0881  0.0365
16404TIP3    H170627   2.334   1.089   4.959 -0.2542 -0.0927  0.2606
16404TIP3    H270628   2.241   1.191   4.897  0.4205  0.1747 -0.3263
16405TIP3   OH270629   0.744   4.008  15.653  0.3048  0.1865  0.0529
16405TIP3    H170630   0.777   3.922  15.627 -0.4486 -0.7075  1.9071
16405TIP3    H270631   0.798   4.070  15.604  2.4270 -1.2812  0.3853
16406TIP3   OH270632   1.599   0.336  11.246 -0.1539  0.2313 -0.1685
16406TIP3    H170633   1.658   0.280  11.196  0.7055  0.5354  0.4805
16406TIP3    H270634   1.586   0.413  11.191  0.3398  0.3198 -0.1604
16407TIP3   OH270635   6.503   1.468   4.989  0.0099 -0.2595 -0.0549
16407TIP3    H170636   6.495   1.379   5.023 -1.2839 -0.3712 -0.5938
16407TIP3    H270637   6.415   1.504   4.995  0.6952  1.3570  1.1016
16408TIP3   OH270638   2.864   5.582   0.014 -0.2161 -0.3914 -0.4693
16408TIP3    H170639   2.925   5.653   0.034  1.1205 -0.8450 -2.6174
16408TIP3    H270640   2.909   5.531  -0.053 -2.3919 -1.5802 -1.0907
16409TIP3   OH270641   3.025   5.397  11.749  0.0588 -0.3813 -0.0091
16409TIP3    H170642   3.042   5.469  11.810 -0.9756 -0.0280 -0.1056
16409TIP3    H270643   2.949   5.427  11.699 -0.7844 -1.8058  0.3754
16410TIP3   OH270644   3.226   2.414   3.751  0.2931  0.1781 -0.6963
16410TIP3    H170645   3.315   2.405   3.786 -0.3480 -0.4696  0.9008
16410TIP3    H270646   3.213   2.508   3.743  0.7841  0.3186  0.0389
16411TIP3   OH270647   2.760   2.600  17.046  0.5662 -0.5813 -0.4953
16411TIP3    H170648   2.691   2.534  17.044 -0.8714  0.6526  2.1581
16411TIP3    H270649   2.730   2.667  16.985  0.4938 -0.9941 -0.9217
16412TIP3   OH270650   4.127   1.520  16.361  0.4709  0.5171 -0.3588
16412TIP3    H170651   4.148   1.427  16.351 -0.5335  0.2470 -0.1402
16412TIP3    H270652   4.174   1.563  16.291  0.3844 -0.2553 -0.9089
16413TIP3   OH270653   5.679   0.715   0.657  0.0883  0.2573  0.1253
16413TIP3    H170654   5.690   0.682   0.746  1.8789  0.5790  0.0574
16413TIP3    H270655   5.586   0.702   0.638 -0.0997 -0.8615  1.6173
16414TIP3   OH270656   5.632   4.151   0.915  0.5500  0.4682 -0.0299
16414TIP3    H170657   5.703   4.162   0.978  1.3288 -0.5851 -0.6847
16414TIP3    H270658   5.676   4.153   0.830 -0.4551  1.6907 -0.5672
16415TIP3   OH270659   3.536   4.380  12.402  0.5304  0.0702  0.5179
16415TIP3    H170660   3.483   4.354  12.477 -0.5109  0.7675  0.0533
16415TIP3    H270661   3.599   4.308  12.391 -0.2760 -0.7550  1.1254
16416TIP3   OH270662   5.491   4.730  11.010  0.1871  0.3327  0.2020
16416TIP3    H170663   5.520   4.640  10.996  0.6939  0.4185  0.6692
16416TIP3    H270664   5.454   4.756  10.925  0.2107 -0.2473  0.0060
16417TIP3   OH270665   0.329   1.675   0.156  0.3566 -0.5985 -0.2252
16417TIP3    H170666   0.396   1.646   0.094 -1.2875 -1.4407 -1.6844
16417TIP3    H270667   0.258   1.612   0.146 -1.1642  0.9393  0.3775
16418TIP3   OH270668   5.588   4.682   0.551 -0.1748  0.4413  0.3394
16418TIP3    H170669   5.493   4.681   0.548 -0.1538 -0.0991 -0.9394
16418TIP3    H270670   5.610   4.760   0.602 -1.2792  2.8517 -2.5726
16419TIP3   OH270671   6.030   4.392   3.857  0.0048 -0.0206  0.7439
16419TIP3    H170672   6.086   4.460   3.896 -0.6161  1.4380 -0.7874
16419TIP3    H270673   6.076   4.310   3.876  3.5709  1.1551 -1.6636
16420TIP3   OH270674   1.395   6.643   4.342  0.2502 -0.2589 -0.2478
16420TIP3    H170675   1.487   6.643   4.366  0.8206  2.3859 -2.0146
16420TIP3    H270676   1.389   6.586   4.266  1.2547  2.3151 -2.4013
16421TIP3   OH270677   4.109   0.119   4.314  0.1611  0.3656 -0.0900
16421TIP3    H170678   4.040   0.090   4.374 -1.4430 -1.0063 -2.4165
16421TIP3    H270679   4.168   0.044   4.307  0.9003  0.8816  0.5022
16422TIP3   OH270680   0.180   1.821   2.702  0.1411  0.0094 -0.1140
16422TIP3    H170681   0.272   1.797   2.704  0.0126 -0.4866  2.1247
16422TIP3    H270682   0.135   1.746   2.742 -1.2020  0.4446 -0.7456
16423TIP3   OH270683   5.801   5.986   5.188  0.3896  0.0121 -0.0693
16423TIP3    H170684   5.837   5.950   5.270 -1.3970  1.8912  1.6580
16423TIP3    H270685   5.723   5.932   5.172 -1.2029  1.6933  1.4689
16424TIP3   OH270686   0.946   5.982   2.864 -0.2058 -0.1893 -1.1484
16424TIP3    H170687   0.983   6.002   2.950  1.1853  1.1121 -1.9910
16424TIP3    H270688   0.996   5.907   2.833 -1.0466 -0.9819 -0.6578
16425TIP3   OH270689   6.082   6.471   2.400  0.0548 -0.0742 -0.2071
16425TIP3    H170690   6.081   6.448   2.493 -2.0415 -1.2211 -0.4386
16425TIP3    H270691   6.071   6.566   2.400 -0.0650 -0.0701  0.7273
16426TIP3   OH270692   5.102   3.739  16.647  0.2138  0.0220  0.5218
16426TIP3    H170693   5.057   3.694  16.575  0.2824  1.5411 -0.5289
16426TIP3    H270694   5.162   3.674  16.683  0.6751 -0.6068 -1.2607
16427TIP3   OH270695   0.872   4.531  15.567  0.2227  0.1819 -0.9848
16427TIP3    H170696   0.815   4.599  15.531 -1.3240 -1.0301 -0.9372
16427TIP3    H270697   0.918   4.495  15.491 -0.0632  0.2916 -1.2087
16428TIP3   OH270698   4.069   1.312  13.125 -0.1956  0.3880  0.1540
16428TIP3    H170699   4.128   1.237  13.118 -0.3577  0.3309 -0.7363
16428TIP3    H270700   4.087   1.364  13.046 -0.2009  1.2040  0.6737
16429TIP3   OH270701   4.446   6.423   3.674 -0.5483 -0.5890  0.1358
16429TIP3    H170702   4.502   6.429   3.751 -0.6424 -0.8595  0.2295
16429TIP3    H270703   4.495   6.367   3.613  0.0788  0.6244 -0.4996
16430TIP3   OH270704   2.080   4.266  14.203 -0.4690 -0.1704  0.0425
16430TIP3    H170705   2.119   4.197  14.149 -0.3281  1.7456 -2.4795
16430TIP3    H270706   2.009   4.301  14.150 -0.1844  2.0008  0.9876
16431TIP3   OH270707   1.087   1.706  14.370  0.0328 -0.0746  0.1261
16431TIP3    H170708   1.163   1.683  14.317  0.3044  0.1803  0.3978
16431TIP3    H270709   1.017   1.650  14.338 -0.5171  1.8149 -2.2499
16432TIP3   OH270710   3.126   3.467  13.449  0.0157 -0.0814 -0.1930
16432TIP3    H170711   3.086   3.386  13.417  0.1107 -0.8254  1.4593
16432TIP3    H270712   3.218   3.460  13.424 -0.0976 -0.2129 -0.5706
16433TIP3   OH270713   4.197   4.753   0.219  0.0042 -0.4763  0.2682
16433TIP3    H170714   4.161   4.813   0.284  2.1050 -0.1516  1.2181
16433TIP3    H270715   4.194   4.801   0.136 -2.4872 -0.8104  0.0975
16434TIP3   OH270716   4.600   6.305  17.307  0.2970 -0.3615  0.1224
16434TIP3    H170717   4.577   6.254  17.230 -1.5934 -1.4216  1.3062
16434TIP3    H270718   4.536   6.375  17.311  0.7193  0.0181  0.4399
16435TIP3   OH270719   3.772   5.914   3.395  0.2869  0.1157  0.0528
16435TIP3    H170720   3.864   5.904   3.423  0.7401  0.4034 -1.2707
16435TIP3    H270721   3.728   5.838   3.432  1.1825 -0.3427  0.2088
16436TIP3   OH270722   3.365   1.620   3.271  0.3224 -0.1220  0.0562
16436TIP3    H170723   3.346   1.550   3.334  2.8692 -0.4224  0.6200
16436TIP3    H270724   3.398   1.692   3.324  1.0004  0.2053 -0.7809
16437TIP3   OH270725   5.936   1.716  16.879  0.0303  0.5355 -0.0981
16437TIP3    H170726   5.962   1.639  16.829 -2.0492  0.5404 -1.3241
16437TIP3    H270727   5.915   1.781  16.812 -2.9026  0.5314  0.6881
16438TIP3   OH270728   0.533   1.255   0.916  0.3277  0.0165 -0.3571
16438TIP3    H170729   0.444   1.221   0.911 -0.4852  1.6800  1.3050
16438TIP3    H270730   0.573   1.204   0.987 -0.2989  1.1786  0.8849
16439TIP3   OH270731   5.492   6.209  16.604 -0.6112 -0.3197  0.2296
16439TIP3    H170732   5.573   6.248  16.635 -0.6526 -0.3690  0.4067
16439TIP3    H270733   5.501   6.204  16.509  0.0280 -1.2805  0.3289
16440TIP3   OH270734   0.698   0.524  12.090 -0.6481 -0.6819 -0.2206
16440TIP3    H170735   0.747   0.574  12.155 -1.9101 -0.7418  0.8163
16440TIP3    H270736   0.687   0.437  12.131 -1.7071 -0.6276 -0.3754
16441TIP3   OH270737   0.627   4.924   4.656  0.3404 -0.1445 -0.2014
16441TIP3    H170738   0.666   5.011   4.643  1.0732 -0.1795  1.4022
16441TIP3    H270739   0.560   4.938   4.723  1.4837 -1.0253  1.1962
16442TIP3   OH270740   3.470   3.303  11.696  0.9218  0.1307 -0.3667
16442TIP3    H170741   3.555   3.322  11.658  2.6094  0.1843  3.1052
16442TIP3    H270742   3.457   3.371  11.762 -1.0040 -0.9209  0.4138
16443TIP3   OH270743   3.642   4.487   2.670 -0.2630  0.0930 -0.2476
16443TIP3    H170744   3.620   4.472   2.761 -1.3747 -0.4427 -0.5819
16443TIP3    H270745   3.702   4.416   2.647 -0.1933  0.0771 -0.0106
16444TIP3   OH270746   2.354   6.271   4.619  0.3697  0.0145  0.2914
16444TIP3    H170747   2.385   6.282   4.529  0.0362 -1.2698 -0.0045
16444TIP3    H270748   2.434   6.257   4.670  0.4898 -0.4375 -0.0092
16445TIP3   OH270749   2.500   1.139   1.680  0.0777  0.2707  0.6836
16445TIP3    H170750   2.560   1.198   1.635  0.0690  0.5102  0.9827
16445TIP3    H270751   2.519   1.053   1.642  1.0085  0.2452  1.1722
16446TIP3   OH270752   1.526   1.819  12.557 -0.0066  0.6782 -0.3753
16446TIP3    H170753   1.443   1.867  12.559  0.0502  0.7849 -0.5609
16446TIP3    H270754   1.575   1.858  12.485  0.3312  0.8218 -0.0746
16447TIP3   OH270755   0.288   1.331   0.289 -0.0738  0.1028  0.5130
16447TIP3    H170756   0.248   1.365   0.209 -2.1517 -2.1889  0.4869
16447TIP3    H270757   0.291   1.236   0.277  1.3124 -0.1588  2.4228
16448TIP3   OH270758   5.662   5.133   3.408  0.6681 -0.4796 -0.1020
16448TIP3    H170759   5.689   5.043   3.426  0.4411 -0.2646  1.3777
16448TIP3    H270760   5.699   5.184   3.480 -1.2499  0.2404  0.4139
16449TIP3   OH270761   0.718   4.494   0.800 -0.5766  0.6765  0.0135
16449TIP3    H170762   0.779   4.568   0.803 -0.6681  0.7702 -0.3595
16449TIP3    H270763   0.707   4.468   0.892  0.0830  0.6029  0.0720
16450TIP3   OH270764   5.810   6.739   0.390 -0.0673  0.3846  0.0559
16450TIP3    H170765   5.901   6.763   0.373  0.0875  0.1565  0.5414
16450TIP3    H270766   5.810   6.643   0.387 -0.4808  0.4027 -0.8697
16451TIP3   OH270767   3.492   5.635  12.675 -0.3348 -0.2540  0.5222
16451TIP3    H170768   3.505   5.658  12.767  0.4144  1.3002  0.0601
16451TIP3    H270769   3.458   5.715  12.635 -2.0751 -1.3373 -0.2899
16452TIP3   OH270770   3.028   6.341  14.908 -0.8538 -0.6625 -0.1423
16452TIP3    H170771   3.115   6.314  14.938 -0.3573 -0.2044 -1.1330
16452TIP3    H270772   2.981   6.362  14.989  0.6083  0.9824  0.3561
16453TIP3   OH270773   4.492   3.802  17.215 -0.2503 -0.1721 -0.2591
16453TIP3    H170774   4.587   3.798  17.210 -0.2316  0.8263 -1.0502
16453TIP3    H270775   4.466   3.862  17.145 -1.5539 -1.2801 -0.7737
16454TIP3   OH270776   1.525   0.259  13.251  0.3208 -0.5845  0.7103
16454TIP3    H170777   1.598   0.197  13.253  0.5351 -0.3186  1.4998
16454TIP3    H270778   1.566   0.343  13.232  0.0705 -0.6134 -0.0104
16455TIP3   OH270779   1.262   5.320   5.643  0.0782 -0.6307 -0.1311
16455TIP3    H170780   1.173   5.288   5.658 -0.4591 -0.1699 -2.0764
16455TIP3    H270781   1.307   5.306   5.727 -1.7091 -1.1910  0.7823
16456TIP3   OH270782   6.514   5.805   3.595  0.2431 -0.3559  0.2325
16456TIP3    H170783   6.428   5.837   3.569  0.5874  1.0123  0.6772
16456TIP3    H270784   6.524   5.722   3.549 -0.4518  0.4591 -1.4915
16457TIP3   OH270785   1.131   0.596  17.382  0.0915 -0.2612 -0.4657
16457TIP3    H170786   1.223   0.571  17.374 -0.2871 -1.9926  0.0948
16457TIP3    H270787   1.085   0.537  17.323 -0.8267 -0.7585  0.7019
16458TIP3   OH270788   1.849   5.331  13.691  0.1610  0.2783  0.1484
16458TIP3    H170789   1.906   5.255  13.705  0.2106  0.2921  0.0294
16458TIP3    H270790   1.906   5.396  13.649 -0.6210 -0.7588 -2.7821
16459TIP3   OH270791   0.068   6.753  13.027  0.4702  0.0217 -0.0868
16459TIP3    H170792   0.160   6.764  13.005  1.0490  1.6574  2.7021
16459TIP3    H270793   0.068   6.720  13.117 -1.6407  0.8068  0.2676
16460TIP3   OH270794   3.108   3.622   6.838  0.2046  0.1610  0.1777
16460TIP3    H170795   3.068   3.582   6.916 -0.8584 -0.2117 -0.5369
16460TIP3    H270796   3.139   3.547   6.787 -1.0090  0.2750 -0.7540
16461TIP3   OH270797   4.584   3.536   3.210 -0.4282  0.2488 -0.6619
16461TIP3    H170798   4.492   3.507   3.212 -0.5120  0.5322 -0.4803
16461TIP3    H270799   4.606   3.552   3.301  0.7739 -2.8487 -0.2685
16462TIP3   OH270800   5.900   0.191   0.096 -0.9360 -0.1404 -0.4926
16462TIP3    H170801   5.849   0.110   0.094 -0.3712 -0.5544  0.7072
16462TIP3    H270802   5.851   0.250   0.153 -0.8064 -0.0280 -0.4945
16463TIP3   OH270803   3.963   1.464   3.571 -0.1119  0.6827  0.9233
16463TIP3    H170804   4.030   1.529   3.549  0.4638 -0.6036 -1.4664
16463TIP3    H270805   4.007   1.379   3.560 -2.1107 -0.2293 -1.0382
16464TIP3   OH270806   1.593   4.631   6.234 -0.8942 -0.7687  0.2468
16464TIP3    H170807   1.685   4.607   6.222 -1.2584 -2.0216 -0.1664
16464TIP3    H270808   1.591   4.672   6.321  0.4531  1.5198 -0.7111
16465TIP3   OH270809   6.549   4.984   5.826  0.0219  0.2422  0.4713
16465TIP3    H170810   6.621   4.952   5.880  0.8017  0.5199 -0.3781
16465TIP3    H270811   6.569   5.077   5.813  0.2654  0.0174 -0.8987
16466TIP3   OH270812   6.168   5.197  11.102  0.1973 -0.1326  0.8136
16466TIP3    H170813   6.227   5.261  11.062 -0.3728 -0.7265 -1.1215
16466TIP3    H270814   6.198   5.113  11.067  1.3156 -1.0978  3.7607
16467TIP3   OH270815   1.705   5.152   3.167 -0.3107  0.1331 -0.1578
16467TIP3    H170816   1.734   5.083   3.228 -0.8758  0.8637  0.9671
16467TIP3    H270817   1.751   5.132   3.085  1.1247 -0.4063  0.7307
16468TIP3   OH270818   4.386   4.578  15.559  0.0337  0.3770  0.8844
16468TIP3    H170819   4.405   4.664  15.522  1.3646 -0.5049 -0.5946
16468TIP3    H270820   4.426   4.516  15.498  0.3124 -1.2489  2.6316
16469TIP3   OH270821   6.478   5.769  17.355 -0.2613 -0.5856  0.1442
16469TIP3    H170822   6.541   5.729  17.415  0.9489 -0.9842 -1.3385
16469TIP3    H270823   6.448   5.697  17.300 -1.0648 -0.1598  0.0075
16470TIP3   OH270824   2.309   6.483  16.640 -0.1888 -0.2085 -0.0877
16470TIP3    H170825   2.304   6.420  16.568 -0.5805 -1.2765  0.8293
16470TIP3    H270826   2.393   6.464  16.683 -1.2265 -1.6077  1.4588
16471TIP3   OH270827   1.052   6.466  12.267 -0.0638 -0.4626 -0.2838
16471TIP3    H170828   1.000   6.539  12.233  1.4842  0.3601 -0.9709
16471TIP3    H270829   1.028   6.392  12.211  0.8088  0.3457 -1.7788
16472TIP3   OH270830   4.908   2.478   3.751 -0.1729  0.1180  0.0262
16472TIP3    H170831   4.933   2.550   3.694  0.5068 -0.7111 -0.7663
16472TIP3    H270832   4.815   2.464   3.732 -0.0562  0.1249 -0.5815
16473TIP3   OH270833   5.535   1.537   1.996  0.1320 -0.4392  0.0288
16473TIP3    H170834   5.445   1.526   2.024  0.2082  0.4310  0.6632
16473TIP3    H270835   5.529   1.567   1.905 -0.1695 -1.4409 -0.2973
16474TIP3   OH270836   1.393   4.159  14.953 -0.9878  0.3845 -0.1259
16474TIP3    H170837   1.475   4.173  14.905 -1.7590  0.6060 -1.4154
16474TIP3    H270838   1.353   4.245  14.958 -0.7229  0.4520  1.3435
16475TIP3   OH270839   1.679   6.181  13.244 -0.2134  0.2325 -0.1160
16475TIP3    H170840   1.770   6.161  13.269 -0.2974 -1.1717 -0.8278
16475TIP3    H270841   1.688   6.243  13.171  0.0996  1.6827  1.1042
16476TIP3   OH270842   0.713   3.804   3.350 -0.0781  0.3926  0.3001
16476TIP3    H170843   0.677   3.740   3.289  0.0093  0.1358  0.5204
16476TIP3    H270844   0.729   3.881   3.295  2.8822 -0.7924 -0.7154
16477TIP3   OH270845   3.381   3.416   1.230  0.2825 -0.1955 -1.1694
16477TIP3    H170846   3.377   3.439   1.137  1.2460 -0.3464 -1.2605
16477TIP3    H270847   3.383   3.321   1.232 -1.3287 -0.2488 -0.9015
16478TIP3   OH270848   1.495   0.673  13.296 -0.9965  0.4643  0.0285
16478TIP3    H170849   1.432   0.676  13.223  0.7443  0.9851 -1.5302
16478TIP3    H270850   1.539   0.758  13.293  0.0257 -0.0173  0.8598
16479TIP3   OH270851   5.338   0.258  11.940 -0.0518  0.1468  0.2840
16479TIP3    H170852   5.402   0.321  11.907  0.1907 -0.7001 -0.9050
16479TIP3    H270853   5.366   0.174  11.903 -1.7806 -0.2643 -0.1494
16480TIP3   OH270854   2.558   6.625   5.736  0.1385 -0.0851  0.0494
16480TIP3    H170855   2.634   6.620   5.793  1.0133  0.4969 -1.0288
16480TIP3    H270856   2.592   6.656   5.653 -0.9842 -1.6240 -1.0369
16481TIP3   OH270857   0.314   0.431   3.255 -0.4270 -0.3965  0.3429
16481TIP3    H170858   0.361   0.474   3.184 -0.9241 -1.9520 -0.9608
16481TIP3    H270859   0.371   0.444   3.332 -0.1871  1.8497 -0.1453
16482TIP3   OH270860   5.867   3.600  11.574  0.6796 -0.5788  0.0599
16482TIP3    H170861   5.797   3.588  11.510  1.1935 -0.6417 -0.4988
16482TIP3    H270862   5.829   3.657  11.641  0.4766  0.3598 -0.8403
16483TIP3   OH270863   6.345   2.567  14.489 -0.4761  0.2362  0.4705
16483TIP3    H170864   6.407   2.511  14.442 -1.9960 -3.2247  2.2270
16483TIP3    H270865   6.288   2.602  14.421  0.6254 -0.2210 -0.7419
16484TIP3   OH270866   4.545   1.314   0.706 -0.0334  0.3627 -0.0921
16484TIP3    H170867   4.521   1.402   0.678 -1.4541 -0.4879 -1.7218
16484TIP3    H270868   4.605   1.328   0.780 -0.6399  2.6685  0.0459
16485TIP3   OH270869   0.708   1.775   1.444  0.5231  0.4430 -0.2792
16485TIP3    H170870   0.756   1.742   1.520 -0.1661 -0.4055 -0.2005
16485TIP3    H270871   0.731   1.868   1.440  1.6879  0.1938  0.1115
16486TIP3   OH270872   6.397   3.895   6.485  0.2905 -0.3468  0.2295
16486TIP3    H170873   6.449   3.873   6.562  0.8777 -0.1496 -0.0989
16486TIP3    H270874   6.328   3.829   6.483  0.3314 -0.4150  0.8627
16487TIP3   OH270875   1.428   3.290  14.714  0.1794  0.2266 -0.3114
16487TIP3    H170876   1.514   3.275  14.754 -0.3399  0.2365  0.8464
16487TIP3    H270877   1.444   3.359  14.649  0.4585  2.7431  2.2317
16488TIP3   OH270878   0.783   4.135  16.124 -0.4039 -0.0303 -0.2378
16488TIP3    H170879   0.746   4.076  16.059 -0.2462  0.2186 -0.5573
16488TIP3    H270880   0.813   4.078  16.195 -1.4313 -0.2311  0.0507
16489TIP3   OH270881   5.813   6.256   2.998 -0.1653 -0.1285  0.0822
16489TIP3    H170882   5.826   6.239   2.905 -1.8738 -0.2399 -0.1738
16489TIP3    H270883   5.803   6.169   3.037 -0.5995 -0.0423  0.1680
16490TIP3   OH270884   2.773   4.348  12.598  0.5917 -0.2277  0.4560
16490TIP3    H170885   2.757   4.399  12.518 -1.4639 -2.2731 -0.5754
16490TIP3    H270886   2.763   4.411  12.669  1.6122  1.4852 -0.8320
16491TIP3   OH270887   5.252   2.848  16.292 -0.8514 -0.3359 -0.4520
16491TIP3    H170888   5.229   2.843  16.199  2.2086 -0.1758 -1.3410
16491TIP3    H270889   5.337   2.804  16.298 -0.7440  0.0593  2.1928
16492TIP3   OH270890   0.375   3.432  10.671  0.2892 -0.1626 -0.3203
16492TIP3    H170891   0.419   3.486  10.606  0.7502  1.2079  1.0586
16492TIP3    H270892   0.289   3.415  10.634  0.4013  0.9135 -1.1138
16493TIP3   OH270893   4.694   6.743   4.609 -0.1616 -0.5997 -0.0838
16493TIP3    H170894   4.634   6.702   4.672  0.9819 -0.9050  0.8370
16493TIP3    H270895   4.636   6.785   4.545 -1.3673 -2.2939 -0.1645
16494TIP3   OH270896   1.607   3.949  14.753  0.1799  0.2902 -0.1358
16494TIP3    H170897   1.688   3.950  14.803 -0.1582 -2.8488  0.6553
16494TIP3    H270898   1.541   3.917  14.814 -1.2361  0.7267 -1.3662
16495TIP3   OH270899   6.471   5.050  13.580  0.0864 -0.1837 -0.2314
16495TIP3    H170900   6.541   5.112  13.557 -0.5813  0.4531 -0.5803
16495TIP3    H270901   6.452   5.068  13.672 -1.1156  1.1656 -0.7169
16496TIP3   OH270902   6.622   0.592  16.604 -0.1613  0.3182  0.0916
16496TIP3    H170903   6.672   0.658  16.652  0.0819 -0.1528  0.4955
16496TIP3    H270904   6.677   0.570  16.529  0.1282 -0.0145  0.3988
16497TIP3   OH270905   1.295   5.964  13.062  0.4927  0.1570  0.4196
16497TIP3    H170906   1.248   6.034  13.106  0.0821  0.1099  0.0671
16497TIP3    H270907   1.230   5.925  13.002  0.5479 -0.8887  1.0120
16498TIP3   OH270908   0.104   1.818   1.493 -0.0299  0.1558 -0.2515
16498TIP3    H170909   0.091   1.861   1.578  0.7075 -0.2467  0.0774
16498TIP3    H270910   0.076   1.883   1.429 -0.8837  0.3605  0.3009
16499TIP3   OH270911   5.924   5.972  12.998  0.3491 -0.0914 -0.2014
16499TIP3    H170912   5.846   5.922  12.975 -0.0317 -0.8070  2.3532
16499TIP3    H270913   5.988   5.905  13.023  0.3854  0.5950  1.6817
16500TIP3   OH270914   6.033   2.191   5.611 -0.1159 -0.1062 -0.0920
16500TIP3    H170915   6.103   2.186   5.676  0.0225 -0.1947 -0.2457
16500TIP3    H270916   6.079   2.199   5.527 -0.3007  0.6164 -0.1279
16501TIP3   OH270917   2.308   5.104   3.013 -0.5619  0.0887 -0.3962
16501TIP3    H170918   2.379   5.042   2.999 -0.0785  0.6570 -0.4765
16501TIP3    H270919   2.244   5.082   2.945  0.5124  0.9919 -1.7366
16502TIP3   OH270920   0.655   0.881  13.367 -0.0131  0.3931  0.1224
16502TIP3    H170921   0.684   0.896  13.277  2.5422 -2.0211  0.4174
16502TIP3    H270922   0.733   0.897  13.420 -0.7631 -0.6952  1.6201
16503TIP3   OH270923   2.255   3.255  11.278  0.1806  0.0049  0.2405
16503TIP3    H170924   2.253   3.320  11.207  0.3926 -2.1295 -1.8642
16503TIP3    H270925   2.296   3.178  11.238  0.7625 -1.1567  2.8760
16504TIP3   OH270926   4.948   0.794  16.935 -0.4085 -0.4731  0.4593
16504TIP3    H170927   4.955   0.711  16.982 -1.4503 -0.6452  0.3449
16504TIP3    H270928   4.853   0.808  16.925 -0.2572  0.8857  0.7540
16505TIP3   OH270929   6.199   0.305  13.160 -0.4810  0.2841 -0.0775
16505TIP3    H170930   6.258   0.260  13.099  1.0789  0.9553  0.8465
16505TIP3    H270931   6.199   0.396  13.129 -2.0018  0.0818 -0.7454
16506TIP3   OH270932   4.886   1.877   3.755 -0.1810 -0.1728  0.0439
16506TIP3    H170933   4.959   1.937   3.761  1.3271 -1.7595 -1.2804
16506TIP3    H270934   4.862   1.859   3.846  0.9556  0.5068  0.4997
16507TIP3   OH270935   5.861   0.497  15.774  0.0529  0.0854  0.3111
16507TIP3    H170936   5.954   0.522  15.776  0.4169 -1.1511 -0.1718
16507TIP3    H270937   5.824   0.549  15.703  0.8971 -0.9945 -0.9839
16508TIP3   OH270938   0.009   0.106  16.978 -0.1189  0.1907 -0.2430
16508TIP3    H170939   0.046   0.155  17.051 -0.0663 -0.3399  0.0893
16508TIP3    H270940   0.041   0.151  16.900  0.0825  0.5700  0.0595
16509TIP3   OH270941   4.292   6.704   5.001  0.3541 -0.1017  0.4093
16509TIP3    H170942   4.331   6.783   4.964  2.5248 -1.0713  0.4978
16509TIP3    H270943   4.289   6.721   5.096 -1.6559  0.8557  0.2381
16510TIP3   OH270944   0.125   1.038   5.068  0.6219 -0.1361 -1.0309
16510TIP3    H170945   0.145   0.990   5.148 -1.1584  1.9690  0.7828
16510TIP3    H270946   0.194   1.103   5.061  0.4223  0.0921 -0.8639
16511TIP3   OH270947   1.732   2.144   2.049  0.3394 -0.1181  0.1911
16511TIP3    H170948   1.681   2.110   2.121 -0.8882 -0.4852 -0.8174
16511TIP3    H270949   1.792   2.208   2.089 -1.3618  0.8361  1.3124
16512TIP3   OH270950   3.969   5.435  16.838 -0.8961 -0.0867 -0.0823
16512TIP3    H170951   3.879   5.442  16.807 -0.7613 -2.4965 -1.2474
16512TIP3    H270952   4.015   5.391  16.767  1.1060  0.5937  0.7173
16513TIP3   OH270953   1.854   2.134   2.433 -0.9079 -0.1925  0.2454
16513TIP3    H170954   1.886   2.118   2.522 -1.0178  0.9891  0.5088
16513TIP3    H270955   1.881   2.056   2.384  1.7865  0.4090  0.5999
16514TIP3   OH270956   3.387   0.376   0.293 -0.3732  0.7033  0.0880
16514TIP3    H170957   3.325   0.323   0.243 -1.0706  1.4835  0.0928
16514TIP3    H270958   3.373   0.465   0.261  2.4317  0.6337 -1.6093
16515TIP3   OH270959   6.096   3.497  10.736 -0.3740 -0.3542 -0.2289
16515TIP3    H170960   6.086   3.493  10.831  0.1359  0.7799 -0.1063
16515TIP3    H270961   6.161   3.430  10.716  2.4924  1.9010  0.7453
16516TIP3   OH270962   5.341   3.156   2.231 -0.0192 -0.1332  0.2487
16516TIP3    H170963   5.414   3.183   2.287  0.2682  1.5834 -0.8595
16516TIP3    H270964   5.294   3.237   2.212 -1.8846 -1.1283  0.4462
16517TIP3   OH270965   6.345   1.970   0.354  0.1349  0.1751 -0.1672
16517TIP3    H170966   6.401   1.937   0.424 -1.4628 -0.0254  1.0695
16517TIP3    H270967   6.379   2.057   0.334 -0.7813  1.2391  2.5417
16518TIP3   OH270968   2.553   0.253  13.896 -0.0426  0.4757  0.0359
16518TIP3    H170969   2.607   0.174  13.888 -1.9817 -0.8354 -0.9164
16518TIP3    H270970   2.506   0.242  13.978 -1.1471  0.0709 -0.6380
16519TIP3   OH270971   6.523   0.770   3.978  0.0187  0.6430 -0.0364
16519TIP3    H170972   6.561   0.788   3.892  0.8853  0.1679  0.2353
16519TIP3    H270973   6.525   0.675   3.985  1.3852  0.7340  1.1350
16520TIP3   OH270974   3.085   0.352   5.709 -1.2401 -0.1412 -0.0779
16520TIP3    H170975   3.025   0.409   5.661 -1.0506 -0.9642 -1.3333
16520TIP3    H270976   3.086   0.270   5.659 -0.2948 -0.6977  0.8079
16521TIP3   OH270977   3.568   2.501   2.845 -0.1363  0.6150 -0.2188
16521TIP3    H170978   3.653   2.477   2.810 -0.0979 -2.6859  1.7576
16521TIP3    H270979   3.585   2.575   2.903  1.2276  0.4312 -0.3714
16522TIP3   OH270980   0.678   3.969  15.936 -0.7925  0.2941 -0.4146
16522TIP3    H170981   0.649   3.879  15.921  1.3424 -0.6042  0.4892
16522TIP3    H270982   0.712   3.998  15.851  1.7938 -1.1062  0.0335
16523TIP3   OH270983   3.315   3.545  14.927  0.3658 -0.3103 -0.4429
16523TIP3    H170984   3.300   3.452  14.945 -0.3448 -0.2112 -0.5026
16523TIP3    H270985   3.392   3.567  14.979  0.5372 -0.9297 -0.4191
16524TIP3   OH270986   6.644   2.640  12.610 -0.2075 -0.6210  0.0285
16524TIP3    H170987   6.556   2.623  12.643  0.5394 -1.6581  1.6012
16524TIP3    H270988   6.671   2.721  12.653 -0.0186 -0.8372  0.3154
16525TIP3   OH270989   2.196   2.343   3.668 -0.2662  0.4002  0.3756
16525TIP3    H170990   2.197   2.249   3.652 -0.7200  0.1188  1.8221
16525TIP3    H270991   2.272   2.358   3.725  0.1731  1.0251 -0.3520
16526TIP3   OH270992   3.679   0.231  16.576  0.1713 -0.6814 -0.1054
16526TIP3    H170993   3.691   0.305  16.517 -1.2874 -0.4997 -0.2081
16526TIP3    H270994   3.676   0.155  16.518  0.2453 -0.6659 -0.1298
16527TIP3   OH270995   4.955   5.132   5.624 -0.3182 -0.4301  0.2020
16527TIP3    H170996   4.933   5.136   5.531  0.2979  0.2965  0.0814
16527TIP3    H270997   4.991   5.044   5.636 -1.1338 -0.8132 -0.0710
16528TIP3   OH270998   6.038   6.207   1.250  0.0818 -0.4118  0.6326
16528TIP3    H170999   5.953   6.197   1.207 -0.8050  1.9354  1.6941
16528TIP3    H271000   6.102   6.187   1.182 -1.2922  0.9947 -1.1668
16529TIP3   OH271001   3.481   5.138   3.266  0.5881 -0.2021  0.6576
16529TIP3    H171002   3.475   5.217   3.211 -0.5087 -1.3350 -0.9501
16529TIP3    H271003   3.535   5.078   3.215 -0.9310 -1.4980  0.5051
16530TIP3   OH271004   3.719   1.793   3.993 -0.7607  0.3904  0.2469
16530TIP3    H171005   3.800   1.741   3.994 -1.1788 -0.2771  0.0189
16530TIP3    H271006   3.675   1.770   4.075 -0.6888  0.8033  0.4015
16531TIP3   OH271007   2.131   5.180  11.413  0.3529  1.0604 -0.3886
16531TIP3    H171008   2.049   5.229  11.423  1.6742  3.2111  0.7820
16531TIP3    H271009   2.195   5.247  11.390  1.7099 -0.6612 -1.9075
16532TIP3   OH271010   2.302   5.385   2.065 -0.2989 -0.4421 -0.3099
16532TIP3    H171011   2.240   5.317   2.091 -0.8796  0.6486  1.3784
16532TIP3    H271012   2.387   5.350   2.089 -0.5842 -0.6712  0.4245
16533TIP3   OH271013   3.164   1.440   1.359  0.5523 -0.1633  0.0918
16533TIP3    H171014   3.164   1.400   1.447 -0.2540  1.3480  0.8216
16533TIP3    H271015   3.241   1.404   1.316  0.1963 -2.0120  0.9161
16534TIP3   OH271016   2.671   0.639  15.244  0.3173 -0.2561 -0.1869
16534TIP3    H171017   2.673   0.551  15.206  1.9935  0.5425 -2.1666
16534TIP3    H271018   2.627   0.692  15.178 -2.0017  0.2253  1.6059
16535TIP3   OH271019   2.788   2.472  13.826 -0.4995  0.1755  0.0371
16535TIP3    H171020   2.711   2.452  13.878 -0.5848 -0.1295 -0.2054
16535TIP3    H271021   2.849   2.400  13.843 -0.6530 -0.0950 -0.5303
16536TIP3   OH271022   1.780   1.493   0.150  0.0961 -0.2204 -0.1243
16536TIP3    H171023   1.715   1.536   0.206 -0.3376  1.5707 -1.8658
16536TIP3    H271024   1.853   1.556   0.147  0.1552 -0.3318 -1.4321
16537TIP3   OH271025   2.962   5.721  12.209 -0.6324 -0.1811  0.4774
16537TIP3    H171026   3.008   5.726  12.293  1.7801 -0.3098 -0.7436
16537TIP3    H271027   2.937   5.812  12.190 -0.9466 -0.1117  1.1937
16538TIP3   OH271028   4.479   0.900  15.265 -0.1365 -0.2978  0.0099
16538TIP3    H171029   4.571   0.885  15.242 -0.3488  1.4017 -2.4104
16538TIP3    H271030   4.479   0.983  15.312 -0.5291  0.6784 -1.6155
16539TIP3   OH271031   3.240   6.568   2.666  0.2915  0.0442 -0.3408
16539TIP3    H171032   3.227   6.553   2.572 -1.8606 -1.7943  0.1798
16539TIP3    H271033   3.160   6.537   2.707  1.3182  0.4807  2.1766
16540TIP3   OH271034   1.950   3.438   2.200 -0.1276 -0.7624  0.1608
16540TIP3    H171035   1.871   3.412   2.152  0.5950 -3.9092  0.4638
16540TIP3    H271036   2.007   3.477   2.134 -0.9000 -0.8917 -0.6015
16541TIP3   OH271037   5.077   0.632  11.872  0.3395 -0.4552 -0.0132
16541TIP3    H171038   5.102   0.545  11.842  0.3517 -0.4610  0.0145
16541TIP3    H271039   4.988   0.622  11.906  1.0352 -0.8632  1.7787
16542TIP3   OH271040   5.511   4.845  13.081 -0.1879  0.0165  0.1258
16542TIP3    H171041   5.472   4.774  13.032  0.2038 -0.6415  0.7439
16542TIP3    H271042   5.440   4.909  13.092 -0.6942 -0.5253  0.0371
16543TIP3   OH271043   6.525   6.603  13.406 -0.0561 -0.3860 -0.4467
16543TIP3    H171044   6.468   6.676  13.381 -2.7757 -2.4504 -0.7516
16543TIP3    H271045   6.587   6.595  13.334  0.7658  1.9971 -0.0750
16544TIP3   OH271046   2.195   2.881   3.169  0.2267 -0.2591  0.3151
16544TIP3    H171047   2.162   2.792   3.176  0.5977 -0.2612  3.7674
16544TIP3    H271048   2.117   2.935   3.154 -0.5801 -0.8485  2.1367
16545TIP3   OH271049   2.344   3.443  15.713 -0.4309 -0.2500 -0.3360
16545TIP3    H171050   2.403   3.425  15.786  1.5383  2.5230 -1.0676
16545TIP3    H271051   2.283   3.508  15.746  0.9413  1.5888 -1.2620
16546TIP3   OH271052   5.770   3.968  13.125 -0.5528 -0.0301  0.1451
16546TIP3    H171053   5.791   4.009  13.041  1.4029 -0.6825  0.2698
16546TIP3    H271054   5.817   4.020  13.190 -0.5912 -0.5947  0.6321
16547TIP3   OH271055   5.160   0.413  13.246 -0.2333  0.2390  0.1139
16547TIP3    H171056   5.098   0.454  13.306 -0.7707 -1.0091  0.4371
16547TIP3    H271057   5.169   0.476  13.175 -2.6330  0.0893 -0.4273
16548TIP3   OH271058   5.870   2.428   4.243 -0.3550 -0.6146  0.3606
16548TIP3    H171059   5.817   2.504   4.220  0.0579  0.1745  1.8768
16548TIP3    H271060   5.840   2.359   4.184 -2.9353 -0.1647  1.0295
16549TIP3   OH271061   6.504   5.412  14.472  0.4431 -0.3033 -0.0245
16549TIP3    H171062   6.561   5.338  14.492  0.6566  0.4809  2.7242
16549TIP3    H271063   6.505   5.465  14.552 -2.4978  0.8425 -0.6206
16550TIP3   OH271064   3.447   2.737  12.393  0.0864  0.6186 -0.5709
16550TIP3    H171065   3.479   2.812  12.343 -0.3987  0.9604 -0.3765
16550TIP3    H271066   3.373   2.703  12.342 -0.2246  0.7887 -0.2327
16551TIP3   OH271067   5.114   2.177   4.402 -0.3535 -0.5898  0.2838
16551TIP3    H171068   5.195   2.179   4.453 -1.7088 -0.3145  2.5762
16551TIP3    H271069   5.051   2.134   4.459 -2.1598  0.3600 -0.8976
16552TIP3   OH271070   4.426   4.496   3.541 -0.3075 -0.2413  0.4698
16552TIP3    H171071   4.505   4.442   3.544  0.2166  0.4596 -0.2599
16552TIP3    H271072   4.378   4.464   3.465  0.5081  0.9610 -0.5944
16553TIP3   OH271073   0.162   3.843  11.715  0.3854  0.2904  0.3064
16553TIP3    H171074   0.144   3.925  11.669 -0.6908 -0.1526 -0.1194
16553TIP3    H271075   0.081   3.792  11.705 -0.3005  0.5420  3.5297
16554TIP3   OH271076   1.202   0.916  14.835  0.4627 -0.2994  0.2249
16554TIP3    H171077   1.239   0.879  14.915  1.1762 -0.6813 -0.2801
16554TIP3    H271078   1.186   0.841  14.778 -0.7632 -0.1106  0.2915
16555TIP3   OH271079   0.610   2.753   4.452 -0.6149  0.3506 -0.3038
16555TIP3    H171080   0.666   2.678   4.430 -0.4714  0.7588 -1.4030
16555TIP3    H271081   0.630   2.772   4.544 -1.1225 -1.3397  0.1737
16556TIP3   OH271082   6.556   0.824   5.770 -0.2013 -0.1105  0.4477
16556TIP3    H171083   6.462   0.844   5.764 -0.3561 -0.2386  2.0649
16556TIP3    H271084   6.595   0.903   5.806  0.0172 -0.7022  1.5503
16557TIP3   OH271085   5.409   0.827  15.794 -0.3946  0.4456  0.6965
16557TIP3    H171086   5.469   0.886  15.748  1.1405 -0.3380  1.6022
16557TIP3    H271087   5.431   0.740  15.761 -0.4463  0.0555  1.6563
16558TIP3   OH271088   5.567   4.121  11.636  0.5052 -0.6042  0.0777
16558TIP3    H171089   5.573   4.094  11.544  1.3125 -1.2458  0.3045
16558TIP3    H271090   5.657   4.146  11.658  0.0712  0.7819  0.3319
16559TIP3   OH271091   5.357   5.672  16.585  0.1336  0.4550  0.1775
16559TIP3    H171092   5.443   5.683  16.627 -0.1850 -0.2118  1.0256
16559TIP3    H271093   5.343   5.755  16.539  1.6801  0.2090 -0.8331
16560TIP3   OH271094   2.676   1.711   2.093 -1.0312  0.5621  0.6297
16560TIP3    H171095   2.692   1.791   2.142 -0.8924  1.7858 -1.3313
16560TIP3    H271096   2.725   1.643   2.140  0.9054  2.1001  0.9241
16561TIP3   OH271097   3.749   6.207  15.786 -0.1874  0.2044 -0.1623
16561TIP3    H171098   3.842   6.231  15.780 -0.0890 -0.2743 -0.6041
16561TIP3    H271099   3.749   6.113  15.807 -0.5707  0.4689  1.1029
16562TIP3   OH271100   0.484   1.131  13.689 -0.4790  0.2007 -0.7159
16562TIP3    H171101   0.447   1.219  13.683  0.1875  0.5481  0.1085
16562TIP3    H271102   0.562   1.141  13.743 -1.0730 -1.0988  0.4635
16563TIP3   OH271103   2.042   4.585   5.592  0.0914  0.3943  0.7114
16563TIP3    H171104   2.063   4.628   5.675 -0.9730 -0.3354  1.3946
16563TIP3    H271105   1.948   4.566   5.599  0.5585 -2.3362  0.6349
16564TIP3   OH271106   4.119   6.466   1.427 -0.3237  0.2817 -0.2423
16564TIP3    H171107   4.173   6.545   1.431  0.2682 -0.1717  1.2417
16564TIP3    H271108   4.115   6.444   1.334 -0.2907  1.9030 -0.6586
16565TIP3   OH271109   2.538   3.294  15.559 -0.3032 -0.0671  0.1370
16565TIP3    H171110   2.487   3.219  15.529  0.6234 -0.3721 -0.7456
16565TIP3    H271111   2.475   3.351  15.602 -1.5317 -0.0286 -1.6449
16566TIP3   OH271112   1.211   0.720  17.082  0.0494  0.5528 -0.0788
16566TIP3    H171113   1.196   0.778  17.007 -1.2596  0.7150  0.2824
16566TIP3    H271114   1.260   0.774  17.144 -2.0644  1.7119  0.7022
16567TIP3   OH271115   2.395   2.317  15.600 -0.0826  0.0504 -0.4785
16567TIP3    H171116   2.369   2.302  15.509  0.2316  1.9079 -0.9191
16567TIP3    H271117   2.425   2.232  15.631 -1.7629 -0.9850 -1.5763
16568TIP3   OH271118   1.694   5.388   2.480  0.5719  0.0072  0.4276
16568TIP3    H171119   1.621   5.449   2.472  0.1380 -0.6534 -1.0347
16568TIP3    H271120   1.653   5.304   2.502  0.7073 -0.6684 -1.7142
16569TIP3   OH271121   5.585   6.580   6.289  0.6978  0.2900 -0.3806
16569TIP3    H171122   5.560   6.494   6.324 -0.4593  1.1136  0.9224
16569TIP3    H271123   5.571   6.640   6.362  0.4405  1.7662 -1.6059
16570TIP3   OH271124   1.471   5.835   5.604 -0.2240  0.6095  0.2166
16570TIP3    H171125   1.440   5.867   5.689  0.2428  1.2279  0.1628
16570TIP3    H271126   1.434   5.747   5.596 -0.5081  0.6601  0.9310
16571TIP3   OH271127   3.297   2.571   3.233  0.3933  0.0210  0.3186
16571TIP3    H171128   3.264   2.546   3.320  1.2912 -0.5810  0.5072
16571TIP3    H271129   3.260   2.658   3.217  0.1861  0.1246  1.2880
16572TIP3   OH271130   3.299   4.623  11.355 -0.0078 -1.1074  0.2675
16572TIP3    H171131   3.212   4.612  11.393 -0.1737 -0.4077  0.0990
16572TIP3    H271132   3.286   4.615  11.261 -0.1093  0.2443  0.1464
16573TIP3   OH271133   2.235   3.432  14.707  0.3375 -0.0710  0.1142
16573TIP3    H171134   2.272   3.405  14.791 -1.9930 -1.6892  0.7188
16573TIP3    H271135   2.264   3.365  14.645  1.4328  0.7151 -0.2602
16574TIP3   OH271136   4.372   6.284  13.407 -0.0194  0.1784  0.5195
16574TIP3    H171137   4.316   6.216  13.369  0.5148 -1.1608  2.0205
16574TIP3    H271138   4.345   6.288  13.499  1.5012  0.3784  0.9758
16575TIP3   OH271139   4.377   0.654  16.574  0.1201 -0.5164  0.1722
16575TIP3    H171140   4.344   0.678  16.661 -1.6013 -0.1378 -0.5361
16575TIP3    H271141   4.298   0.644  16.521  1.1670  0.2353 -1.6157
16576TIP3   OH271142   5.184   2.940  16.889 -0.4277  0.2209 -0.0133
16576TIP3    H171143   5.128   2.952  16.966 -0.3909 -2.5360  0.5592
16576TIP3    H271144   5.189   3.027  16.850 -1.9798  1.3495  2.0387
16577TIP3   OH271145   5.632   5.203  14.814  0.6193  0.4584  0.2837
16577TIP3    H171146   5.693   5.157  14.872 -0.2124 -1.4785 -0.3100
16577TIP3    H271147   5.656   5.174  14.726 -0.2110  0.8385 -0.0781
16578TIP3   OH271148   1.881   5.784   0.809 -0.6094 -0.2430  0.2207
16578TIP3    H171149   1.923   5.699   0.818 -0.1715 -0.0138  0.3594
16578TIP3    H271150   1.839   5.782   0.723  0.1956 -0.2457 -0.1741
16579TIP3   OH271151   6.339   5.847  12.996  0.0021 -0.2662 -0.0053
16579TIP3    H171152   6.305   5.837  12.907  2.5259 -1.2774 -0.9289
16579TIP3    H271153   6.368   5.938  13.000 -0.6102 -0.0609  0.0114
16580TIP3   OH271154   1.403   0.783   6.459  0.1469  0.3148 -0.2706
16580TIP3    H171155   1.354   0.843   6.403 -1.3868 -1.9666 -1.5143
16580TIP3    H271156   1.385   0.814   6.548 -0.8594  1.4946 -0.8481
16581TIP3   OH271157   2.066   0.411   3.514 -0.5542  0.4811 -0.7791
16581TIP3    H171158   2.149   0.452   3.540 -1.6020  1.1770  1.7184
16581TIP3    H271159   2.080   0.385   3.422  3.0832 -1.2422  0.0905
16582TIP3   OH271160   1.234   4.632  16.395 -0.1990 -0.1710 -0.0008
16582TIP3    H171161   1.151   4.649  16.351 -0.0819 -1.6625 -0.8870
16582TIP3    H271162   1.211   4.608  16.484 -0.3800  4.1375  1.3393
16583TIP3   OH271163   3.915   4.580  12.894  0.2138 -0.4053  0.5151
16583TIP3    H171164   3.926   4.490  12.865 -0.8731  0.0871 -1.6007
16583TIP3    H271165   3.884   4.573  12.984 -1.1828 -2.1958 -0.0526
16584TIP3   OH271166   0.777   1.728  12.517 -0.3416  0.2476 -0.5667
16584TIP3    H171167   0.836   1.663  12.555  0.2437 -0.3815 -2.4266
16584TIP3    H271168   0.701   1.678  12.489 -1.0844  0.8117  0.3912
16585TIP3   OH271169   3.695   0.231   4.172 -0.2605 -0.1410 -0.3876
16585TIP3    H171170   3.696   0.193   4.260  0.3125  1.7651  0.4947
16585TIP3    H271171   3.777   0.202   4.132 -0.7995 -1.5065 -0.5376
16586TIP3   OH271172   2.341   5.552  13.865 -0.7784 -0.3946  0.2844
16586TIP3    H171173   2.385   5.494  13.803  0.9085 -0.9017  1.8437
16586TIP3    H271174   2.390   5.634  13.860 -0.3854 -0.5561  1.1523
16587TIP3   OH271175   2.402   4.078  12.609  0.6988  0.2000  0.3414
16587TIP3    H171176   2.445   4.058  12.693 -1.4725  0.2156  1.5118
16587TIP3    H271177   2.417   4.172  12.597  0.1147  0.4249  1.2743
16588TIP3   OH271178   5.479   5.882   4.829 -0.6469 -0.4244 -0.3177
16588TIP3    H171179   5.530   5.962   4.813  0.3540 -1.3153 -1.8934
16588TIP3    H271180   5.388   5.910   4.819 -0.2825  0.3500 -1.9404
16589TIP3   OH271181   5.973   5.660  12.625  0.3725  0.0385  0.1057
16589TIP3    H171182   5.956   5.593  12.559  1.0243 -0.8688  0.8373
16589TIP3    H271183   5.920   5.735  12.597 -0.2934 -0.7374 -0.7760
16590TIP3   OH271184   3.061   2.207   0.009  0.1467  0.5477  0.1151
16590TIP3    H171185   2.994   2.140   0.024  1.1150 -0.4041  0.3087
16590TIP3    H271186   3.040   2.277   0.071 -0.3978  0.0564  0.4891
16591TIP3   OH271187   5.974   2.217   1.696 -0.1191  0.2625  0.0762
16591TIP3    H171188   6.059   2.220   1.653  0.1278 -0.3357  0.5025
16591TIP3    H271189   5.968   2.128   1.731  0.1188  1.0260  2.1505
16592TIP3   OH271190   5.913   0.653   4.235 -1.1072 -0.0254 -0.4573
16592TIP3    H171191   5.892   0.562   4.216 -0.2850 -0.0455 -1.3364
16592TIP3    H271192   5.999   0.649   4.278 -1.9937  0.1861  1.4313
16593TIP3   OH271193   5.836   4.269   4.932 -0.1170  0.0156  0.7801
16593TIP3    H171194   5.902   4.319   4.979  1.1929  0.1121 -1.0754
16593TIP3    H271195   5.852   4.287   4.839 -2.7284  0.0084  0.2291
16594TIP3   OH271196   4.402   5.490   4.491  0.5561  0.4137 -0.2330
16594TIP3    H171197   4.496   5.472   4.481  0.5398  0.1825  0.0167
16594TIP3    H271198   4.390   5.576   4.452  0.8200  0.3152 -0.5449
16595TIP3   OH271199   1.239   6.103   0.303 -0.8432 -0.5149  0.3774
16595TIP3    H171200   1.325   6.082   0.266 -1.0748 -2.5049  0.8395
16595TIP3    H271201   1.256   6.176   0.363  0.1898  0.2579 -0.7983
16596TIP3   OH271202   1.649   3.604  11.570  0.0408 -0.2688  1.2037
16596TIP3    H171203   1.720   3.539  11.566 -0.1786 -0.4521 -1.4943
16596TIP3    H271204   1.570   3.554  11.553 -0.0153  0.7311 -2.1902
16597TIP3   OH271205   4.618   2.741   4.770 -0.0834  0.2426  0.6602
16597TIP3    H171206   4.535   2.737   4.722 -0.4122  0.3832  1.2063
16597TIP3    H271207   4.678   2.688   4.718 -0.7223 -0.5015  0.6541
16598TIP3   OH271208   0.479   0.578   3.050 -0.9017  0.6986 -0.2761
16598TIP3    H171209   0.459   0.633   2.975  1.4738 -0.3144 -1.7709
16598TIP3    H271210   0.551   0.623   3.094 -0.3631 -0.1198 -0.2947
16599TIP3   OH271211   0.490   4.223  15.603 -0.3014 -0.3764 -0.3965
16599TIP3    H171212   0.520   4.247  15.515  0.5580 -0.1103 -0.0417
16599TIP3    H271213   0.537   4.142  15.623  0.0105 -0.0884  0.0710
16600TIP3   OH271214   1.562   4.216   4.035 -0.5197 -0.0092  0.3518
16600TIP3    H171215   1.625   4.154   4.072 -0.8664 -0.2226  0.5914
16600TIP3    H271216   1.493   4.222   4.101 -0.4643  0.6755  0.3548
16601TIP3   OH271217   2.975   0.091   4.859  0.3592 -0.0745 -0.3171
16601TIP3    H171218   2.938   0.079   4.946  0.2563 -1.4844 -0.5298
16601TIP3    H271219   3.046   0.027   4.853  3.3053  2.9005  0.2616
16602TIP3   OH271220   4.562   0.233   4.265  0.1335  0.5576 -0.3270
16602TIP3    H171221   4.538   0.319   4.300  0.5093  0.6651 -0.3393
16602TIP3    H271222   4.514   0.171   4.321 -2.2712  0.8283 -1.9182
16603TIP3   OH271223   4.072   4.881   0.445  0.0619  0.0104  0.2528
16603TIP3    H171224   4.034   4.963   0.476 -0.7491 -0.4549  0.5104
16603TIP3    H271225   4.164   4.888   0.468 -0.4175 -0.1539  2.4443
16604TIP3   OH271226   3.747   1.069   2.564  0.1773  0.3964 -0.0428
16604TIP3    H171227   3.676   1.019   2.524  1.1914 -1.5556  0.4660
16604TIP3    H271228   3.756   1.032   2.652  0.2999  2.2263  0.7712
16605TIP3   OH271229   4.658   5.146  14.224  0.4997 -0.2614 -0.9807
16605TIP3    H171230   4.730   5.161  14.286 -0.9041  1.9268  0.2689
16605TIP3    H271231   4.688   5.188  14.143  0.5807  0.8230 -0.4080
16606TIP3   OH271232   2.455   2.803  12.866 -0.4418  0.1295 -0.0930
16606TIP3    H171233   2.425   2.826  12.954 -0.1317 -1.4489  0.4636
16606TIP3    H271234   2.456   2.886  12.818 -4.0701  0.5937  0.3215
16607TIP3   OH271235   6.356   5.298  17.187 -1.2496  0.4302  0.7680
16607TIP3    H171236   6.335   5.206  17.172 -1.5485  0.3921  1.3684
16607TIP3    H271237   6.277   5.345  17.162 -0.2726  0.7803 -1.9570
16608TIP3   OH271238   2.971   2.839  15.486  0.6970  0.4631 -0.1993
16608TIP3    H171239   3.019   2.894  15.424 -0.7116 -2.9953 -4.9432
16608TIP3    H271240   2.879   2.861  15.472  0.3315 -0.0914  1.1515
16609TIP3   OH271241   5.004   4.503   2.646  0.4960  0.5728 -0.2545
16609TIP3    H171242   4.920   4.546   2.665  0.7796  0.8326  0.4356
16609TIP3    H271243   4.980   4.414   2.620 -0.0179  0.7665 -0.4564
16610TIP3   OH271244   0.565   3.962  11.781 -0.0725 -0.4325 -0.4809
16610TIP3    H171245   0.614   3.923  11.853 -1.4882 -3.0008 -0.7840
16610TIP3    H271246   0.614   3.940  11.703  0.8974  1.4370 -0.4615
16611TIP3   OH271247   4.448   1.918   4.419 -0.0336  0.4704 -0.2632
16611TIP3    H171248   4.355   1.898   4.410  0.4713 -1.2750 -2.4037
16611TIP3    H271249   4.486   1.838   4.457  0.9486  0.0982 -1.9387
16612TIP3   OH271250   1.825   6.229   6.758 -0.3441 -0.3448  0.1053
16612TIP3    H171251   1.832   6.136   6.779  0.5156  0.0223  1.6375
16612TIP3    H271252   1.896   6.270   6.809 -0.0622  1.0299 -1.3277
16613TIP3   OH271253   4.631   6.029   3.362 -0.2912  0.3257  0.6327
16613TIP3    H171254   4.686   5.987   3.428  0.1041  1.9057  1.3581
16613TIP3    H271255   4.640   5.973   3.285  0.3537 -0.8009  1.4787
16614TIP3   OH271256   0.455   2.186  17.210  0.1940 -0.0934 -0.1301
16614TIP3    H171257   0.391   2.189  17.281  0.8265  2.9721  0.4770
16614TIP3    H271258   0.404   2.168  17.132 -1.3849  1.5034  0.4539
16615TIP3   OH271259   6.642   4.067   5.223 -0.1910 -0.1005  0.4931
16615TIP3    H171260   6.665   3.981   5.188  0.1426 -0.3712  1.3532
16615TIP3    H271261   6.723   4.117   5.222 -0.4833  0.3701 -0.4457
16616TIP3   OH271262   3.416   2.708   2.257 -0.4321 -0.2386  0.4350
16616TIP3    H171263   3.475   2.751   2.320 -0.0336  0.4193 -0.3717
16616TIP3    H271264   3.452   2.620   2.247  0.4032  0.1308  0.0038
16617TIP3   OH271265   5.666   6.638  11.989  0.2540 -0.1959  0.3817
16617TIP3    H171266   5.596   6.684  12.035  0.8064 -0.0710  1.1199
16617TIP3    H271267   5.746   6.672  12.028  0.7435 -0.0918 -0.6922
16618TIP3   OH271268   2.561   5.553  12.590 -0.0764 -0.0220 -0.8746
16618TIP3    H171269   2.524   5.481  12.541 -0.2348 -1.8123  1.6622
16618TIP3    H271270   2.485   5.605  12.617 -0.1476 -0.0407 -1.0381
16619TIP3   OH271271   6.558   0.522  17.165  0.0422 -0.0076  0.1334
16619TIP3    H171272   6.491   0.454  17.162 -0.2219  0.1851  1.2049
16619TIP3    H271273   6.523   0.593  17.111 -0.8293  0.2577  1.0208
16620TIP3   OH271274   5.228   3.105   3.402  0.2418 -0.5113 -0.6891
16620TIP3    H171275   5.261   3.059   3.479 -2.2099 -0.3845  0.5548
16620TIP3    H271276   5.263   3.193   3.410  0.0975 -0.5288  0.2477
16621TIP3   OH271277   3.056   4.427  16.572  0.2942  0.0664 -0.1144
16621TIP3    H171278   3.016   4.347  16.541 -0.4109  0.1341  0.5896
16621TIP3    H271279   3.145   4.426  16.535  1.0675 -2.1076  1.6150
16622TIP3   OH271280   2.433   2.724  15.425 -0.5891  0.3079  0.3875
16622TIP3    H171281   2.399   2.734  15.336 -0.2032  0.6082  0.2695
16622TIP3    H271282   2.359   2.689  15.475 -1.1128  1.0840  0.1739
16623TIP3   OH271283   0.121   2.480  16.681 -0.1723 -0.2698  0.0745
16623TIP3    H171284   0.041   2.480  16.733 -0.2770  1.0344 -0.0468
16623TIP3    H271285   0.091   2.483  16.590  0.0209 -0.6960 -0.0066
16624TIP3   OH271286   1.648   4.596   2.819 -0.2585 -0.4531  0.0275
16624TIP3    H171287   1.637   4.691   2.816 -1.8451 -0.5578  1.1707
16624TIP3    H271288   1.694   4.579   2.901  1.3783 -0.6009 -0.8878
16625TIP3   OH271289   2.530   0.232   2.764 -0.5377 -0.2465  0.6176
16625TIP3    H171290   2.519   0.196   2.676 -1.7709  0.3488  0.5147
16625TIP3    H271291   2.555   0.156   2.817 -0.8466 -0.8145 -0.0327
16626TIP3   OH271292   3.367   4.912   0.301  0.1631 -0.7834 -0.1618
16626TIP3    H171293   3.368   4.838   0.362 -1.0743  0.0146  0.8831
16626TIP3    H271294   3.274   4.935   0.294 -0.1267 -2.2853 -4.1903
16627TIP3   OH271295   3.304   4.988   5.860 -0.4197 -0.0913 -0.5675
16627TIP3    H171296   3.378   4.963   5.915 -0.7626  1.7534  0.8391
16627TIP3    H271297   3.333   4.971   5.770  0.9567 -1.2149  0.0592
16628TIP3   OH271298   0.198   0.623  15.780 -0.3442 -0.1765 -0.0040
16628TIP3    H171299   0.116   0.644  15.824 -0.6803  0.4728 -0.8983
16628TIP3    H271300   0.253   0.701  15.793 -0.1437 -0.3099 -0.0426
16629TIP3   OH271301   6.629   2.884   2.602 -0.2282  0.0324  0.5058
16629TIP3    H171302   6.614   2.969   2.642 -0.3879 -0.0237  0.5663
16629TIP3    H271303   6.671   2.832   2.671  2.0918  0.7801 -0.2492
16630TIP3   OH271304   1.970   6.182   1.683 -0.0720 -0.2289 -0.2030
16630TIP3    H171305   2.013   6.257   1.642 -3.0199  1.5837 -0.2971
16630TIP3    H271306   1.907   6.152   1.617 -0.0207 -1.7925  0.4332
16631TIP3   OH271307   5.250   6.169  16.372  0.8042  0.4764 -0.4782
16631TIP3    H171308   5.171   6.212  16.340  0.6705  1.3034  0.8671
16631TIP3    H271309   5.314   6.240  16.379  0.1858  0.8899  3.1205
16632TIP3   OH271310   2.214   2.475   4.526  0.7599 -0.2480  0.1641
16632TIP3    H171311   2.306   2.458   4.545  0.9821  0.9298  0.2512
16632TIP3    H271312   2.169   2.464   4.609  1.3070  2.1253  0.8517
16633TIP3   OH271313   6.175   4.374  13.094 -0.1422 -0.1392  0.0635
16633TIP3    H171314   6.229   4.440  13.050 -1.3103  0.6464 -0.2460
16633TIP3    H271315   6.218   4.361  13.178  1.6242 -0.9971 -0.9027
16634TIP3   OH271316   6.506   3.857   4.855 -0.6926 -0.3911 -0.4057
16634TIP3    H171317   6.495   3.776   4.903 -1.6300 -0.6154 -0.9542
16634TIP3    H271318   6.492   3.926   4.920 -0.2073 -0.6647 -0.0057
16635TIP3   OH271319   5.628   5.099  10.979  0.1846  0.7561  0.3573
16635TIP3    H171320   5.639   5.023  10.922 -1.0242  1.3930 -0.8008
16635TIP3    H271321   5.558   5.149  10.938  1.2016  2.6993  0.8912
16636TIP3   OH271322   6.085   3.910  15.690 -0.3940  0.3036 -0.1101
16636TIP3    H171323   6.097   3.999  15.724 -2.1379  0.8954 -0.9577
16636TIP3    H271324   6.056   3.859  15.766  1.3211  0.2439  0.5519
16637TIP3   OH271325   3.473   2.363   5.729 -0.3774 -0.1418  0.5792
16637TIP3    H171326   3.565   2.389   5.729 -0.7520  1.3024 -0.1902
16637TIP3    H271327   3.440   2.386   5.816 -0.8776  2.8585 -0.2847
16638TIP3   OH271328   4.063   0.646   3.495  0.1395 -0.8868  0.2685
16638TIP3    H171329   4.052   0.733   3.534 -1.3872 -1.1037  0.3563
16638TIP3    H271330   4.008   0.647   3.417 -2.2540 -2.6972  1.8056
16639TIP3   OH271331   4.029   4.295  12.895  0.4928  0.5618 -0.5913
16639TIP3    H171332   4.093   4.333  12.835  0.7291 -0.0014 -0.7058
16639TIP3    H271333   3.962   4.257  12.839  0.5171  0.3707 -0.4910
16640TIP3   OH271334   4.980   3.023  12.813 -0.0583  0.0770  0.5987
16640TIP3    H171335   5.054   3.010  12.754 -0.8265  0.9458 -0.5904
16640TIP3    H271336   4.957   2.934  12.843  0.1594 -0.4154 -0.6549
16641TIP3   OH271337   5.280   0.172  14.825  0.0426  0.5001  0.7359
16641TIP3    H171338   5.290   0.131  14.739 -0.8309 -1.4136  1.4797
16641TIP3    H271339   5.212   0.238  14.813  0.5715  0.8891 -0.2234
16642TIP3   OH271340   2.775   3.320   2.443 -0.2466 -0.9499 -0.7197
16642TIP3    H171341   2.743   3.236   2.476  0.0315 -0.6900  0.2568
16642TIP3    H271342   2.734   3.385   2.500  1.1861 -0.5530 -0.0954
16643TIP3   OH271343   1.898   2.340   3.328 -0.2243 -0.0797  0.0781
16643TIP3    H171344   1.880   2.414   3.270 -1.4670 -1.2622 -1.1457
16643TIP3    H271345   1.993   2.328   3.322 -0.2872 -0.0214 -1.5855
16644TIP3   OH271346   2.517   1.997  12.850 -0.0553 -0.0600  0.0565
16644TIP3    H171347   2.571   2.066  12.887  1.0919  1.1928 -3.5321
16644TIP3    H271348   2.580   1.937  12.809 -1.1979 -1.5579  0.4107
16645TIP3   OH271349   1.841   3.415   3.795  0.2713 -0.1321 -0.0610
16645TIP3    H171350   1.860   3.437   3.886 -0.0640 -0.0577 -0.0063
16645TIP3    H271351   1.824   3.500   3.753 -0.4153 -0.2343  0.0063
16646TIP3   OH271352   3.478   4.139  15.464 -0.6243  0.0597 -0.1927
16646TIP3    H171353   3.474   4.045  15.444 -2.3529  0.3670 -1.5307
16646TIP3    H271354   3.539   4.145  15.538  0.2804 -1.9979 -0.6942
16647TIP3   OH271355   6.395   5.677   5.594  0.1030  0.4339 -0.2892
16647TIP3    H171356   6.393   5.772   5.586 -1.9720  0.5914  1.1728
16647TIP3    H271357   6.381   5.644   5.505  2.0771  1.4134 -1.0189
16648TIP3   OH271358   5.817   6.730  15.821  0.3404 -0.0139  0.0282
16648TIP3    H171359   5.824   6.748  15.914 -0.4885  0.2412  0.0496
16648TIP3    H271360   5.805   6.816  15.781 -1.2109 -0.2787 -0.1160
16649TIP3   OH271361   5.529   3.870   3.269  0.0372 -0.2782  0.0598
16649TIP3    H171362   5.539   3.790   3.320  3.3468  0.9821  1.6204
16649TIP3    H271363   5.524   3.940   3.334  4.5469  1.4082 -1.0535
16650TIP3   OH271364   5.679   5.604  13.999 -0.3764 -0.1999 -0.4188
16650TIP3    H171365   5.648   5.631  14.085 -1.4797  0.0826 -0.8933
16650TIP3    H271366   5.720   5.682  13.962  0.6549 -0.4867  0.0795
16651TIP3   OH271367   3.556   0.435  12.796 -0.1721  0.7301  0.0299
16651TIP3    H171368   3.514   0.350  12.785  1.7336 -0.3833  0.8019
16651TIP3    H271369   3.525   0.487  12.722 -1.6283 -0.5172 -0.2838
16652TIP3   OH271370   2.108   2.303  14.505 -0.5590  0.3813  0.0909
16652TIP3    H171371   2.183   2.274  14.452 -1.2172 -0.5248 -0.3647
16652TIP3    H271372   2.046   2.339  14.442  0.5845  3.7844  0.6978
16653TIP3   OH271373   4.712   3.467  17.407  0.7507  0.7439  0.2234
16653TIP3    H171374   4.662   3.541  17.444  0.0401  0.2933  0.1844
16653TIP3    H271375   4.680   3.458  17.318 -1.1333 -1.2691  1.0146
16654TIP3   OH271376   1.462   2.845  11.106  0.7974  0.0781  0.5859
16654TIP3    H171377   1.381   2.800  11.080  1.4969 -1.9871  1.7479
16654TIP3    H271378   1.495   2.794  11.180  2.6751  1.4452  0.7606
16655TIP3   OH271379   3.706   0.649   1.406 -0.5095  0.0170  0.2471
16655TIP3    H171380   3.651   0.624   1.480 -1.5009 -0.3367 -0.5903
16655TIP3    H271381   3.757   0.570   1.387 -1.7841 -0.5901 -0.7674
16656TIP3   OH271382   2.902   1.881  17.022  0.0900 -0.0369 -0.6657
16656TIP3    H171383   2.872   1.857  17.109  1.8861  0.6572  0.1752
16656TIP3    H271384   2.873   1.971  17.010  3.4010  1.4295  1.0290
16657TIP3   OH271385   1.213   3.708  12.301  0.1901  0.2810 -0.5938
16657TIP3    H171386   1.278   3.640  12.322 -0.1573 -0.0246 -0.4997
16657TIP3    H271387   1.148   3.662  12.248  0.1231  0.6229 -0.8084
16658TIP3   OH271388   2.662   5.419  15.946  0.7545 -0.0789 -0.0040
16658TIP3    H171389   2.704   5.482  15.886 -0.9312  1.0959 -0.0083
16658TIP3    H271390   2.735   5.383  15.997  1.8698  1.3031 -0.5368
16659TIP3   OH271391   3.453   1.763   6.224 -0.0247 -0.6072 -0.0668
16659TIP3    H171392   3.548   1.760   6.215 -0.2349 -0.8390 -2.9254
16659TIP3    H271393   3.432   1.856   6.228  0.2645 -0.5395 -0.0771
16660TIP3   OH271394   3.952   5.143  17.308  0.0323  0.0561 -0.9810
16660TIP3    H171395   3.987   5.227  17.337 -3.8785  1.4674  0.3273
16660TIP3    H271396   3.968   5.141  17.214  3.3282  0.4862 -0.5676
16661TIP3   OH271397   5.199   3.864  10.791  0.1488  0.1794  0.0513
16661TIP3    H171398   5.286   3.871  10.751 -0.2695 -0.6156 -1.0140
16661TIP3    H271399   5.180   3.953  10.821  1.0551  0.5020 -0.3003
16662TIP3   OH271400   0.626   3.460  16.365  0.0839  0.4272  0.2044
16662TIP3    H171401   0.572   3.384  16.341  2.3546 -1.1836 -0.1015
16662TIP3    H271402   0.705   3.422  16.403  0.1757  2.7473  2.6312
16663TIP3   OH271403   2.344   5.257  16.151  0.2629 -0.4860  0.0267
16663TIP3    H171404   2.395   5.286  16.076  1.0562  0.2036  0.8120
16663TIP3    H271405   2.284   5.191  16.116 -0.2313  0.6865 -1.4392
16664TIP3   OH271406   4.898   3.830   4.700 -0.5347 -0.6425 -0.2953
16664TIP3    H171407   4.880   3.741   4.670 -1.5090 -0.2333 -0.9896
16664TIP3    H271408   4.979   3.855   4.656  0.2047 -1.4658  0.5557
16665TIP3   OH271409   0.762   6.270  12.032  0.0909  0.6335  0.6260
16665TIP3    H171410   0.710   6.301  12.106  0.0539  0.6637  0.5876
16665TIP3    H271411   0.790   6.182  12.058 -0.9572  0.1474  0.1578
16666TIP3   OH271412   1.008   3.032  13.254 -0.2380 -0.5571 -0.6507
16666TIP3    H171413   0.952   3.015  13.330 -0.8294 -1.8905 -1.3563
16666TIP3    H271414   0.962   3.101  13.206 -0.3374 -0.3742 -0.3033
16667TIP3   OH271415   0.402   2.432   0.234  0.0746  0.4648  0.4190
16667TIP3    H171416   0.344   2.498   0.270 -1.8683  0.1063 -1.8351
16667TIP3    H271417   0.381   2.351   0.281 -1.1693  0.3924 -0.2182
16668TIP3   OH271418   6.283   4.871  14.728  0.3377 -0.0762  0.4275
16668TIP3    H171419   6.361   4.832  14.687 -0.2656 -1.1672  0.2827
16668TIP3    H271420   6.237   4.797  14.767  0.3776  0.8163  2.2532
16669TIP3   OH271421   4.246   1.680   1.941 -0.3664  0.3556 -0.1004
16669TIP3    H171422   4.150   1.672   1.942 -0.3061 -0.4316  0.6105
16669TIP3    H271423   4.262   1.772   1.920 -1.2735  0.4386 -0.4880
16670TIP3   OH271424   3.428   2.975  17.349  0.2060  0.1075  0.3753
16670TIP3    H171425   3.508   2.960  17.299  1.5018  2.5316  1.5513
16670TIP3    H271426   3.359   2.984  17.282  0.6581 -2.8296 -0.6206
16671TIP3   OH271427   6.709   2.238  15.188 -0.1237 -0.2224 -0.3792
16671TIP3    H171428   6.721   2.195  15.273 -0.1296 -0.1736 -0.3539
16671TIP3    H271429   6.624   2.205  15.157  0.4287 -1.2011 -0.9182
16672TIP3   OH271430   4.252   4.892  16.222 -0.0052 -0.0213  0.0494
16672TIP3    H171431   4.289   4.852  16.301  0.0997  0.2865  0.1576
16672TIP3    H271432   4.291   4.844  16.150 -0.1692 -0.3656  0.1860
16673TIP3   OH271433   4.927   5.926   1.754 -0.4271  0.8616  0.0763
16673TIP3    H171434   4.892   5.919   1.665  0.1829  1.1294 -0.1863
16673TIP3    H271435   4.886   5.854   1.801  1.5480 -1.2346 -1.1975
16674TIP3   OH271436   0.017   1.480  10.845  0.0686  0.0332 -0.2164
16674TIP3    H171437  -0.001   1.407  10.785 -0.5930 -0.1604  0.2052
16674TIP3    H271438  -0.064   1.531  10.846 -0.0083 -0.0837  0.6739
16675TIP3   OH271439   4.941   2.319  12.012 -0.0578  0.0005  0.1652
16675TIP3    H171440   4.909   2.408  12.032  1.0387  0.1962  1.1100
16675TIP3    H271441   5.033   2.331  11.990  0.9783 -1.1951  3.2708
16676TIP3   OH271442   6.098   2.765  12.178  0.0858 -0.0743  0.3742
16676TIP3    H171443   6.162   2.699  12.204  0.5454  0.0095 -0.5345
16676TIP3    H271444   6.044   2.721  12.112 -0.6031 -0.0429  0.9060
16677TIP3   OH271445   5.474   6.010  11.531  0.1425  0.3493 -0.0407
16677TIP3    H171446   5.497   6.028  11.439  2.3831  3.1516  0.9033
16677TIP3    H271447   5.549   6.043  11.581 -1.2867 -0.4720  2.8558
16678TIP3   OH271448   3.849   6.642  17.194 -0.1741  0.1468 -0.6659
16678TIP3    H171449   3.929   6.640  17.141 -0.9448  0.6400 -1.8894
16678TIP3    H271450   3.880   6.654  17.283  1.0850  1.4822 -1.2392
16679TIP3   OH271451   6.627   5.063  11.347 -0.2786 -0.1068  0.4760
16679TIP3    H171452   6.670   5.087  11.429 -0.9366 -0.6352  0.9837
16679TIP3    H271453   6.649   4.970  11.336  1.6699  0.4615 -1.1105
16680TIP3   OH271454   4.357   3.639   3.989  0.5916  0.2335 -0.1442
16680TIP3    H171455   4.427   3.696   3.956  0.1394 -0.4602 -2.4876
16680TIP3    H271456   4.364   3.560   3.937 -0.0379 -1.1109  1.7106
16681TIP3   OH271457   3.157   6.145   5.310  0.1489  0.0215 -0.7753
16681TIP3    H171458   3.166   6.225   5.258  0.1144 -0.1333 -1.0231
16681TIP3    H271459   3.212   6.159   5.387 -0.4096  0.5737 -0.4680
16682TIP3   OH271460   6.063   2.491   5.523  0.1979 -0.2060 -0.4031
16682TIP3    H171461   6.085   2.530   5.438 -0.5433  1.0655 -0.0293
16682TIP3    H271462   6.147   2.481   5.567  0.5974 -0.9003 -1.2687
16683TIP3   OH271463   4.797   4.137  12.095 -0.3221 -0.5759 -0.2352
16683TIP3    H171464   4.742   4.178  12.029  2.3967  2.1920 -1.0191
16683TIP3    H271465   4.758   4.161  12.179 -0.8274  0.5016 -0.7716
16684TIP3   OH271466   1.645   3.614   5.917 -0.1874 -0.1908 -0.0197
16684TIP3    H171467   1.702   3.545   5.883  1.7080  0.6253  1.2987
16684TIP3    H271468   1.663   3.616   6.010 -0.2432  2.0122 -0.0078
16685TIP3   OH271469   4.986   5.420   3.847 -0.6457 -0.0624  0.4529
16685TIP3    H171470   5.056   5.367   3.886 -1.3892 -0.3872  1.3774
16685TIP3    H271471   4.974   5.382   3.760 -2.1941 -2.4913  1.6130
16686TIP3   OH271472   1.518   5.899  14.576 -0.3162 -0.1318  0.0964
16686TIP3    H171473   1.601   5.875  14.533  0.8336 -0.1913  2.2213
16686TIP3    H271474   1.454   5.839  14.538  0.8814 -1.0059 -0.6383
16687TIP3   OH271475   4.327   0.217  14.751 -0.3697  0.0412  0.3882
16687TIP3    H171476   4.249   0.257  14.712 -0.2205 -0.4076 -0.3973
16687TIP3    H271477   4.294   0.138  14.795 -0.3108 -0.4189 -0.3649
16688TIP3   OH271478   1.109   3.156  10.857 -0.3990  0.0702 -0.4739
16688TIP3    H171479   1.065   3.231  10.816  0.4522  0.1891 -1.1854
16688TIP3    H271480   1.171   3.195  10.918 -1.0031 -0.0922  0.2530
16689TIP3   OH271481   3.125   1.859  12.336  0.3070 -0.0814 -0.0895
16689TIP3    H171482   3.218   1.835  12.332  0.3822  0.0621  0.6862
16689TIP3    H271483   3.092   1.813  12.412 -0.6009 -1.2402 -1.1506
16690TIP3   OH271484   0.251   6.007  15.555 -0.8910 -1.0336  0.2965
16690TIP3    H171485   0.191   5.999  15.481  0.8239 -0.0255 -1.3024
16690TIP3    H271486   0.320   5.943  15.538  0.9745  1.0592 -0.5527
16691TIP3   OH271487   5.951   2.302  11.651  0.1993  0.0789 -0.0750
16691TIP3    H171488   6.019   2.365  11.675  1.1445 -1.3607  1.2667
16691TIP3    H271489   5.872   2.334  11.695  0.4990  0.6807  0.0366
16692TIP3   OH271490   2.510   4.309  12.531  0.2675  0.2054 -0.5606
16692TIP3    H171491   2.583   4.297  12.591  1.0759  2.3794 -1.0256
16692TIP3    H271492   2.550   4.317  12.444 -0.6159  0.2279 -0.9828
16693TIP3   OH271493   6.106   1.686   4.382 -0.1665 -0.0528  0.0214
16693TIP3    H171494   6.144   1.760   4.335  0.2223 -0.3434 -0.1262
16693TIP3    H271495   6.105   1.615   4.318  0.0836 -0.3668  0.3634
16694TIP3   OH271496   5.550   5.621   6.422  0.3769  0.5172  0.8631
16694TIP3    H171497   5.586   5.705   6.393  2.0118  0.6478  3.0216
16694TIP3    H271498   5.540   5.631   6.517 -1.2933 -1.0715  0.9043
16695TIP3   OH271499   4.641   1.966  14.642  0.4064 -0.2504  0.4912
16695TIP3    H171500   4.720   1.912  14.642  0.6560 -0.0653 -2.6771
16695TIP3    H271501   4.590   1.935  14.567  0.2560  3.3394 -1.1082
16696TIP3   OH271502   4.865   1.049  14.687  0.1329  0.1830 -0.3888
16696TIP3    H171503   4.816   1.114  14.637 -0.8898  0.9937  1.5489
16696TIP3    H271504   4.799   1.006  14.741  1.4599  1.2332  2.2250
16697TIP3   OH271505   3.490   2.061  12.532 -0.0908 -0.2123  0.2376
16697TIP3    H171506   3.396   2.074  12.544  0.0866  0.2596  1.1055
16697TIP3    H271507   3.497   1.969  12.504 -0.8745  0.0064 -0.7638
16698TIP3   OH271508   4.531   1.479  15.120  0.1287 -0.0043 -0.4979
16698TIP3    H171509   4.455   1.437  15.081  0.9933  0.3570 -2.7198
16698TIP3    H271510   4.500   1.511  15.205 -1.5453 -1.8009 -0.3667
16699TIP3   OH271511   2.979   4.114  11.336 -0.0774 -0.3968  0.1292
16699TIP3    H171512   2.921   4.049  11.378 -0.8427 -1.0258 -1.7963
16699TIP3    H271513   2.930   4.142  11.259  1.1293  1.0014 -0.1512
16700TIP3   OH271514   5.358   6.327  14.174 -0.0475 -0.3350  0.2361
16700TIP3    H171515   5.346   6.355  14.265  0.6104 -2.3068  0.9736
16700TIP3    H271516   5.447   6.356  14.152  0.4483 -1.3737  0.8270
16701TIP3   OH271517   5.123   1.306   5.020 -0.0751 -0.2893  0.6094
16701TIP3    H171518   5.098   1.230   4.968  1.0409 -0.5593  0.4429
16701TIP3    H271519   5.213   1.287   5.048  0.2689  1.0286  0.4506
16702TIP3   OH271520   5.291   2.712   4.751 -0.2609 -0.5849  0.0441
16702TIP3    H171521   5.268   2.804   4.747 -1.0931 -0.8218 -0.9404
16702TIP3    H271522   5.303   2.694   4.844 -3.1435 -0.2160  0.5614
16703TIP3   OH271523   4.506   4.513   4.949 -0.0937  0.0208 -0.2710
16703TIP3    H171524   4.509   4.579   5.018  2.1380 -1.1622  0.8544
16703TIP3    H271525   4.593   4.517   4.908 -1.0778  0.1168 -2.5103
16704TIP3   OH271526   1.069   2.324   2.079  0.1867 -0.6088  0.4699
16704TIP3    H171527   1.137   2.372   2.126  0.3199  0.7372 -1.0370
16704TIP3    H271528   1.071   2.359   1.990 -1.7044 -1.3681  0.0785
16705TIP3   OH271529   1.407   4.275  12.361 -0.4824  0.1953 -0.0423
16705TIP3    H171530   1.411   4.341  12.291  0.5942 -0.4650 -0.6340
16705TIP3    H271531   1.313   4.266  12.380 -0.7525  0.8205 -0.9927
16706TIP3   OH271532   1.888   5.988   5.777  0.6264  0.4134 -0.1200
16706TIP3    H171533   1.949   6.040   5.726 -0.7368  0.0634 -2.2036
16706TIP3    H271534   1.812   6.045   5.790  0.7324  0.3125  1.0995
16707TIP3   OH271535   0.360   4.133   1.441 -0.3974  0.2934  0.1414
16707TIP3    H171536   0.330   4.158   1.528  0.5560  0.4823  0.4286
16707TIP3    H271537   0.435   4.075   1.457  0.0141  0.6198 -0.5501
16708TIP3   OH271538   6.073   5.999  12.582 -0.0332  0.0233  0.1534
16708TIP3    H171539   6.125   5.943  12.525 -0.4900 -0.7297  0.4629
16708TIP3    H271540   6.066   6.082  12.534  1.2355  0.0680  0.0067
16709TIP3   OH271541   3.306   3.162   6.520  0.1731  0.1113  0.6096
16709TIP3    H171542   3.226   3.110   6.513 -0.5157  1.2188  0.0496
16709TIP3    H271543   3.345   3.134   6.604 -1.0493 -0.0918  1.1293
16710TIP3   OH271544   5.932   3.153   4.109  0.0328  0.4985 -0.3059
16710TIP3    H171545   5.886   3.170   4.192 -2.4160  3.4343 -2.0365
16710TIP3    H271546   6.014   3.202   4.116  1.4226 -1.8648  1.4513
16711TIP3   OH271547   6.234   4.158  17.022  0.4432 -0.2398 -0.3680
16711TIP3    H171548   6.280   4.223  16.968 -1.8516  0.6056 -1.4039
16711TIP3    H271549   6.279   4.162  17.107  2.0225  0.7919 -1.2057
16712TIP3   OH271550   2.342   2.460   0.545  0.2104 -0.2914  0.1101
16712TIP3    H171551   2.274   2.512   0.588  1.1644  0.8208  0.3382
16712TIP3    H271552   2.295   2.410   0.478 -0.9054 -0.0022  0.6441
16713TIP3   OH271553   0.205   0.589   2.438 -0.2493  0.4929 -0.0008
16713TIP3    H171554   0.122   0.617   2.398 -0.9135 -3.8543 -2.2024
16713TIP3    H271555   0.267   0.587   2.366  1.4499  2.0788  1.3226
16714TIP3   OH271556   5.002   6.263  11.567 -0.1045  0.0705  0.3175
16714TIP3    H171557   4.919   6.216  11.563 -0.4933  0.7802 -0.3360
16714TIP3    H271558   4.979   6.349  11.603  0.7192 -0.4605  2.2499
16715TIP3   OH271559   4.946   6.151   1.961 -0.3787 -0.4615  0.3461
16715TIP3    H171560   4.932   6.206   2.039 -0.4013 -1.7664  1.3019
16715TIP3    H271561   4.868   6.096   1.957 -0.1908 -0.6827 -0.3771
16716TIP3   OH271562   6.012   2.061  12.378 -0.0876  0.4421 -0.1016
16716TIP3    H171563   5.960   2.034  12.303  0.0528  0.4069 -0.1871
16716TIP3    H271564   6.095   2.015  12.367  0.0741  0.7343 -0.1304
16717TIP3   OH271565   5.854   0.070  13.835  0.4889 -0.2925  0.0873
16717TIP3    H171566   5.903   0.020  13.770  0.9557 -0.6411  0.7061
16717TIP3    H271567   5.869   0.025  13.917 -0.4666 -0.1113  0.3730
16718TIP3   OH271568   4.710   5.999  13.629  0.2765  0.2742 -0.5440
16718TIP3    H171569   4.791   6.016  13.581  1.5006  0.9560  1.6240
16718TIP3    H271570   4.700   5.904  13.626  1.8487  0.0433  0.1122
16719TIP3   OH271571   3.184   0.317   1.761 -0.1154  0.1722 -0.3252
16719TIP3    H171572   3.179   0.249   1.693  2.6561  0.6012 -1.0728
16719TIP3    H271573   3.197   0.269   1.842 -0.2680 -0.2588 -0.5519
16720TIP3   OH271574   3.198   4.495   0.397  0.1476  0.1983  0.3214
16720TIP3    H171575   3.189   4.409   0.439  0.1126  0.1469  0.2086
16720TIP3    H271576   3.108   4.520   0.375  0.1440  0.3232  0.4698
16721TIP3   OH271577   4.057   0.311  10.372  0.2452 -0.3020 -0.0728
16721TIP3    H171578   4.100   0.386  10.330 -1.4504  1.1118  0.6277
16721TIP3    H271579   4.127   0.247  10.383  1.5699  0.8305 -1.4532
16722TIP3   OH271580   5.236   0.673  14.228 -0.7792  0.2357  0.0708
16722TIP3    H171581   5.261   0.655  14.319 -0.4395 -1.4588 -0.3329
16722TIP3    H271582   5.317   0.666  14.178 -0.8319  1.8384 -0.3206
16723TIP3   OH271583   6.259   3.809   6.137  0.2649 -0.4628  0.0557
16723TIP3    H171584   6.262   3.874   6.208  2.2813 -0.8510  0.3852
16723TIP3    H271585   6.208   3.737   6.173  2.1870 -1.1283  1.5914
16724TIP3   OH271586   6.494   3.781   1.182 -0.4216  0.2875 -0.1077
16724TIP3    H171587   6.583   3.800   1.210  0.0286  0.0945 -1.3513
16724TIP3    H271588   6.449   3.865   1.185  0.3040  0.7341 -1.1843
16725TIP3   OH271589   5.022   3.870  16.396  0.5145 -0.5240  0.0314
16725TIP3    H171590   4.996   3.941  16.455  0.0003 -1.4201  0.9207
16725TIP3    H271591   5.102   3.834  16.436  1.5746  0.4259 -1.1736
16726TIP3   OH271592   6.047   3.021   1.822 -0.7755 -0.4067 -0.0705
16726TIP3    H171593   6.132   2.983   1.846 -0.5613  1.4825  2.5009
16726TIP3    H271594   6.069   3.091   1.761 -0.8109 -1.6199 -1.5514
16727TIP3   OH271595   4.897   5.107  17.254  0.3346  0.8367  0.5300
16727TIP3    H171596   4.813   5.099  17.301 -0.0510 -0.0009 -0.2695
16727TIP3    H271597   4.891   5.192  17.210 -0.8039  0.1088 -0.8112
16728TIP3   OH271598   6.131   0.205   4.640 -0.2111  0.7290  0.0055
16728TIP3    H171599   6.226   0.212   4.649 -0.3629  0.8655  1.8181
16728TIP3    H271600   6.115   0.218   4.547  1.5532  0.6101 -0.3451
16729TIP3   OH271601   2.029   6.720   5.560 -0.6577  0.0583 -0.1243
16729TIP3    H171602   1.945   6.728   5.515  1.0928  0.5062 -3.6365
16729TIP3    H271603   2.042   6.626   5.571 -0.3927 -0.2215 -2.3168
16730TIP3   OH271604   5.741   1.574  12.150 -0.3652  0.1859  0.1790
16730TIP3    H171605   5.835   1.587  12.163 -0.3405 -1.0161  1.3081
16730TIP3    H271606   5.735   1.504  12.085 -0.5029  0.5621 -0.2244
16731TIP3   OH271607   1.266   3.891  16.758  0.8843  0.0826 -0.3830
16731TIP3    H171608   1.336   3.837  16.722 -0.9721 -1.7841 -1.3405
16731TIP3    H271609   1.209   3.829  16.804  0.5254  1.7365  1.5403
16732TIP3   OH271610   3.012   2.016   4.550 -0.4500 -0.3986 -0.0664
16732TIP3    H171611   2.959   2.069   4.491 -0.3806 -1.0796 -0.7578
16732TIP3    H271612   3.066   2.079   4.598 -0.2407  0.1478 -0.9953
16733TIP3   OH271613   4.776   0.627   4.925  0.4009 -1.0893  0.0264
16733TIP3    H171614   4.815   0.655   4.842  0.2702  0.6605  0.5295
16733TIP3    H271615   4.812   0.686   4.990 -1.8165 -0.4333  0.7493
16734TIP3   OH271616   3.121   3.202  12.761  0.4357  0.2406  0.3649
16734TIP3    H171617   3.111   3.145  12.838 -1.3939 -0.7862 -0.5463
16734TIP3    H271618   3.133   3.142  12.688 -2.9335  0.7860 -0.8381
16735TIP3   OH271619   1.663   0.888  13.064  0.1257  0.2903  0.6753
16735TIP3    H171620   1.682   0.869  13.156  2.2408  0.3837  0.3016
16735TIP3    H271621   1.740   0.936  13.033 -0.4110 -0.0083 -1.2316
16736TIP3   OH271622   0.659   2.627  15.846 -0.1352  0.4767  0.1636
16736TIP3    H171623   0.704   2.710  15.865 -0.0790  0.6756 -0.7608
16736TIP3    H271624   0.591   2.652  15.783 -0.0488 -0.1993 -0.1990
16737TIP3   OH271625   2.719   4.293   3.523 -0.7504 -0.5481  0.1856
16737TIP3    H171626   2.744   4.212   3.568 -2.3802 -0.7379  0.8042
16737TIP3    H271627   2.719   4.359   3.592  2.0781  0.3905 -0.5782
16738TIP3   OH271628   0.996   6.071  11.609  0.0201 -0.0583  0.1323
16738TIP3    H171629   1.090   6.083  11.623 -0.1844  0.0143  1.6126
16738TIP3    H271630   0.991   6.013  11.533  1.2056  1.4716 -1.1885
16739TIP3   OH271631   2.205   1.374   1.417 -0.2847  0.1564  0.4632
16739TIP3    H171632   2.183   1.284   1.391 -1.3737  0.3814  0.5774
16739TIP3    H271633   2.223   1.419   1.334 -0.6203  0.0559  0.3332
16740TIP3   OH271634   5.493   6.131  11.987 -0.2696 -0.8656  0.3034
16740TIP3    H171635   5.416   6.142  12.043  0.1886  0.1136  0.7652
16740TIP3    H271636   5.563   6.177  12.034  0.6146 -1.7971 -0.0773
16741TIP3   OH271637   2.899   4.556   0.357 -0.4560 -0.2228  1.1920
16741TIP3    H171638   2.873   4.627   0.298  2.3859  0.3862  0.4914
16741TIP3    H271639   2.844   4.482   0.331  0.1122  0.2634 -1.7418
16742TIP3   OH271640   4.630   1.519  11.731  0.6477 -0.5440 -0.0717
16742TIP3    H171641   4.681   1.600  11.742  0.6397 -0.5424 -0.0458
16742TIP3    H271642   4.617   1.487  11.820  0.2901 -0.3499 -0.0504
16743TIP3   OH271643   2.337   2.834  12.427 -0.3025 -0.4976  0.0987
16743TIP3    H171644   2.341   2.745  12.392  0.3088 -0.4519  0.0506
16743TIP3    H271645   2.277   2.828  12.501 -2.2464 -0.4502 -1.3959
16744TIP3   OH271646   0.833   4.307   0.626 -0.2359  0.0017  0.3877
16744TIP3    H171647   0.822   4.370   0.555  1.1028 -0.1646  0.0091
16744TIP3    H271648   0.789   4.348   0.701 -0.7826  0.6391 -0.2692
16745TIP3   OH271649   6.049   1.172   3.593 -0.2119 -0.2281 -0.1556
16745TIP3    H171650   6.021   1.246   3.539 -0.5355  0.0209  0.3447
16745TIP3    H271651   6.082   1.212   3.673  0.3375 -0.5928 -0.1949
16746TIP3   OH271652   3.629   1.403   4.517 -0.5776 -0.0239 -0.5032
16746TIP3    H171653   3.580   1.479   4.550 -0.9246 -0.2065 -0.5886
16746TIP3    H271654   3.692   1.383   4.585 -0.5418  0.2909 -0.4431
16747TIP3   OH271655   2.273   4.582   5.886  0.5960  0.7114  0.2951
16747TIP3    H171656   2.312   4.526   5.952 -1.0933  1.3561  1.9346
16747TIP3    H271657   2.204   4.630   5.932 -1.2325  0.6018 -2.1098
16748TIP3   OH271658   3.923   0.078   0.070  0.1182 -0.5258  0.0997
16748TIP3    H171659   3.943   0.160   0.115  0.0447 -1.2273  1.4577
16748TIP3    H271660   4.009   0.040   0.051  0.1511 -0.1723 -0.4757
16749TIP3   OH271661   2.640   6.027  12.694 -0.1840 -0.6044 -0.2546
16749TIP3    H171662   2.555   6.071  12.682 -0.3509 -0.7261  0.4105
16749TIP3    H271663   2.704   6.097  12.683 -0.4341 -0.2384  0.4615
16750TIP3   OH271664   3.150   1.320  11.347 -0.1827  0.5510  0.0429
16750TIP3    H171665   3.112   1.264  11.414  0.0229  0.4402  0.0683
16750TIP3    H271666   3.147   1.408  11.384  0.6505  0.3887  0.5271
16751TIP3   OH271667   0.177   6.576   4.160 -0.3896 -0.5656  0.1569
16751TIP3    H171668   0.172   6.624   4.242  0.8273 -0.2032  0.0468
16751TIP3    H271669   0.212   6.640   4.097 -0.7142 -1.0128 -0.4906
16752TIP3   OH271670   5.301   6.594  16.205  0.3987  0.1465 -0.5488
16752TIP3    H171671   5.373   6.657  16.207  0.5064  0.1186 -2.1151
16752TIP3    H271672   5.228   6.642  16.167 -0.4069  0.1300  0.8967
16753TIP3   OH271673   1.991   1.803  15.729 -0.3268  0.1174 -0.2824
16753TIP3    H171674   1.976   1.895  15.751  1.7294  0.0303  1.8793
16753TIP3    H271675   2.073   1.803  15.680  0.0062 -0.5851  0.2521
16754TIP3   OH271676   0.377   5.116  12.929  0.4494 -0.4455  0.4715
16754TIP3    H171677   0.360   5.208  12.908  0.4447 -0.3039  1.0854
16754TIP3    H271678   0.333   5.067  12.859  2.1083  0.0541 -1.0029
16755TIP3   OH271679   0.810   4.825  15.205 -0.7506  0.4831 -0.0380
16755TIP3    H171680   0.773   4.832  15.293 -0.1152 -1.6502  0.4595
16755TIP3    H271681   0.892   4.874  15.209 -0.2743 -0.3618  0.8464
16756TIP3   OH271682   2.876   1.481  12.115  0.5789 -0.3744 -0.5943
16756TIP3    H171683   2.888   1.388  12.135  1.4849  0.0096  0.8079
16756TIP3    H271684   2.782   1.494  12.120  0.5961 -0.7241  1.7790
16757TIP3   OH271685   6.333   3.081  14.076 -0.4278 -0.1620  0.0447
16757TIP3    H171686   6.367   3.039  13.997 -1.5155 -1.9737  0.5006
16757TIP3    H271687   6.240   3.094  14.058 -0.4365  0.5698  0.5592
16758TIP3   OH271688   4.356   2.577  11.935  0.2291  0.2172  0.0009
16758TIP3    H171689   4.361   2.672  11.923 -0.2732  0.0561 -1.7948
16758TIP3    H271690   4.281   2.564  11.992 -0.3588  0.8623 -0.6033
16759TIP3   OH271691   2.651   5.209  16.726 -0.1291  0.2025  0.4842
16759TIP3    H171692   2.566   5.235  16.690  0.7139 -0.4157 -2.2228
16759TIP3    H271693   2.699   5.291  16.737 -1.1620  0.5908  2.4220
16760TIP3   OH271694   5.931   2.023   3.448  0.2301 -0.4279 -0.0454
16760TIP3    H171695   5.850   2.069   3.472  0.6117 -0.9374  2.6230
16760TIP3    H271696   6.001   2.086   3.466  0.4865 -0.0301 -2.2242
16761TIP3   OH271697   5.127   1.341  12.589 -0.2749 -0.8473  0.0413
16761TIP3    H171698   5.090   1.258  12.558 -0.7450 -0.3682 -0.7103
16761TIP3    H271699   5.078   1.408  12.541  1.4441 -0.1781 -0.8520
16762TIP3   OH271700   1.802   5.530   4.752  0.3990  0.3164 -0.0053
16762TIP3    H171701   1.828   5.582   4.829  5.3527  0.4838 -1.4296
16762TIP3    H271702   1.790   5.595   4.683  0.3848 -0.0827 -0.3804
16763TIP3   OH271703   6.193   6.049   2.421 -0.0384 -0.2884  0.1721
16763TIP3    H171704   6.100   6.070   2.426 -0.1218  0.0332 -1.7845
16763TIP3    H271705   6.229   6.113   2.358  1.2049 -1.2880 -0.1823
16764TIP3   OH271706   4.419   5.559  17.084 -0.2400 -0.2245 -0.3317
16764TIP3    H171707   4.379   5.504  17.152 -2.3080  2.0945  0.5036
16764TIP3    H271708   4.352   5.564  17.016 -0.2651  1.4699 -0.2234
16765TIP3   OH271709   0.095   0.582   0.530 -0.0498 -0.4037 -0.6298
16765TIP3    H171710   0.096   0.547   0.619 -0.7508  1.8157  0.3157
16765TIP3    H271711   0.180   0.557   0.494 -0.1701 -2.2564  0.2528
16766TIP3   OH271712   2.741   5.692   2.428  0.1661  0.4246  0.2277
16766TIP3    H171713   2.788   5.755   2.373 -1.0777  1.0542 -0.1460
16766TIP3    H271714   2.731   5.615   2.373  2.0924 -0.3128  0.8393
16767TIP3   OH271715   1.830   6.356  14.604 -0.3259 -0.5386 -0.6555
16767TIP3    H171716   1.827   6.447  14.574  0.2389 -0.0502  0.6909
16767TIP3    H271717   1.741   6.324  14.593 -0.4282  0.0203 -1.5854
16768TIP3   OH271718   0.554   0.101  15.830 -0.2701  0.3384  0.0695
16768TIP3    H171719   0.637   0.058  15.853 -1.6947 -2.3746  0.5283
16768TIP3    H271720   0.565   0.124  15.737  1.2439  0.7015  0.3060
16769TIP3   OH271721   2.771   6.609   5.927  0.2797 -0.5610  0.6591
16769TIP3    H171722   2.763   6.701   5.952  1.8941 -0.0139 -0.6312
16769TIP3    H271723   2.864   6.588   5.940 -0.0977 -2.0769  1.1145
16770TIP3   OH271724   3.905   5.040  13.164  0.3587 -0.1990 -0.1207
16770TIP3    H171725   3.932   5.124  13.201  2.2978 -0.0260 -1.7435
16770TIP3    H271726   3.962   4.976  13.208  0.0311 -0.4592 -0.0764
16771TIP3   OH271727   1.657   0.423  15.735 -0.4426  0.3750  0.6963
16771TIP3    H171728   1.606   0.343  15.751  0.4298 -0.4658 -0.5493
16771TIP3    H271729   1.639   0.444  15.643  1.2031  0.2284  0.3236
16772TIP3   OH271730   6.137   4.299  12.833 -0.5498 -0.3384  0.4095
16772TIP3    H171731   6.158   4.367  12.770  1.3360  0.2975  1.6329
16772TIP3    H271732   6.171   4.332  12.916  0.9083 -2.9692  0.9707
16773TIP3   OH271733   1.261   5.635  11.069 -0.6017 -0.3136  0.2408
16773TIP3    H171734   1.338   5.687  11.044 -0.9145  0.8482  1.5466
16773TIP3    H271735   1.187   5.693  11.055 -0.9550 -0.3399  1.7864
16774TIP3   OH271736   2.266   5.538  11.580  0.0638  0.3495  0.4449
16774TIP3    H171737   2.222   5.504  11.658 -1.0231  1.1448  0.2028
16774TIP3    H271738   2.207   5.606  11.547  0.7382  0.3538 -0.8053
16775TIP3   OH271739   1.870   3.816  13.452  0.5707 -0.3095  0.6510
16775TIP3    H171740   1.945   3.801  13.394 -0.7105 -1.8203 -0.7112
16775TIP3    H271741   1.884   3.756  13.525  0.7511 -0.4990  0.4620
16776TIP3   OH271742   3.010   1.837  12.071 -0.2697  0.3182 -0.2082
16776TIP3    H171743   3.098   1.808  12.047 -0.4853  0.2072 -0.9002
16776TIP3    H271744   3.017   1.859  12.163  0.3838 -0.0872 -0.1462
16777TIP3   OH271745   1.003   1.302   6.550 -0.5377  0.1051  0.4076
16777TIP3    H171746   0.994   1.320   6.644 -0.9873 -1.0306  0.5948
16777TIP3    H271747   0.981   1.386   6.508  1.2762  1.1076  1.3363
16778TIP3   OH271748   4.116   1.163  15.968  0.2200 -0.3778  0.5545
16778TIP3    H171749   4.112   1.088  15.909 -1.1443 -0.1701  0.3473
16778TIP3    H271750   4.115   1.239  15.909 -2.1636 -0.1477  0.8227
16779TIP3   OH271751   0.595   3.868  11.497 -0.0417  0.4360  0.7562
16779TIP3    H171752   0.621   3.887  11.407  0.4549 -1.5244  0.4275
16779TIP3    H271753   0.513   3.819  11.488  0.7663 -1.0743  1.2245
16780TIP3   OH271754   4.541   1.133  15.397 -0.2661  0.1319  0.1925
16780TIP3    H171755   4.538   1.226  15.375  1.4101  0.1116 -0.3081
16780TIP3    H271756   4.597   1.129  15.474 -1.3747 -0.3585  0.9932
16781TIP3   OH271757   1.607   2.752  17.127 -0.0398  0.0907 -0.1678
16781TIP3    H171758   1.588   2.695  17.201 -0.7952 -1.9649 -1.8778
16781TIP3    H271759   1.694   2.787  17.146  0.1098 -0.9991  1.2970
16782TIP3   OH271760   2.193   0.733   3.732  0.4038  0.1545  0.3375
16782TIP3    H171761   2.183   0.688   3.816 -0.9791 -2.4660 -1.0949
16782TIP3    H271762   2.104   0.758   3.707  0.9081  1.7736  0.0710
16783TIP3   OH271763   6.191   5.473   5.111  0.4039 -0.6202 -0.0433
16783TIP3    H171764   6.241   5.391   5.121 -0.1588 -0.8720  0.8096
16783TIP3    H271765   6.254   5.542   5.131  0.8653 -0.8311 -0.6954
16784TIP3   OH271766   1.272   3.040  14.599 -0.1731  0.0322  0.3397
16784TIP3    H171767   1.302   3.130  14.609 -2.6208  0.7849  1.6448
16784TIP3    H271768   1.196   3.045  14.542 -1.0918 -0.9855  1.3897
16785TIP3   OH271769   4.580   3.350   2.506 -0.2556  0.2268  0.6035
16785TIP3    H171770   4.627   3.378   2.428 -0.8086 -1.4519 -0.3938
16785TIP3    H271771   4.516   3.420   2.522  1.3002  1.6370  0.8975
16786TIP3   OH271772   2.969   3.183  15.840 -0.0570 -0.0520  0.4108
16786TIP3    H171773   3.023   3.109  15.812  0.6990  1.1422 -1.4487
16786TIP3    H271774   2.899   3.189  15.775 -0.8956  0.0721  1.2949
16787TIP3   OH271775   4.905   0.603   4.261  0.1884  0.3943  0.2895
16787TIP3    H171776   4.987   0.556   4.247  1.1122  1.7523  0.9300
16787TIP3    H271777   4.912   0.681   4.207 -0.3821  0.8614  0.8651
16788TIP3   OH271778   2.993   2.673   5.978 -0.0568  0.6636  0.4242
16788TIP3    H171779   2.946   2.737   5.924  0.5962  0.7840 -0.0130
16788TIP3    H271780   3.048   2.727   6.035  0.2600  0.5063  0.2701
16789TIP3   OH271781   5.299   2.337  15.382  0.1781 -0.1745  0.1485
16789TIP3    H171782   5.221   2.308  15.335 -0.2173 -0.4613  0.9580
16789TIP3    H271783   5.360   2.363  15.313 -0.4074 -0.5158 -0.5170
16790TIP3   OH271784   5.082   4.260  13.134  0.0525 -0.2339 -0.2753
16790TIP3    H171785   5.084   4.171  13.169 -0.0359  0.0543  0.4804
16790TIP3    H271786   5.167   4.297  13.158 -0.6209  0.4928  1.0607
16791TIP3   OH271787   4.553   6.666  16.730  0.0401 -0.1934  0.0607
16791TIP3    H171788   4.487   6.735  16.734 -0.5361 -0.6855 -0.7506
16791TIP3    H271789   4.558   6.631  16.819 -2.2225 -1.4631 -0.2438
16792TIP3   OH271790   5.164   3.476  16.766  0.2042 -0.3142 -0.2473
16792TIP3    H171791   5.180   3.454  16.858  2.9909 -0.1559 -0.6114
16792TIP3    H271792   5.135   3.394  16.726 -0.8300 -0.4318  0.6900
16793TIP3   OH271793   0.839   3.293  16.450 -0.3260 -0.4475 -0.0635
16793TIP3    H171794   0.778   3.220  16.457 -2.0135  0.9230  0.2998
16793TIP3    H271795   0.925   3.256  16.470 -0.8264 -2.6824 -1.6615
16794TIP3   OH271796   4.987   6.148   3.857 -0.3476  0.2689 -0.2417
16794TIP3    H171797   4.957   6.114   3.773 -0.4993  0.6491 -0.3402
16794TIP3    H271798   4.907   6.170   3.905 -0.2471  0.6930 -0.2627
16795TIP3   OH271799   2.585   2.177  17.003 -0.0649  0.2542  0.2207
16795TIP3    H171800   2.546   2.122  17.071 -0.6250  1.3122  0.7741
16795TIP3    H271801   2.555   2.139  16.921  0.4431 -0.9096  0.5474
16796TIP3   OH271802   6.697   0.263  17.312  0.2441 -0.0329 -0.0319
16796TIP3    H171803   6.627   0.233  17.254  0.0712 -1.3595  0.7922
16796TIP3    H271804   6.727   0.346  17.275 -1.6818  0.5061 -0.4795
16797TIP3   OH271805   5.815   1.258  16.077  0.2031  0.2063  0.4807
16797TIP3    H171806   5.822   1.307  16.158 -1.5959  0.5411  0.4738
16797TIP3    H271807   5.785   1.321  16.012  0.0911 -0.3966 -0.0752
16798TIP3   OH271808   0.125   5.296  14.976  0.4406 -0.4083  0.0548
16798TIP3    H171809   0.185   5.288  15.050  0.0379 -1.1406  0.3161
16798TIP3    H271810   0.112   5.206  14.946  0.3761 -0.1445 -0.7299
16799TIP3   OH271811   3.666   0.870   0.419 -0.0150  0.0962  0.4007
16799TIP3    H171812   3.710   0.850   0.502 -0.5396  1.3226  0.9927
16799TIP3    H271813   3.574   0.885   0.444  0.1577  2.1970 -0.1326
16800TIP3   OH271814   1.957   0.492   5.304  0.0263  0.3748  0.2704
16800TIP3    H171815   1.963   0.526   5.215  0.7971 -1.0893 -0.2678
16800TIP3    H271816   1.990   0.563   5.359  2.1332  0.3268 -0.8600
16801TIP3   OH271817   4.314   3.055  12.129  0.6549  0.5377 -0.2275
16801TIP3    H171818   4.383   3.073  12.193 -0.3940  1.1564  0.7874
16801TIP3    H271819   4.260   2.988  12.171  1.0081 -0.4441 -1.3051
16802TIP3   OH271820   1.462   0.512  14.826  0.4793 -0.3306  0.0393
16802TIP3    H171821   1.540   0.460  14.843 -0.6633 -1.6868  1.4348
16802TIP3    H271822   1.409   0.503  14.905 -1.2340  0.2722 -0.9766
16803TIP3   OH271823   4.829   2.781   3.983  0.3667 -0.2799 -0.0984
16803TIP3    H171824   4.744   2.743   3.960 -0.1413 -0.7026  2.1467
16803TIP3    H271825   4.834   2.770   4.078  0.8520  3.9870  0.5683
16804TIP3   OH271826   6.273   1.075   1.970  0.1438 -0.1458  0.2312
16804TIP3    H171827   6.178   1.060   1.964 -0.1976  0.4548  2.7620
16804TIP3    H271828   6.298   1.034   2.053  2.1362 -0.3285 -0.4015
16805TIP3   OH271829   4.483   2.060   1.511  0.0515 -0.1112  0.1461
16805TIP3    H171830   4.429   2.135   1.486 -1.1786 -0.7627  0.7553
16805TIP3    H271831   4.426   1.984   1.501  0.1815 -0.6477  2.6698
16806TIP3   OH271832   3.632   0.439   6.069 -0.0442 -0.6025 -0.3022
16806TIP3    H171833   3.609   0.513   6.125 -3.5415 -0.9850 -1.0071
16806TIP3    H271834   3.646   0.477   5.983  2.9242 -0.3267  0.1697
16807TIP3   OH271835   1.197   4.333  16.902 -0.2836  0.4477 -0.6719
16807TIP3    H171836   1.167   4.293  16.984 -0.2323  1.7417  0.0104
16807TIP3    H271837   1.191   4.427  16.918  1.0636  0.7276 -1.6703
16808TIP3   OH271838   5.676   1.739   5.223 -0.3655 -0.7724  0.4987
16808TIP3    H171839   5.677   1.728   5.318 -0.5550 -0.6282  0.5176
16808TIP3    H271840   5.607   1.680   5.192 -2.3880  1.3466  0.7355
16809TIP3   OH271841   3.886   5.238  16.379  0.1981  0.4592 -0.4330
16809TIP3    H171842   3.903   5.319  16.331 -1.6481  0.8020 -0.5599
16809TIP3    H271843   3.798   5.211  16.351 -0.1287 -0.3959  1.2839
16810TIP3   OH271844   0.772   4.408  14.596  0.2319  0.0934 -0.3287
16810TIP3    H171845   0.851   4.449  14.561 -0.8237 -0.2504 -3.4066
16810TIP3    H271846   0.797   4.318  14.616  1.1942  0.6649  1.1376
16811TIP3   OH271847   3.514   1.913  13.670 -0.2956 -0.1729 -0.1319
16811TIP3    H171848   3.539   1.987  13.615  0.6471 -0.5987 -0.2861
16811TIP3    H271849   3.530   1.944  13.760 -1.1289  0.2536 -0.1150
16812TIP3   OH271850   0.700   4.389  16.116  0.8456  0.6117  0.6646
16812TIP3    H171851   0.782   4.435  16.133  1.3846 -0.7756  2.1003
16812TIP3    H271852   0.726   4.297  16.104 -0.6203 -0.2871  3.4532
16813TIP3   OH271853   0.624   1.953  16.178  0.0578  0.2751  0.4970
16813TIP3    H171854   0.580   1.873  16.149 -1.0955  0.6415  1.1924
16813TIP3    H271855   0.577   2.023  16.134  0.2690  0.6468  0.8575
16814TIP3   OH271856   3.914   6.318  13.931  0.6881  0.2433 -0.5201
16814TIP3    H171857   3.979   6.268  13.980  0.1617  0.3150  0.2612
16814TIP3    H271858   3.958   6.338  13.848  2.8644  2.9107  1.0869
16815TIP3   OH271859   6.063   1.586   0.904  0.2682  0.4040  0.1607
16815TIP3    H171860   6.094   1.602   0.994 -1.5674  0.1990  0.8696
16815TIP3    H271861   5.969   1.604   0.908  0.1062  0.0801 -1.6676
16816TIP3   OH271862   4.000   1.705  13.881  0.1647 -0.7482  0.0293
16816TIP3    H171863   3.929   1.693  13.943  0.5309 -0.8649  0.4329
16816TIP3    H271864   3.967   1.668  13.799 -0.0770 -1.1959  0.3247
16817TIP3   OH271865   0.459   3.095  12.272  0.5968 -0.6058  0.5265
16817TIP3    H171866   0.366   3.095  12.294  0.4637  0.8609  0.1019
16817TIP3    H271867   0.481   3.003  12.262 -1.5627 -0.9692 -2.3390
16818TIP3   OH271868   2.956   6.464   6.917  0.0546  0.0576 -0.1778
16818TIP3    H171869   3.049   6.444   6.925 -0.0567 -0.7133 -0.7676
16818TIP3    H271870   2.953   6.542   6.861  0.4027  0.8211  0.8516
16819TIP3   OH271871   5.047   2.291  15.240 -0.5339 -0.2865 -0.1703
16819TIP3    H171872   4.956   2.266  15.260 -0.2400  0.0426  1.7437
16819TIP3    H271873   5.044   2.386  15.233  0.0716  0.0082  2.5741
16820TIP3   OH271874   5.047   2.261  16.540  0.0209 -0.6314  0.0163
16820TIP3    H171875   5.074   2.275  16.449 -0.4607  0.1730 -0.0078
16820TIP3    H271876   5.007   2.174  16.540 -0.5468 -0.3782 -0.6771
16821TIP3   OH271877   4.504   5.409  17.347 -0.4091 -0.0227 -0.1715
16821TIP3    H171878   4.563   5.484  17.340 -0.7964  0.1550 -1.9919
16821TIP3    H271879   4.429   5.432  17.293 -0.8145 -1.4561 -0.2691
16822TIP3   OH271880   4.190   0.152   2.422 -0.0779  0.3423  0.4570
16822TIP3    H171881   4.285   0.142   2.420 -0.0253  0.9076 -1.2132
16822TIP3    H271882   4.158   0.067   2.453  0.9522  0.0582  0.7840
16823TIP3   OH271883   3.021   4.460  12.406 -0.2910 -0.6801  0.7553
16823TIP3    H171884   2.955   4.505  12.459 -0.2026  0.9038 -0.4152
16823TIP3    H271885   3.061   4.530  12.354  1.3530 -1.8207  0.4344
16824TIP3   OH271886   3.837   5.112  12.680  0.1766  0.5805  0.0862
16824TIP3    H171887   3.834   5.194  12.631  0.2561  0.7689  0.3926
16824TIP3    H271888   3.888   5.053  12.626  0.3664  0.8240 -0.0031
16825TIP3   OH271889   1.312   3.153  15.323 -0.2527 -0.0619  0.6234
16825TIP3    H171890   1.406   3.172  15.330 -0.8890  2.8432  2.9461
16825TIP3    H271891   1.308   3.057  15.318  2.8430 -0.2437 -1.1565
16826TIP3   OH271892   3.993   2.514  14.877 -0.3474 -0.5377  0.3363
16826TIP3    H171893   4.070   2.561  14.847 -1.0977  0.6035  0.1338
16826TIP3    H271894   4.028   2.437  14.922  0.8503 -1.3795 -1.8896
16827TIP3   OH271895   1.559   3.590   1.997  0.2657 -0.1523  0.8140
16827TIP3    H171896   1.470   3.557   1.980 -0.0620  0.1739  1.8193
16827TIP3    H271897   1.554   3.628   2.085  0.9398  1.4806  0.1879
16828TIP3   OH271898   0.521   2.033  11.796  0.5086  0.1101  0.2585
16828TIP3    H171899   0.584   2.014  11.727 -0.7582  0.8054 -1.1584
16828TIP3    H271900   0.520   2.128  11.802 -1.7257  0.2788 -1.1637
16829TIP3   OH271901   0.802   1.508  13.136 -0.3502  0.7663 -0.2975
16829TIP3    H171902   0.782   1.527  13.044  1.5627  2.4874 -0.4309
16829TIP3    H271903   0.890   1.471  13.134 -0.5547  0.1884  0.8115
16830TIP3   OH271904   3.917   6.173   0.159 -0.2590  0.6789  0.4538
16830TIP3    H171905   3.843   6.128   0.202 -0.3591  0.9488  0.5694
16830TIP3    H271906   3.991   6.114   0.171  0.1696  1.5354  2.6546
16831TIP3   OH271907   1.378   2.081  12.739  0.1783 -0.0153 -0.6353
16831TIP3    H171908   1.397   2.027  12.815  1.7333 -2.5078 -2.6442
16831TIP3    H271909   1.463   2.114  12.710 -0.4189  1.1800 -1.1162
16832TIP3   OH271910   6.618   2.079  12.626 -0.4037 -1.0020  0.1975
16832TIP3    H171911   6.687   2.012  12.622  0.7543  0.2255 -1.2793
16832TIP3    H271912   6.654   2.147  12.683  0.4736  0.5189 -2.0706
16833TIP3   OH271913   0.996   5.805  13.771  0.2906  0.2668  0.0937
16833TIP3    H171914   1.010   5.721  13.814 -1.2026 -1.5360 -2.6679
16833TIP3    H271915   0.928   5.848  13.822  0.2831 -0.6941  0.9175
16834TIP3   OH271916   5.306   4.140  16.404  0.3293 -0.0235 -0.1153
16834TIP3    H171917   5.301   4.079  16.330  0.1063  1.2604 -1.1808
16834TIP3    H271918   5.377   4.199  16.382  2.0627 -1.1725  1.9515
16835TIP3   OH271919   6.458   0.780   0.646  0.0095  0.3081  0.2489
16835TIP3    H171920   6.368   0.801   0.672  0.3497  1.2901  0.6920
16835TIP3    H271921   6.453   0.763   0.552 -0.8754 -1.1179  0.5103
16836TIP3   OH271922   2.224   1.731   4.681 -0.0114 -0.1270  0.4465
16836TIP3    H171923   2.184   1.799   4.627 -0.5025  0.5277  1.5907
16836TIP3    H271924   2.214   1.650   4.630  3.3486  0.9975 -2.4251
16837TIP3   OH271925   0.527   4.463   0.425  0.1045  0.3954  0.7454
16837TIP3    H171926   0.525   4.371   0.399 -0.1087  0.4071  0.7179
16837TIP3    H271927   0.515   4.511   0.343 -0.5710  0.4326  0.8587
16838TIP3   OH271928   4.112   6.691  14.667 -0.5632 -0.1620  0.2461
16838TIP3    H171929   4.033   6.645  14.694 -1.1320  0.9556  0.5469
16838TIP3    H271930   4.129   6.754  14.737 -0.5336  0.9506 -0.7201
16839TIP3   OH271931   2.339   2.567  16.727  0.1380  0.0730 -0.2821
16839TIP3    H171932   2.332   2.565  16.823  0.7586 -0.6778 -0.2444
16839TIP3    H271933   2.340   2.475  16.702 -1.6080  0.2458 -1.1473
16840TIP3   OH271934   0.866   4.799   2.515 -0.2981 -0.2382 -0.0134
16840TIP3    H171935   0.948   4.753   2.530  0.1962  0.2159 -1.2229
16840TIP3    H271936   0.816   4.786   2.595 -0.1936 -2.9037 -0.2955
16841TIP3   OH271937   0.025   0.951  11.052  0.4082 -0.5445 -0.3386
16841TIP3    H171938   0.065   0.920  10.970  0.8807  0.0076 -0.3233
16841TIP3    H271939  -0.019   1.032  11.027  0.9057 -0.1513  0.0301
16842TIP3   OH271940   4.521   5.105   4.283 -0.6025 -0.2266  0.3281
16842TIP3    H171941   4.524   5.196   4.314 -1.0597  0.5048 -1.6254
16842TIP3    H271942   4.465   5.060   4.347 -1.1066  1.0717  0.8340
16843TIP3   OH271943   6.101   1.313   2.447  0.1926  0.5416 -0.0208
16843TIP3    H171944   6.047   1.373   2.497  0.5358  0.7503  0.1021
16843TIP3    H271945   6.189   1.351   2.450 -0.3434  2.6750 -3.9374
16844TIP3   OH271946   5.773   5.599  16.649  0.3781  1.0045  0.1072
16844TIP3    H171947   5.843   5.562  16.595  0.1419 -0.8079  0.9690
16844TIP3    H271948   5.716   5.643  16.587  0.7769  0.0390 -0.9784
16845TIP3   OH271949   4.170   0.504  14.983 -0.2288 -0.0657  0.4095
16845TIP3    H171950   4.228   0.428  14.988  0.1372  0.2415  0.9801
16845TIP3    H271951   4.145   0.521  15.074 -3.6241 -1.9971 -0.0153
16846TIP3   OH271952   6.028   2.801  16.320 -0.3772  0.0039 -0.8803
16846TIP3    H171953   6.074   2.857  16.383  0.9456 -0.6948 -1.2119
16846TIP3    H271954   5.935   2.817  16.339 -0.0251  1.5115 -0.2700
16847TIP3   OH271955   2.530   1.766   4.695  0.0720  0.1402  0.2722
16847TIP3    H171956   2.500   1.699   4.634  3.2821  1.0459 -2.6135
16847TIP3    H271957   2.500   1.848   4.657 -0.7661  0.5926  1.8414
16848TIP3   OH271958   5.995   0.716  11.237 -0.4342 -0.4893 -0.4920
16848TIP3    H171959   6.027   0.790  11.186  1.8688 -0.3543  1.0479
16848TIP3    H271960   6.052   0.643  11.213  0.0046 -0.6924  1.0526
16849TIP3   OH271961   3.837   4.402  12.597  0.0826 -0.3866 -0.0302
16849TIP3    H171962   3.801   4.326  12.642  0.8086 -1.6298 -1.4688
16849TIP3    H271963   3.920   4.419  12.642 -0.1702 -0.3266  0.4168
16850TIP3   OH271964   2.905   1.090  16.359 -0.6277  0.6274 -0.5383
16850TIP3    H171965   2.943   1.025  16.299  0.1400 -0.1437  0.7316
16850TIP3    H271966   2.902   1.171  16.307  0.6060  0.1427 -1.4343
16851TIP3   OH271967   4.768   5.997   0.169 -0.0983  0.1806  0.2734
16851TIP3    H171968   4.733   5.988   0.080  0.2686  0.7094  0.0707
16851TIP3    H271969   4.706   5.950   0.224  0.3606 -1.3050 -0.4142
16852TIP3   OH271970   3.982   6.174  16.062 -0.6349  0.8433  0.0347
16852TIP3    H171971   4.066   6.187  16.017  1.0098 -1.9329  1.9672
16852TIP3    H271972   3.939   6.105  16.012 -0.4623  0.3106  0.6070
16853TIP3   OH271973   2.918   3.461  15.920  0.0741 -0.5803  0.3500
16853TIP3    H171974   2.881   3.447  16.007 -0.9117 -1.0577 -0.1266
16853TIP3    H271975   2.956   3.377  15.896 -2.1794 -1.3794 -0.8072
16854TIP3   OH271976   4.022   4.894   3.026  0.2663  0.0577  0.2717
16854TIP3    H171977   4.098   4.949   3.046  0.5548 -0.7721  1.6687
16854TIP3    H271978   3.948   4.954   3.026  0.8985  0.8775 -1.0763
16855TIP3   OH271979   4.201   6.311  11.778  0.5851 -0.0924  0.3955
16855TIP3    H171980   4.247   6.260  11.712  0.9052 -1.4640  1.6360
16855TIP3    H271981   4.251   6.392  11.786  0.0145  0.5331 -1.6682
16856TIP3   OH271982   6.225   2.028   4.207  0.4766  0.9289  0.4041
16856TIP3    H171983   6.150   2.085   4.223 -0.1257  0.8777 -1.8235
16856TIP3    H271984   6.292   2.086   4.170  0.4051  0.4664 -0.4711
16857TIP3   OH271985   3.548   0.819  11.513  0.4250  0.4739 -0.0927
16857TIP3    H171986   3.510   0.776  11.436  2.7465  0.8489 -1.5328
16857TIP3    H271987   3.597   0.749  11.557 -1.5477  0.0556  1.6056
16858TIP3   OH271988   4.225   1.358   1.709 -0.1238 -0.2202  0.4581
16858TIP3    H171989   4.148   1.315   1.746  0.0426  0.0610  1.1509
16858TIP3    H271990   4.277   1.286   1.673 -0.3297 -0.4932  0.7005
16859TIP3   OH271991   1.863   6.572   3.505 -0.4021 -0.1751  0.3691
16859TIP3    H171992   1.840   6.534   3.590 -1.2972 -1.3666 -0.3707
16859TIP3    H271993   1.801   6.644   3.493  0.1591  0.4218  1.0091
16860TIP3   OH271994   3.162   4.091  11.545  0.1383  0.5150  0.2722
16860TIP3    H171995   3.108   4.104  11.467  0.9573  0.0390 -0.3879
16860TIP3    H271996   3.161   4.176  11.589 -1.5957  0.3670  0.5831
16861TIP3   OH271997   3.007   2.373  12.236 -0.9666 -0.2860  0.1012
16861TIP3    H171998   2.973   2.284  12.244  0.7330 -0.8477  1.9767
16861TIP3    H271999   2.972   2.419  12.312 -1.6138  0.5877 -0.7091
16862TIP3   OH272000   0.092   2.028   4.825 -0.1061  0.3349 -0.5855
16862TIP3    H172001   0.104   1.954   4.765 -1.1165  1.0017 -1.6613
16862TIP3    H272002   0.044   1.991   4.899  0.6186 -0.3736 -0.4582
16863TIP3   OH272003   0.844   3.431  14.864 -0.5816  0.6943  0.3627
16863TIP3    H172004   0.917   3.387  14.908 -0.1849  0.9671 -0.0078
16863TIP3    H272005   0.840   3.390  14.778 -0.2803  1.2932  0.0539
16864TIP3   OH272006   5.979   5.326  13.856 -0.1908 -0.4387  0.0967
16864TIP3    H172007   5.974   5.237  13.820  1.0801 -0.0134 -1.2206
16864TIP3    H272008   5.982   5.383  13.779 -0.5996  0.7343  0.9180
16865TIP3   OH272009   4.357   6.076  17.095  0.2462 -0.5937 -0.0860
16865TIP3    H172010   4.451   6.062  17.090  0.2440 -0.9696  0.7516
16865TIP3    H272011   4.343   6.161  17.054  0.8740 -0.8050 -0.7549
16866TIP3   OH272012   1.026   0.371   4.309 -0.1936  0.5358  0.2021
16866TIP3    H172013   1.023   0.346   4.401 -0.8158 -0.5246 -0.0922
16866TIP3    H272014   1.102   0.324   4.273 -0.3868  0.3591  0.0177
16867TIP3   OH272015   4.196   2.564   4.754  0.4400 -0.6948 -0.2289
16867TIP3    H172016   4.145   2.533   4.679  0.2296  1.4298 -1.0420
16867TIP3    H272017   4.278   2.596   4.715  0.1089  0.9347  0.3233
16868TIP3   OH272018   4.980   5.952  10.510  0.1523 -0.1891 -0.0595
16868TIP3    H172019   4.990   5.857  10.518 -0.2608 -0.1839  0.5459
16868TIP3    H272020   5.027   5.988  10.585  0.1062  0.0755 -0.1537
16869TIP3   OH272021   1.032   2.942   1.068 -0.2594  0.5289  0.1011
16869TIP3    H172022   1.007   2.868   1.012 -0.0075  1.6747 -1.6087
16869TIP3    H272023   1.127   2.944   1.063 -0.3452  2.5094 -2.0481
16870TIP3   OH272024   4.984   0.460   3.426 -0.7134  0.0543 -0.4631
16870TIP3    H172025   4.947   0.516   3.495 -1.8794 -0.4555 -0.6425
16870TIP3    H272026   4.942   0.490   3.346  1.4409  1.3584 -1.1698
16871TIP3   OH272027   4.616   5.749   4.789  0.0896 -0.0370  0.1730
16871TIP3    H172028   4.689   5.725   4.846  0.9904 -1.3641 -1.4412
16871TIP3    H272029   4.648   5.826   4.740  0.1004 -0.1389  0.0200
16872TIP3   OH272030   6.638   2.215   0.988 -0.2601  0.9028  0.0605
16872TIP3    H172031   6.618   2.289   1.046 -2.0532 -0.1562  0.8689
16872TIP3    H272032   6.658   2.143   1.048 -0.2029  0.3036 -0.6778
16873TIP3   OH272033   1.206   6.521   2.282  0.0352 -0.3298 -0.9145
16873TIP3    H172034   1.192   6.441   2.232 -1.8654 -0.8138  0.2842
16873TIP3    H272035   1.142   6.517   2.352  2.1828  0.5695  1.2706
16874TIP3   OH272036   0.336   2.384  14.013 -0.2382  0.1755  0.2517
16874TIP3    H172037   0.290   2.429  13.942  2.7291  1.5787 -0.9553
16874TIP3    H272038   0.399   2.449  14.045 -1.0647 -0.5793  3.9028
16875TIP3   OH272039   5.855   2.001  15.443 -0.2477 -0.0360  0.0447
16875TIP3    H172040   5.922   2.063  15.472 -2.2056  2.2374  0.0132
16875TIP3    H272041   5.874   1.988  15.350 -0.2164  1.1117 -0.1266
16876TIP3   OH272042   5.263   1.348  15.552 -0.1842 -0.5642 -0.0415
16876TIP3    H172043   5.284   1.441  15.559  0.8452 -0.8710  1.6813
16876TIP3    H272044   5.346   1.307  15.529 -0.1344 -1.2281  1.2066
16877TIP3   OH272045   0.911   1.744  16.374  0.0530 -0.0946  0.9108
16877TIP3    H172046   0.896   1.811  16.308  2.4027  0.0029  0.3868
16877TIP3    H272047   0.890   1.661  16.329  0.6911  0.0420  0.3439
16878TIP3   OH272048   3.195   0.148   1.994 -0.3739  0.3748 -0.3848
16878TIP3    H172049   3.123   0.086   2.003 -1.3259  1.1553 -2.0785
16878TIP3    H272050   3.172   0.221   2.052  0.2132 -0.3278  0.7805
16879TIP3   OH272051   3.914   0.175  15.382 -0.0999  0.0105  0.6114
16879TIP3    H172052   3.922   0.088  15.419  0.7367  0.1763  0.8456
16879TIP3    H272053   3.904   0.161  15.288  0.0015 -0.3430  0.6532
16880TIP3   OH272054   0.323   1.565  17.196  0.4840  0.1751  0.7365
16880TIP3    H172055   0.253   1.629  17.207  0.9038  0.7092  0.4029
16880TIP3    H272056   0.330   1.554  17.101  0.4194 -0.3595  0.7949
16881TIP3   OH272057   4.194   2.775  15.029  0.3067  0.2389  0.3179
16881TIP3    H172058   4.285   2.796  15.011  0.2605  1.1562  1.0800
16881TIP3    H272059   4.145   2.822  14.962  0.4136 -0.7453 -0.4671
16882TIP3   OH272060   2.420   0.972  14.929  0.1727  0.4245 -0.0321
16882TIP3    H172061   2.462   0.992  14.845  0.3646  1.5988  0.3200
16882TIP3    H272062   2.483   0.917  14.975  0.6569  0.8848 -0.1310
16883TIP3   OH272063   6.044   5.031   2.929  0.4616 -0.6502 -0.0951
16883TIP3    H172064   6.004   4.960   2.879  1.5204 -0.3043 -1.4928
16883TIP3    H272065   5.992   5.108   2.907  0.6777 -0.5755 -0.3468
16884TIP3   OH272066   6.586   1.775  12.334 -0.0626  0.3068 -0.6862
16884TIP3    H172067   6.646   1.764  12.408  1.0258 -0.2781 -1.6154
16884TIP3    H272068   6.512   1.718  12.354 -0.0774  0.6285  0.2309
16885TIP3   OH272069   6.147   3.961  17.371  0.5860 -0.0076 -0.1801
16885TIP3    H172070   6.227   3.914  17.348  1.6343  2.6539 -2.6424
16885TIP3    H272071   6.164   4.052  17.346 -2.7586  0.9316  0.4075
16886TIP3   OH272072   0.442   6.557  13.794  0.2729  0.1293  0.4559
16886TIP3    H172073   0.365   6.604  13.824  1.1783  1.2575  1.0992
16886TIP3    H272074   0.409   6.496  13.728 -1.1900  0.3940  0.9068
16887TIP3   OH272075   3.522   1.692   1.359 -0.5328 -0.1381 -0.2579
16887TIP3    H172076   3.586   1.764   1.359 -0.7253  0.0337 -0.1472
16887TIP3    H272077   3.517   1.666   1.267  0.7789 -1.1309 -0.0814
16888TIP3   OH272078   3.230   0.701   3.270 -0.0884  0.2130  0.2280
16888TIP3    H172079   3.242   0.645   3.193 -1.6558 -2.6991  1.9356
16888TIP3    H272080   3.139   0.728   3.266  0.2320  1.3490  0.2957
16889TIP3   OH272081   3.848   0.436  14.317 -0.1719  0.1965  0.3522
16889TIP3    H172082   3.905   0.391  14.380  1.2145  0.9033 -0.3491
16889TIP3    H272083   3.886   0.416  14.232 -0.9240  0.7824 -0.1337
16890TIP3   OH272084   5.838   4.919  13.470  0.1726 -0.2771  0.6301
16890TIP3    H172085   5.887   4.970  13.534 -0.5081 -0.8412  1.6320
16890TIP3    H272086   5.896   4.915  13.393  0.8341  0.7479  1.0579
16891TIP3   OH272087   0.941   4.481   5.144 -0.4203  0.2216  0.4468
16891TIP3    H172088   0.852   4.513   5.159 -0.2566  0.9169 -0.0285
16891TIP3    H272089   0.943   4.459   5.051 -0.4097 -0.8073  0.6854
16892TIP3   OH272090   4.230   2.088  15.961  0.3870 -0.2464  0.0609
16892TIP3    H172091   4.143   2.118  15.936  0.3321 -1.2929 -1.0712
16892TIP3    H272092   4.288   2.130  15.897  0.2649 -2.7977 -1.8514
16893TIP3   OH272093   5.238   1.984  15.683 -0.0405  0.0170 -0.6196
16893TIP3    H172094   5.256   2.071  15.648 -0.1369  0.5378  0.5888
16893TIP3    H272095   5.311   1.967  15.743 -0.2524 -0.5513 -0.5182
16894TIP3   OH272096   2.681   1.350   3.047 -0.4615  0.5973  0.2208
16894TIP3    H172097   2.608   1.391   3.001  0.4298  1.1844 -0.7036
16894TIP3    H272098   2.737   1.316   2.978  0.2630  0.3456  0.9123
16895TIP3   OH272099   3.746   4.936  14.418 -0.3323  0.1967  0.2769
16895TIP3    H172100   3.719   4.993  14.490  0.2910  0.1307  0.5749
16895TIP3    H272101   3.763   4.996  14.345  0.6957  0.4457  0.7043
16896TIP3   OH272102   6.032   3.324  13.434 -0.3585 -0.3792  0.1067
16896TIP3    H172103   5.958   3.373  13.471  0.3506 -0.0176  1.1218
16896TIP3    H272104   6.046   3.362  13.347 -1.1410 -0.2129  0.0505
16897TIP3   OH272105   3.418   6.623   2.450  0.1769 -0.3963  0.2111
16897TIP3    H172106   3.402   6.666   2.366  1.5713 -0.9345 -0.3615
16897TIP3    H272107   3.356   6.550   2.451  1.6108 -1.7424 -1.4126
16898TIP3   OH272108   2.339   1.093  11.678  0.1341  0.1404  0.7999
16898TIP3    H172109   2.280   1.020  11.696  0.1350 -0.2543 -0.6731
16898TIP3    H272110   2.281   1.166  11.657  0.1422 -0.1412 -0.2551
16899TIP3   OH272111   1.562   2.997   5.997  0.0588 -0.0851 -0.0111
16899TIP3    H172112   1.494   2.931   5.981  0.3093 -1.0510  2.4822
16899TIP3    H272113   1.515   3.071   6.037  0.2894 -0.2986  0.6681
16900TIP3   OH272114   3.594   0.316   1.919 -0.7392  0.2702 -0.4120
16900TIP3    H172115   3.578   0.305   2.013  3.7585  1.9482  0.8025
16900TIP3    H272116   3.560   0.404   1.900  0.4530  0.9293  0.3392
16901TIP3   OH272117   6.401   4.922   2.144  0.2061 -0.0190 -0.0452
16901TIP3    H172118   6.314   4.893   2.117  0.3655 -0.0732 -0.5025
16901TIP3    H272119   6.445   4.946   2.063  0.9255 -0.8443  0.0898
16902TIP3   OH272120   4.936   6.463   5.702  0.4670 -0.1350 -0.0205
16902TIP3    H172121   4.900   6.500   5.622  1.6393  1.4125  0.1102
16902TIP3    H272122   5.016   6.418   5.673  0.9345  0.4936  0.2588
16903TIP3   OH272123   5.507   5.041  13.995 -0.2054  0.1666 -0.7301
16903TIP3    H172124   5.579   4.983  14.019 -0.3546  0.6995  1.1176
16903TIP3    H272125   5.547   5.126  13.981 -0.2533  0.0730 -1.4900
16904TIP3   OH272126   5.734   1.390  12.674 -0.4485  0.0833 -0.0084
16904TIP3    H172127   5.753   1.298  12.692 -1.5547 -0.3538 -1.0124
16904TIP3    H272128   5.796   1.438  12.730 -0.3131 -1.2497  1.0395
16905TIP3   OH272129   3.876   3.543   2.115  0.0131 -0.3680  0.0760
16905TIP3    H172130   3.960   3.507   2.087 -0.5248 -2.1517  0.6519
16905TIP3    H272131   3.842   3.479   2.178 -2.7411 -0.7924 -1.7071
16906TIP3   OH272132   6.649   4.599   0.160 -0.1591  0.4749 -0.2501
16906TIP3    H172133   6.555   4.609   0.176 -0.2773 -0.0978 -0.5812
16906TIP3    H272134   6.673   4.674   0.107 -0.8774 -0.5070 -2.0395
16907TIP3   OH272135   0.921   4.806   3.872 -0.3632  0.3387 -0.7288
16907TIP3    H172136   0.986   4.782   3.806 -0.4504  1.5440 -1.2777
16907TIP3    H272137   0.869   4.875   3.831  0.6208  2.3207  1.1108
16908TIP3   OH272138   1.935   4.741   1.727  0.3992  0.3416 -0.1834
16908TIP3    H172139   1.918   4.766   1.818  0.2739 -0.5500  0.0395
16908TIP3    H272140   1.849   4.724   1.689  0.5639 -1.0203  0.0366
16909TIP3   OH272141   2.952   5.055  14.222 -0.0055 -0.1618 -0.2171
16909TIP3    H172142   2.923   5.072  14.132 -0.6980 -0.6160 -0.0825
16909TIP3    H272143   3.029   5.112  14.233 -2.1820  2.9866  0.2032
16910TIP3   OH272144   5.298   1.347  11.940 -0.2903 -0.1172  0.1214
16910TIP3    H172145   5.260   1.399  11.869 -0.8062  0.6410  0.9361
16910TIP3    H272146   5.256   1.380  12.019 -0.9749 -2.0843  0.6312
16911TIP3   OH272147   5.917   5.320  10.306  0.2599  0.1305 -0.1540
16911TIP3    H172148   5.949   5.259  10.239  0.3870 -1.1136  0.9853
16911TIP3    H272149   5.981   5.312  10.376  0.0110  1.2472  0.2074
16912TIP3   OH272150   2.580   1.155   2.693 -0.0222  0.0442 -0.1982
16912TIP3    H172151   2.532   1.137   2.774 -1.8545 -1.1621 -1.4737
16912TIP3    H272152   2.522   1.212   2.642 -0.1925 -1.4663 -1.7947
16913TIP3   OH272153   3.450   2.620   1.762  0.2934  0.0538  0.4461
16913TIP3    H172154   3.371   2.574   1.735  0.3881  0.3803 -0.4175
16913TIP3    H272155   3.418   2.700   1.805  0.1531  0.1117  0.2339
16914TIP3   OH272156   1.910   1.247   5.746  0.1739 -0.0636  0.1909
16914TIP3    H172157   1.964   1.326   5.753  0.5547 -0.4544  2.3794
16914TIP3    H272158   1.891   1.240   5.653 -0.3772  2.9440 -0.0261
16915TIP3   OH272159   6.660   1.068   4.348 -0.3972  0.5705  0.5291
16915TIP3    H172160   6.710   0.987   4.353 -1.1259  0.1030  0.3960
16915TIP3    H272161   6.652   1.085   4.254  0.7019  1.4054  0.5707
16916TIP3   OH272162   6.191   6.639   2.777 -0.6576  0.2385  0.3040
16916TIP3    H172163   6.278   6.646   2.815 -0.6458  0.1696  0.2898
16916TIP3    H272164   6.187   6.710   2.713 -1.0605  1.0301  1.1804
16917TIP3   OH272165   4.800   1.192   2.654 -0.1322  1.0863  0.2063
16917TIP3    H172166   4.871   1.146   2.697  0.0723  0.2114 -1.0036
16917TIP3    H272167   4.722   1.169   2.704  0.0734 -0.0281  0.0375
16918TIP3   OH272168   5.071   6.572  13.449  0.4225 -0.9489  0.8878
16918TIP3    H172169   5.110   6.640  13.395 -1.3179 -0.9431 -0.4385
16918TIP3    H272170   5.005   6.531  13.393 -1.1642 -1.2428  2.8320
16919TIP3   OH272171   5.040   3.561  16.451 -0.0731 -0.0198 -0.7174
16919TIP3    H172172   5.054   3.477  16.495 -1.7612  0.3715  0.6940
16919TIP3    H272173   5.020   3.537  16.360  0.8093 -1.0371 -0.6610
16920TIP3   OH272174   2.408   3.557   5.399  0.1469  0.3141 -0.1137
16920TIP3    H172175   2.428   3.609   5.322  0.0082 -0.2294 -0.5282
16920TIP3    H272176   2.352   3.613   5.452  1.1933  1.1339  0.1588
16921TIP3   OH272177   2.708   6.280   3.584 -0.7399  0.6402 -0.2653
16921TIP3    H172178   2.669   6.336   3.652  0.4192  0.7063  0.3728
16921TIP3    H272179   2.759   6.340   3.530  0.8098  0.1887  0.6400
16922TIP3   OH272180   4.423   5.544   6.242  0.1117  0.1429  0.1409
16922TIP3    H172181   4.338   5.534   6.286  0.4111  0.1134  0.7272
16922TIP3    H272182   4.484   5.564   6.313  0.4997  0.7151 -0.3495
16923TIP3   OH272183   3.216   4.995  15.686  0.5325 -0.3009  0.7104
16923TIP3    H172184   3.180   4.986  15.598  0.1740  1.2013  0.6767
16923TIP3    H272185   3.243   4.907  15.710  1.5902 -0.5809 -1.3069
16924TIP3   OH272186   2.813   5.510  12.344 -0.2653  0.1891  0.0457
16924TIP3    H172187   2.797   5.523  12.437  0.1911  2.4534 -0.1251
16924TIP3    H272188   2.908   5.505  12.336 -0.3374 -0.9210 -0.2097
16925TIP3   OH272189   6.423   1.320   2.285 -0.1474 -0.0665  0.4275
16925TIP3    H172190   6.402   1.227   2.277 -0.9371  0.0752  0.7433
16925TIP3    H272191   6.428   1.352   2.195 -1.3559 -0.1034  0.3402
16926TIP3   OH272192   5.016   1.612   0.985 -0.6632 -0.2382  0.4462
16926TIP3    H172193   5.069   1.663   0.924 -0.0419 -0.0701  1.1116
16926TIP3    H272194   5.061   1.527   0.990 -0.7041 -0.2467  0.6768
16927TIP3   OH272195   1.371   5.969  14.861  0.1950 -0.1839 -0.0357
16927TIP3    H172196   1.351   5.949  14.770  0.3302 -1.2010  0.1489
16927TIP3    H272197   1.465   5.951  14.869 -0.2933 -2.7181  0.9371
16928TIP3   OH272198   4.723   6.526   3.003  0.5389  0.3519  0.3390
16928TIP3    H172199   4.641   6.569   3.028  1.1963  0.7879  1.8872
16928TIP3    H272200   4.700   6.434   2.990 -0.3971  0.6794 -0.3947
16929TIP3   OH272201   3.441   6.056  10.639 -0.2214 -0.3752 -0.2672
16929TIP3    H172202   3.492   6.020  10.712 -0.8748  1.3396  1.1257
16929TIP3    H272203   3.358   6.082  10.678 -0.6964  0.3555 -1.6829
16930TIP3   OH272204   1.682   3.913   5.871  0.8446  0.2333 -0.2220
16930TIP3    H172205   1.758   3.960   5.905  1.5878 -0.2521 -1.1453
16930TIP3    H272206   1.673   3.837   5.928  0.4414  0.8058  0.4852
16931TIP3   OH272207   3.504   3.563  17.093 -0.2448 -0.1437 -0.2906
16931TIP3    H172208   3.468   3.646  17.122  0.9567  0.5338 -0.6664
16931TIP3    H272209   3.529   3.518  17.174 -1.1702 -0.2908 -0.0719
16932TIP3   OH272210   0.636   1.854  13.795 -0.1750  0.4232 -0.0597
16932TIP3    H172211   0.696   1.916  13.752  1.2972 -1.3447 -0.6771
16932TIP3    H272212   0.630   1.887  13.885  1.5112  0.8356 -0.0571
16933TIP3   OH272213   3.912   0.331  12.229  0.1684 -0.0687  0.0340
16933TIP3    H172214   3.837   0.378  12.192  0.7915  0.1755 -0.9714
16933TIP3    H272215   3.905   0.243  12.192  1.4502  0.5027 -1.6997
16934TIP3   OH272216   5.311   4.496  12.320 -0.0669 -0.2509  0.1665
16934TIP3    H172217   5.330   4.403  12.320 -0.4236 -0.3267  0.0802
16934TIP3    H272218   5.394   4.538  12.343 -0.2260 -0.6413  1.5157
16935TIP3   OH272219   3.815   6.421  16.014 -0.4077 -0.5182  0.3164
16935TIP3    H172220   3.780   6.334  15.995  0.7318 -1.0933  0.7642
16935TIP3    H272221   3.896   6.404  16.063  0.1223  0.7754 -0.0710
16936TIP3   OH272222   6.324   1.357  13.895 -0.4414  0.9017 -0.2947
16936TIP3    H172223   6.419   1.364  13.906 -0.4221  0.9176 -0.4747
16936TIP3    H272224   6.290   1.437  13.935 -0.3633  1.0045 -0.4328
16937TIP3   OH272225   2.878   2.481  11.351  0.3579 -0.5949 -0.7841
16937TIP3    H172226   2.833   2.559  11.383 -0.2332 -0.6788 -1.3759
16937TIP3    H272227   2.971   2.502  11.359  0.2266  0.7099 -2.1511
16938TIP3   OH272228   3.028   4.872  14.597 -0.2296 -0.0880  0.1668
16938TIP3    H172229   3.060   4.853  14.508 -1.9031  0.4403 -0.5967
16938TIP3    H272230   2.957   4.934  14.583 -0.9781 -0.5361  1.8374
16939TIP3   OH272231   1.307   3.829  15.592 -1.0912  0.2858 -0.1686
16939TIP3    H172232   1.360   3.907  15.579 -0.1925 -0.2008  0.4910
16939TIP3    H272233   1.280   3.803  15.503 -0.5367  0.7555 -0.4792
16940TIP3   OH272234   1.707   2.619  13.230 -0.1021 -0.2191  0.0235
16940TIP3    H172235   1.710   2.635  13.135 -0.0105 -0.6372 -0.0432
16940TIP3    H272236   1.622   2.578  13.245 -0.4996  0.6486  0.2508
16941TIP3   OH272237   1.980   1.524  13.134 -0.2091  0.1522 -0.2784
16941TIP3    H172238   1.888   1.522  13.162 -0.0962  0.5401  0.1377
16941TIP3    H272239   2.028   1.553  13.212  0.2062  0.4874 -0.6539
16942TIP3   OH272240   3.709   6.636   2.743 -0.0738  0.1673 -0.7387
16942TIP3    H172241   3.770   6.686   2.689 -0.9052  0.1910 -1.6801
16942TIP3    H272242   3.664   6.577   2.682 -2.2201  1.3500 -0.4071
16943TIP3   OH272243   5.737   0.187  15.413  0.5888 -0.1278  0.4533
16943TIP3    H172244   5.707   0.105  15.373  0.9710 -0.5190  0.9492
16943TIP3    H272245   5.816   0.162  15.462 -0.4164  0.1129  2.2970
16944TIP3   OH272246   0.517   4.808  11.648  0.0764 -0.3969  0.0375
16944TIP3    H172247   0.505   4.799  11.743 -1.3808 -1.4296 -0.1973
16944TIP3    H272248   0.558   4.725  11.622  0.3976 -0.1491 -0.2493
16945TIP3   OH272249   6.453   4.163   3.509 -0.3021 -0.3955  0.6661
16945TIP3    H172250   6.468   4.106   3.433 -1.2600  1.2173 -0.7884
16945TIP3    H272251   6.499   4.244   3.487 -1.5184  0.4867  1.3116
16946TIP3   OH272252   3.312   2.040  11.822 -0.2212  0.1732 -0.4204
16946TIP3    H172253   3.403   2.027  11.850 -0.3473 -0.9484 -0.4972
16946TIP3    H272254   3.265   2.064  11.901  0.2482  1.4108 -0.4901
16947TIP3   OH272255   3.451   0.563   4.929 -1.1914  0.7682  0.4227
16947TIP3    H172256   3.362   0.572   4.896 -1.2931  1.2176  0.8165
16947TIP3    H272257   3.442   0.516   5.012 -0.8801 -0.9060 -0.4382
16948TIP3   OH272258   2.150   2.882  12.862  0.1866  0.5039 -0.0984
16948TIP3    H172259   2.221   2.945  12.876 -0.4175  0.8580  1.6132
16948TIP3    H272260   2.075   2.921  12.907 -0.8180 -0.3622 -0.9811
16949TIP3   OH272261   3.183   5.287   2.345  0.0810 -0.6473  0.0181
16949TIP3    H172262   3.138   5.204   2.359 -1.2001  0.2491  1.6001
16949TIP3    H272263   3.170   5.307   2.253  0.9937 -2.4987 -0.5541
16950TIP3   OH272264   0.290   5.050  15.797 -0.4227  0.2185 -0.3402
16950TIP3    H172265   0.325   5.020  15.713 -2.5241  0.8959 -1.5052
16950TIP3    H272266   0.208   5.001  15.808 -1.9795  2.6701 -0.4550
16951TIP3   OH272267   3.260   3.108   1.172 -0.2612  0.3465 -0.6983
16951TIP3    H172268   3.343   3.086   1.213 -0.1516  0.2867 -0.9534
16951TIP3    H272269   3.234   3.029   1.126  0.7035  1.0663 -2.5862
16952TIP3   OH272270   1.115   4.272   0.758  0.6162  0.3701 -0.1579
16952TIP3    H172271   1.153   4.355   0.787 -2.7174  1.1298  2.8399
16952TIP3    H272272   1.046   4.298   0.696  3.0333 -0.7894 -3.6708
16953TIP3   OH272273   2.225   2.077   5.817 -0.1669 -0.0210  0.2502
16953TIP3    H172274   2.277   2.127   5.754 -0.9620  0.1077 -0.3164
16953TIP3    H272275   2.235   2.123   5.899  0.3712  0.1755  0.0769
16954TIP3   OH272276   6.527   1.322  16.078 -0.4177  0.6264  0.3313
16954TIP3    H172277   6.503   1.414  16.077 -1.5539  0.3458 -1.7318
16954TIP3    H272278   6.478   1.283  16.006 -2.5170 -2.2659  3.0795
16955TIP3   OH272279   1.351   6.465  12.653 -1.0150  0.0534 -0.4190
16955TIP3    H172280   1.445   6.481  12.650 -0.9111 -0.6417 -1.6791
16955TIP3    H272281   1.343   6.375  12.683 -1.2376 -0.1337 -1.0276
16956TIP3   OH272282   3.216   0.558   0.535  0.5059 -0.0495 -0.0659
16956TIP3    H172283   3.226   0.643   0.576 -2.4632 -0.1627  1.1666
16956TIP3    H272284   3.187   0.578   0.446 -0.9484  0.2915  0.4570
16957TIP3   OH272285   6.542   3.644   5.726  0.2029  0.3820 -0.2345
16957TIP3    H172286   6.559   3.555   5.757  0.7484  0.1412 -1.1942
16957TIP3    H272287   6.449   3.642   5.701  0.4523 -0.2176 -1.1789
16958TIP3   OH272288   2.267   6.278  13.091 -0.0022 -0.4160  0.5503
16958TIP3    H172289   2.317   6.201  13.117  0.0153  0.1537  2.3416
16958TIP3    H272290   2.304   6.349  13.143 -0.9511  0.5190 -0.0168
16959TIP3   OH272291   3.046   5.199  13.895  0.0680 -0.3280 -0.3235
16959TIP3    H172292   2.965   5.230  13.936  0.6081 -1.1770  1.4523
16959TIP3    H272293   3.113   5.211  13.962  1.8454  1.9836 -2.2929
16960TIP3   OH272294   5.176   3.364  13.457  0.2120 -0.0835  0.0402
16960TIP3    H172295   5.213   3.276  13.446 -2.4527 -1.6413  2.1668
16960TIP3    H272296   5.099   3.365  13.399 -0.4051  0.4160  0.8481
16961TIP3   OH272297   3.929   5.431   1.766  0.1779 -0.4257 -0.1463
16961TIP3    H172298   3.994   5.475   1.711  0.1834 -0.3886 -0.1100
16961TIP3    H272299   3.967   5.432   1.854 -1.0664  2.0223  0.4386
16962TIP3   OH272300   5.380   3.360   1.370  1.0807 -0.2382 -0.0440
16962TIP3    H172301   5.398   3.346   1.463  1.2587  0.6121  0.0649
16962TIP3    H272302   5.465   3.349   1.327  1.2665  0.6669  0.0702
16963TIP3   OH272303   5.129   5.560   5.233  0.2776  0.2670 -0.0366
16963TIP3    H172304   5.186   5.630   5.265  0.5878  0.6774 -1.3997
16963TIP3    H272305   5.083   5.529   5.311  1.1965  1.0079  0.8307
16964TIP3   OH272306   6.477   0.160   3.468 -0.3785 -0.1614 -0.2297
16964TIP3    H172307   6.447   0.232   3.524  0.8983 -1.1013  1.7549
16964TIP3    H272308   6.572   0.165   3.471 -0.2607 -1.9593  0.0019
16965TIP3   OH272309   0.560   4.145  11.441 -0.2618  0.0739  0.2212
16965TIP3    H172310   0.612   4.071  11.474 -1.5832 -0.0582  2.1821
16965TIP3    H272311   0.586   4.219  11.496 -3.0289 -0.3122  2.2777
16966TIP3   OH272312   3.584   0.632   6.242  0.1113  0.0317 -0.7412
16966TIP3    H172313   3.569   0.723   6.266 -0.6128 -0.2160 -0.2173
16966TIP3    H272314   3.665   0.607   6.287  0.2601  0.3868 -0.8135
16967TIP3   OH272315   3.824   1.293  14.132 -0.5929 -0.5881 -0.2305
16967TIP3    H172316   3.825   1.294  14.228 -2.7339  0.9816 -0.1392
16967TIP3    H272317   3.810   1.201  14.108  0.9854 -1.1535  0.8942
16968TIP3   OH272318   1.264   2.732   1.582  0.4637  0.8117 -0.2631
16968TIP3    H172319   1.262   2.639   1.559  0.5195  0.8047 -0.2386
16968TIP3    H272320   1.352   2.747   1.616  0.4232  0.8509 -0.1744
16969TIP3   OH272321   4.213   2.775  13.607  0.4984  0.2314 -0.1167
16969TIP3    H172322   4.274   2.826  13.554 -0.7100 -0.6306 -2.4392
16969TIP3    H272323   4.237   2.684  13.591  0.9518 -0.0709  1.9429
16970TIP3   OH272324   0.224   2.115   5.550  0.3352 -0.5387  0.1747
16970TIP3    H172325   0.164   2.077   5.486 -0.8914  0.1254  0.8785
16970TIP3    H272326   0.304   2.135   5.501 -0.3372 -0.6444 -0.9874
16971TIP3   OH272327   1.697   2.740  16.629 -0.2005 -0.1592 -0.1909
16971TIP3    H172328   1.644   2.710  16.703  0.5285 -2.8555 -0.6672
16971TIP3    H272329   1.633   2.773  16.566 -1.0301 -0.2238  0.5892
16972TIP3   OH272330   5.531   2.300   5.736  0.5611 -0.0146  0.1673
16972TIP3    H172331   5.457   2.282   5.678  1.2523 -0.2319 -0.6782
16972TIP3    H272332   5.558   2.389   5.713  0.4610  0.1239  0.5851
16973TIP3   OH272333   3.450   2.019   0.533  0.0127 -0.0375 -0.2851
16973TIP3    H172334   3.456   2.096   0.476  1.8891  0.2755  0.2658
16973TIP3    H272335   3.462   1.944   0.475  0.8746  0.2273 -0.4546
16974TIP3   OH272336   2.766   5.422   2.851 -0.1123  0.2147  0.3944
16974TIP3    H172337   2.706   5.366   2.802 -1.4866  0.0437  2.1977
16974TIP3    H272338   2.783   5.495   2.791 -0.2815 -0.8501 -1.0214
16975TIP3   OH272339   3.374   0.671  16.946 -0.5791 -0.1200  0.4607
16975TIP3    H172340   3.302   0.609  16.952 -0.7582  0.2137  2.6866
16975TIP3    H272341   3.333   0.753  16.919 -0.7154 -0.4017 -0.1930
16976TIP3   OH272342   4.408   2.694   1.377  0.0465 -1.0654  0.4025
16976TIP3    H172343   4.459   2.683   1.458 -0.1617 -0.8706  0.5622
16976TIP3    H272344   4.340   2.626   1.383 -0.2272 -0.7762  0.5948
16977TIP3   OH272345   2.196   1.418   0.207 -0.1888 -0.2700  0.6531
16977TIP3    H172346   2.258   1.420   0.280  0.7008 -0.2159 -0.0794
16977TIP3    H272347   2.116   1.457   0.241  0.5866  0.8233  1.2518
16978TIP3   OH272348   4.795   5.002   4.281 -0.0282 -0.1093 -0.1078
16978TIP3    H172349   4.704   5.010   4.252 -0.1551 -1.0242  0.0001
16978TIP3    H272350   4.829   5.091   4.279 -0.9688  0.2643 -0.0255
16979TIP3   OH272351   5.014   4.653  13.305 -0.2093 -0.3012 -0.4283
16979TIP3    H172352   4.963   4.579  13.274 -1.1769  0.9168 -1.8929
16979TIP3    H272353   5.104   4.622  13.307 -0.8373 -2.2758  1.5153
16980TIP3   OH272354   1.303   6.646   0.546 -0.4713  0.3320 -0.7306
16980TIP3    H172355   1.360   6.703   0.597  0.4923 -1.1572 -0.0644
16980TIP3    H272356   1.225   6.634   0.601  0.6683 -1.4685  0.5816
16981TIP3   OH272357   0.315   0.838  14.011 -0.1262  0.0003  0.0327
16981TIP3    H172358   0.240   0.793  14.049  1.0635 -0.8288  1.5275
16981TIP3    H272359   0.349   0.892  14.083  1.5894 -0.8119 -0.1353
16982TIP3   OH272360   5.088   1.349   0.233 -0.1094  0.1463 -0.0006
16982TIP3    H172361   5.013   1.332   0.176 -0.5891 -0.0747  0.6789
16982TIP3    H272362   5.068   1.432   0.275 -0.2694 -0.2178  0.6494
16983TIP3   OH272363   6.357   4.883  11.325 -0.5190  0.2610 -0.4640
16983TIP3    H172364   6.291   4.848  11.265 -0.1921  0.8307 -1.1842
16983TIP3    H272365   6.417   4.810  11.340 -1.3199 -0.2726  0.2304
16984TIP3   OH272366   0.259   2.803   1.275  0.0087 -0.1530  0.1514
16984TIP3    H172367   0.187   2.761   1.228 -0.0179 -0.8888  0.8275
16984TIP3    H272368   0.321   2.829   1.206  0.8136 -2.7654 -0.2427
16985TIP3   OH272369   4.405   2.360  15.549 -0.0029  0.1077  0.0367
16985TIP3    H172370   4.336   2.356  15.483 -2.4663  1.1074  2.3503
16985TIP3    H272371   4.462   2.432  15.521  1.1642 -1.6974 -2.7210
16986TIP3   OH272372   5.876   2.901   5.061  0.1479  0.3652 -0.5183
16986TIP3    H172373   5.832   2.984   5.041 -1.4471 -0.7965 -2.1408
16986TIP3    H272374   5.964   2.912   5.026  0.5866  1.9902  0.9258
16987TIP3   OH272375   2.844   4.258   2.842  0.6153 -0.1169  0.3174
16987TIP3    H172376   2.775   4.310   2.801 -1.3244 -2.2503  0.6601
16987TIP3    H272377   2.870   4.309   2.919 -0.7480  0.6563  0.2927
16988TIP3   OH272378   2.696   1.714  14.479 -0.0727  0.0650  0.4759
16988TIP3    H172379   2.638   1.782  14.444  2.8143  1.9920 -0.9733
16988TIP3    H272380   2.702   1.649  14.408 -0.6654 -0.3043  0.7561
16989TIP3   OH272381   1.715   6.309  12.155  0.0432  0.1413  0.3051
16989TIP3    H172382   1.668   6.247  12.101  1.3461 -0.2491 -0.4338
16989TIP3    H272383   1.721   6.267  12.241 -0.4960 -0.0233  0.2635
16990TIP3   OH272384   6.360   0.102   6.023 -0.7804  0.0139 -0.0468
16990TIP3    H172385   6.333   0.021   6.065 -3.6261  0.1238 -1.4117
16990TIP3    H272386   6.362   0.081   5.929 -0.4497  1.2226 -0.3292
16991TIP3   OH272387   2.644   6.428  15.743  0.4609  0.0108 -0.0867
16991TIP3    H172388   2.628   6.392  15.830  1.3959 -0.9878 -0.3021
16991TIP3    H272389   2.568   6.400  15.691  0.5616 -0.5730  0.0754
16992TIP3   OH272390   0.853   1.826  15.749 -0.3048 -0.0298  0.3812
16992TIP3    H172391   0.822   1.754  15.693 -1.0484  0.3859  0.2486
16992TIP3    H272392   0.774   1.857  15.793 -0.0816  1.0669  0.0225
16993TIP3   OH272393   0.782   3.798   1.930 -0.4237  0.0321  0.2968
16993TIP3    H172394   0.870   3.829   1.952 -0.9519  1.5559  0.3569
16993TIP3    H272395   0.793   3.704   1.915  1.1669  0.1551  0.5237
16994TIP3   OH272396   0.559   1.485   4.278 -0.0569  0.3835 -0.1121
16994TIP3    H172397   0.556   1.581   4.276 -0.5278  0.3692 -0.1616
16994TIP3    H272398   0.628   1.465   4.341  0.6732  0.7570 -0.7546
16995TIP3   OH272399   3.112   2.011  14.614  0.5047  0.3970  0.4630
16995TIP3    H172400   3.046   2.034  14.548  1.4670  1.6989 -0.0762
16995TIP3    H272401   3.194   2.002  14.565  0.2572 -5.1460  0.3918
16996TIP3   OH272402   1.723   3.057  15.527 -0.2069 -0.0313  0.3054
16996TIP3    H172403   1.714   3.065  15.622 -0.5388  2.3587  0.1217
16996TIP3    H272404   1.803   3.106  15.506 -1.2447  1.2197 -0.8408
16997TIP3   OH272405   4.520   1.344   5.828 -0.1507  0.0753  0.3782
16997TIP3    H172406   4.593   1.284   5.839  0.3877  0.4345 -1.0016
16997TIP3    H272407   4.445   1.288   5.809  0.3737 -0.1977 -1.0264
16998TIP3   OH272408   3.018   6.044  13.985  0.3162  0.1386 -0.3499
16998TIP3    H172409   2.985   5.956  13.970  0.3027  0.2485 -1.0173
16998TIP3    H272410   3.090   6.033  14.047 -1.1556 -0.0637  1.3934
16999TIP3   OH272411   0.268   5.866  15.193  0.4601 -0.2422 -0.5913
16999TIP3    H172412   0.295   5.780  15.226 -0.2898  0.0568  0.8750
16999TIP3    H272413   0.196   5.892  15.249  0.3848  1.1659 -1.2933
17000TIP3   OH272414   1.830   4.654   3.780 -0.4107  0.2868  0.2078
17000TIP3    H172415   1.819   4.745   3.807  1.4682  0.7067 -0.3150
17000TIP3    H272416   1.923   4.646   3.758 -0.6803 -1.5657 -0.4691
17001TIP3   OH272417   4.936   3.802   5.411  0.1499  0.1149 -0.3425
17001TIP3    H172418   4.890   3.771   5.489 -0.3138  1.7851  0.0910
17001TIP3    H272419   4.872   3.792   5.340 -0.5779  1.5159  0.0825
17002TIP3   OH272420   5.495   2.121  15.323  0.6683 -0.0707  0.3256
17002TIP3    H172421   5.536   2.207  15.334  0.2117  0.2185 -0.1895
17002TIP3    H272422   5.407   2.132  15.356  0.4270 -0.1761 -0.2639
17003TIP3   OH272423   2.634   5.939   1.319 -0.4725 -0.3168  0.2529
17003TIP3    H172424   2.670   6.023   1.290 -0.8281 -0.8513 -1.8551
17003TIP3    H272425   2.548   5.933   1.276 -1.7090 -0.5650  2.5530
17004TIP3   OH272426   1.464   5.636   4.392  0.3989 -0.6576  0.2271
17004TIP3    H172427   1.510   5.573   4.448 -2.1096 -2.3558  0.5177
17004TIP3    H272428   1.373   5.631   4.419 -0.5926 -0.0327 -2.6536
17005TIP3   OH272429   3.381   4.715   2.382 -0.1754  0.2535 -0.3682
17005TIP3    H172430   3.368   4.717   2.477 -0.2301 -0.8248 -0.3430
17005TIP3    H272431   3.474   4.694   2.372  1.1121  4.8760 -0.5686
17006TIP3   OH272432   0.130   5.482   3.631 -0.0207 -0.3347  0.6897
17006TIP3    H172433   0.196   5.503   3.565  0.4025 -1.3720  0.7503
17006TIP3    H272434   0.150   5.392   3.656 -1.9787 -0.9952  0.0846
17007TIP3   OH272435   0.053   4.398  12.260 -0.4365 -0.3284 -0.3890
17007TIP3    H172436   0.134   4.412  12.309 -0.0753 -3.1222  0.0072
17007TIP3    H272437  -0.015   4.441  12.312  0.3864 -0.5278  0.8767
17008TIP3   OH272438   3.088   5.870   2.543 -0.0325 -0.0744  0.5791
17008TIP3    H172439   3.095   5.793   2.600 -0.8147  0.1706  1.0160
17008TIP3    H272440   3.128   5.941   2.593  0.3543 -0.1048  0.3246
17009TIP3   OH272441   2.844   0.475  14.374  0.0903 -0.4197 -0.8462
17009TIP3    H172442   2.878   0.530  14.303  1.8624 -0.3089  0.0319
17009TIP3    H272443   2.802   0.536  14.434  1.8950  0.0134  0.0355
17010TIP3   OH272444   0.546   2.043   1.498 -0.1915  0.4794  0.1959
17010TIP3    H172445   0.535   2.114   1.434  1.6021  0.9225  0.3308
17010TIP3    H272446   0.482   1.977   1.472 -0.0677  1.0011 -1.5666
17011TIP3   OH272447   5.150   0.432  12.671  0.3424 -0.8902 -0.1707
17011TIP3    H172448   5.120   0.507  12.621 -1.5603 -1.1142  0.5600
17011TIP3    H272449   5.107   0.356  12.631 -0.3181 -1.1987  1.0761
17012TIP3   OH272450   2.879   2.862  10.895 -1.0735 -0.1156  0.2517
17012TIP3    H172451   2.912   2.796  10.835  0.0856 -0.4213  1.1948
17012TIP3    H272452   2.851   2.934  10.838 -0.2734 -0.5086 -0.6582
17013TIP3   OH272453   0.214   4.618   5.856  0.2121 -0.4366  0.3125
17013TIP3    H172454   0.148   4.621   5.786  0.5082 -2.1699 -0.0916
17013TIP3    H272455   0.298   4.615   5.809  0.5429  0.5034  0.8060
17014TIP3   OH272456   3.476   3.130  14.227  0.8198  0.5950 -0.0227
17014TIP3    H172457   3.558   3.080  14.229  0.4847  0.0556  1.3664
17014TIP3    H272458   3.414   3.072  14.182  0.0479 -0.9544  2.8215
17015TIP3   OH272459   2.746   1.265  16.856  0.2132  0.3982 -0.3083
17015TIP3    H172460   2.691   1.240  16.931  0.5256 -2.0542 -0.7887
17015TIP3    H272461   2.829   1.221  16.871  0.2780 -0.1814 -2.0702
17016TIP3   OH272462   0.429   1.021  12.203  0.1549  0.5479  0.1589
17016TIP3    H172463   0.376   1.089  12.246 -3.0986 -1.1059 -0.9360
17016TIP3    H272464   0.393   0.939  12.235  0.3960 -0.6959 -2.4929
17017TIP3   OH272465   2.075   5.424  13.850 -0.0516 -0.5474 -0.1125
17017TIP3    H172466   2.011   5.493  13.832 -1.1338 -1.6459 -0.6456
17017TIP3    H272467   2.137   5.428  13.777 -0.3737 -0.4366 -0.3803
17018TIP3   OH272468   2.172   0.772  10.854 -0.2456 -0.3782 -0.3464
17018TIP3    H172469   2.200   0.682  10.835 -0.0400 -0.3594 -0.1258
17018TIP3    H272470   2.197   0.821  10.776  0.5501 -0.3146 -0.0574
17019TIP3   OH272471   3.699   6.653   4.587 -0.5305  0.0815  0.2013
17019TIP3    H172472   3.783   6.677   4.548 -1.2341  2.5934  0.0809
17019TIP3    H272473   3.668   6.733   4.629 -0.6443 -1.9582  4.5172
17020TIP3   OH272474   4.777   3.946  16.953 -0.2051 -0.0932 -0.0075
17020TIP3    H172475   4.744   3.856  16.959 -0.5260  0.0814  0.8800
17020TIP3    H272476   4.703   4.001  16.976  0.5052  0.3245  1.3608
17021TIP3   OH272477   4.940   0.190   4.798  0.7250 -0.3509 -0.6273
17021TIP3    H172478   5.019   0.135   4.798  1.1331  0.2202 -0.8934
17021TIP3    H272479   4.952   0.249   4.723  0.1539 -0.1005 -0.5279
17022TIP3   OH272480   5.459   6.272   0.378 -0.0307 -0.3368 -0.3400
17022TIP3    H172481   5.424   6.317   0.301 -0.1378 -2.5244 -1.6410
17022TIP3    H272482   5.386   6.218   0.409  0.7884 -1.4341 -0.2852
17023TIP3   OH272483   0.629   0.323  10.579 -0.1364 -0.1377  0.1870
17023TIP3    H172484   0.689   0.358  10.645  0.8365 -0.1125 -0.6745
17023TIP3    H272485   0.632   0.386  10.507 -0.6036 -0.5282 -0.1845
17024TIP3   OH272486   2.163   2.564   0.945  0.3575 -0.4182  0.6283
17024TIP3    H172487   2.247   2.532   0.912  1.1144  1.1143  0.9334
17024TIP3    H272488   2.174   2.659   0.949 -1.5565 -0.1412  0.2777
17025TIP3   OH272489   6.223   3.699   1.843  0.0875 -0.2572 -0.6744
17025TIP3    H172490   6.212   3.793   1.853 -0.4923 -0.0533 -2.7104
17025TIP3    H272491   6.134   3.666   1.827  0.0855 -1.3850  1.2930
17026TIP3   OH272492   3.709   2.427  15.871 -0.0050  0.0796 -0.5859
17026TIP3    H172493   3.744   2.351  15.824  0.4857 -0.0439 -0.0270
17026TIP3    H272494   3.763   2.434  15.950 -1.0110  0.0767  0.1364
17027TIP3   OH272495   1.330   0.463  13.856  0.5737 -0.2433 -0.4922
17027TIP3    H172496   1.277   0.500  13.785 -0.1986 -2.6686 -1.2746
17027TIP3    H272497   1.284   0.383  13.882  1.0949  0.2960  2.4715
17028TIP3   OH272498   6.132   0.518  15.921 -0.3219  0.0116  0.0739
17028TIP3    H172499   6.210   0.481  15.962  1.0219  1.3085 -1.1998
17028TIP3    H272500   6.088   0.565  15.992  0.9462  0.6420  0.4654
17029TIP3   OH272501   1.898   3.685  17.277  0.3629  0.2286 -0.4312
17029TIP3    H172502   1.850   3.715  17.355  0.2280  1.9714 -1.1259
17029TIP3    H272503   1.888   3.590  17.277 -1.0855  0.3454  0.7334
17030TIP3   OH272504   5.539   0.217   6.029  0.8317  0.3458  0.1421
17030TIP3    H172505   5.468   0.189   6.086  1.6837  1.0108  1.5763
17030TIP3    H272506   5.615   0.226   6.087  1.5238  1.8916 -0.9303
17031TIP3   OH272507   6.132   6.422  16.056  0.3710  0.1557  0.5147
17031TIP3    H172508   6.095   6.469  16.131 -0.7560 -0.2407  0.2357
17031TIP3    H272509   6.109   6.475  15.980  0.5885  0.0281  0.3607
17032TIP3   OH272510   4.423   3.511   5.080  0.0102  0.2873 -0.5320
17032TIP3    H172511   4.373   3.581   5.122 -0.0663 -0.4012  0.5529
17032TIP3    H272512   4.506   3.509   5.126  0.3173  0.1656 -1.0738
17033TIP3   OH272513   3.259   1.782   4.003  0.3552 -0.1945 -0.7887
17033TIP3    H172514   3.184   1.737   4.040 -0.1116  0.4167 -0.9684
17033TIP3    H272515   3.229   1.872   3.990  2.2434  1.0891  2.6046
17034TIP3   OH272516   0.455   0.841   4.490 -0.0650  0.3856  0.0706
17034TIP3    H172517   0.422   0.931   4.492 -0.6441  0.1838 -0.3044
17034TIP3    H272518   0.388   0.791   4.444  1.9433  0.4272 -3.2330
17035TIP3   OH272519   2.802   1.036   0.793  0.6854  0.3102 -0.4080
17035TIP3    H172520   2.862   1.007   0.724  0.7134  1.7893 -1.0460
17035TIP3    H272521   2.718   1.048   0.747  0.1853 -0.6400  0.2412
17036TIP3   OH272522   4.470   3.385   4.225  0.8717  0.2194  0.1290
17036TIP3    H172523   4.485   3.382   4.130  0.0644  2.9481 -0.1956
17036TIP3    H272524   4.379   3.356   4.236  0.4381  1.3955 -0.1710
17037TIP3   OH272525   6.121   6.341  17.184 -0.3979  0.0017  0.5584
17037TIP3    H172526   6.043   6.285  17.182 -0.0870 -0.4773  1.4816
17037TIP3    H272527   6.192   6.283  17.212  0.5390  0.1626 -1.3383
17038TIP3   OH272528   4.509   4.160   2.628 -0.2276 -0.3961 -0.3161
17038TIP3    H172529   4.520   4.212   2.708 -1.6125 -1.0866  0.3511
17038TIP3    H272530   4.549   4.076   2.649 -1.1856 -0.8084 -0.0839
17039TIP3   OH272531   6.380   4.388   5.704  0.6603  0.2241  0.3300
17039TIP3    H172532   6.429   4.469   5.692  1.3921 -0.1995  0.4012
17039TIP3    H272533   6.288   4.413   5.693  0.8483  1.1394  0.7745
17040TIP3   OH272534   0.255   6.179   0.001 -1.0410  0.2924  1.3670
17040TIP3    H172535   0.298   6.166  -0.084 -0.6988  1.9150  1.2463
17040TIP3    H272536   0.259   6.093   0.043  0.4667 -0.1136  0.5005
17041TIP3   OH272537   3.037   1.550  13.083  0.1089 -0.0336  0.0620
17041TIP3    H172538   3.069   1.491  13.015 -1.5957 -0.2957 -0.5767
17041TIP3    H272539   2.961   1.593  13.044 -0.1513  0.7585  1.3699
17042TIP3   OH272540   5.162   4.625  14.242 -0.4229  0.3826  0.0471
17042TIP3    H172541   5.176   4.588  14.154 -0.5405 -0.7468  0.4854
17042TIP3    H272542   5.119   4.709  14.226  0.3114  0.5771 -1.0070
17043TIP3   OH272543   5.299   3.784  14.599 -0.1281  0.2070 -0.0195
17043TIP3    H172544   5.312   3.732  14.520 -0.0500 -0.3815  0.3790
17043TIP3    H272545   5.361   3.856  14.591 -0.8454  0.7416 -0.9951
17044TIP3   OH272546   2.392   2.678   4.751  0.6383 -0.1340 -0.5586
17044TIP3    H172547   2.433   2.639   4.828  1.1660  0.0898 -0.7163
17044TIP3    H272548   2.456   2.666   4.682  0.7933  0.9616 -0.6178
17045TIP3   OH272549   2.962   3.757  14.223  0.4995 -0.4017 -0.0612
17045TIP3    H172550   2.899   3.775  14.154  0.7583  0.3801 -0.1046
17045TIP3    H272551   2.955   3.662  14.238 -0.1348 -0.4456 -0.5852
17046TIP3   OH272552   5.401   3.091   4.118 -0.3080 -0.2895 -0.2474
17046TIP3    H172553   5.418   3.094   4.212  1.0323 -0.7137 -0.4539
17046TIP3    H272554   5.378   3.000   4.101  1.6008 -0.7310 -0.6446
17047TIP3   OH272555   2.021   4.095   1.862  0.6678  0.0146  0.1737
17047TIP3    H172556   2.101   4.115   1.910  0.9717  0.9164 -0.6600
17047TIP3    H272557   1.965   4.171   1.877  0.0560 -0.5126  0.5652
17048TIP3   OH272558   4.548   5.867  16.602 -0.3045  0.3151 -0.5310
17048TIP3    H172559   4.536   5.891  16.694 -2.5666 -1.4478 -0.2742
17048TIP3    H272560   4.578   5.776  16.605  2.1018  0.9985 -1.5576
17049TIP3   OH272561   2.924   1.913   5.655 -0.3777 -0.5196 -0.4178
17049TIP3    H172562   2.878   1.829   5.657  0.4703 -1.0853 -2.5568
17049TIP3    H272563   2.992   1.904   5.722 -0.8309 -1.1843 -0.0260
17050TIP3   OH272564   3.329   0.104   6.500 -0.3345  0.1032 -0.1111
17050TIP3    H172565   3.411   0.089   6.452  0.3099 -1.5383  1.3828
17050TIP3    H272566   3.260   0.084   6.437  0.4590 -0.2862 -0.8720
17051TIP3   OH272567   4.232   3.775  17.052  0.2406 -0.3890 -0.0824
17051TIP3    H172568   4.216   3.719  17.127  0.3174 -0.2333  0.0523
17051TIP3    H272569   4.253   3.861  17.091 -0.7029 -0.0444 -0.2948
17052TIP3   OH272570   5.238   5.746  12.296 -0.2709  0.8235  0.8085
17052TIP3    H172571   5.306   5.756  12.228  0.8326 -1.6918  1.4295
17052TIP3    H272572   5.156   5.749  12.247  0.4723 -0.3102 -0.6061
17053TIP3   OH272573   5.189   6.098   2.835 -0.5425 -0.2092 -0.3421
17053TIP3    H172574   5.275   6.122   2.870 -0.3615  2.0802 -2.1780
17053TIP3    H272575   5.205   6.077   2.743 -1.5246 -2.8795  0.0150
17054TIP3   OH272576   2.007   5.730  17.172 -0.7768 -0.8312 -0.6014
17054TIP3    H172577   2.089   5.776  17.190 -1.6530  0.5362  0.0654
17054TIP3    H272578   2.026   5.675  17.096  0.3530  0.6112 -1.4134
17055TIP3   OH272579   1.575   3.958  12.593 -0.3209  0.5395 -0.0268
17055TIP3    H172580   1.634   4.021  12.633  1.3785 -1.2304  0.4663
17055TIP3    H272581   1.491   3.970  12.637  0.4291  1.3159  1.2412
17056TIP3   OH272582   5.442   5.231   2.677 -0.4409 -0.0664 -0.4566
17056TIP3    H172583   5.371   5.221   2.614  0.2228  1.4625 -1.5052
17056TIP3    H272584   5.475   5.320   2.662  1.1868 -0.4684  0.5235
17057TIP3   OH272585   5.910   6.719   6.575 -0.9895 -0.5371  0.2920
17057TIP3    H172586   5.929   6.795   6.631  0.7635  0.2079 -1.2212
17057TIP3    H272587   5.859   6.755   6.503 -0.3811 -0.8325 -0.2939
17058TIP3   OH272588   1.210   1.959  16.690  0.0842  0.0658 -0.1873
17058TIP3    H172589   1.157   1.953  16.611  0.8093  1.1664 -0.7846
17058TIP3    H272590   1.167   1.900  16.752 -2.1070  1.2566 -0.4741
17059TIP3   OH272591   0.133   0.505  13.379  0.3213 -0.7096 -0.0290
17059TIP3    H172592   0.057   0.450  13.361 -0.0103  0.4180 -2.4666
17059TIP3    H272593   0.134   0.513  13.474 -1.7093 -1.9850  0.1721
17060TIP3   OH272594   5.421   1.145  10.881  0.0561 -0.1473  0.7304
17060TIP3    H172595   5.456   1.176  10.965 -1.6428  1.6999  0.8162
17060TIP3    H272596   5.389   1.224  10.838 -1.9186 -1.4549 -0.3138
17061TIP3   OH272597   2.249   4.811   1.877  0.3665 -0.1271 -0.3572
17061TIP3    H172598   2.328   4.851   1.840 -0.7579  1.5865 -1.0344
17061TIP3    H272599   2.186   4.813   1.805 -0.1846 -1.8672  0.0463
17062TIP3   OH272600   4.394   1.663  14.240 -0.0496 -0.2839  0.3443
17062TIP3    H172601   4.462   1.635  14.178  0.1822  0.1557  0.3949
17062TIP3    H272602   4.389   1.592  14.304  0.8598 -0.0028  0.7406
17063TIP3   OH272603   0.965   3.895   4.207 -0.5594 -0.3503 -0.2933
17063TIP3    H172604   1.016   3.856   4.278  0.6753 -1.1916 -1.5914
17063TIP3    H272605   0.874   3.873   4.227 -0.1186 -1.6023  0.3973
17064TIP3   OH272606   5.762   5.547  16.170  0.2733 -0.2561  0.5379
17064TIP3    H172607   5.839   5.494  16.189  0.5364  0.6057  1.9836
17064TIP3    H272608   5.699   5.524  16.238  0.1143  0.7159  0.7333
17065TIP3   OH272609   5.795   4.599   3.905 -0.2234  0.3344  0.5825
17065TIP3    H172610   5.857   4.539   3.948 -0.5502 -0.9381 -0.6366
17065TIP3    H272611   5.725   4.610   3.968  0.7055  0.9039  1.5452
17066TIP3   OH272612   2.643   2.811  16.930  0.2495 -0.3852  0.4705
17066TIP3    H172613   2.607   2.809  16.841  1.2516 -1.7396  0.0763
17066TIP3    H272614   2.675   2.901  16.941 -1.8560  0.4429  0.3065
17067TIP3   OH272615   1.037   5.570  16.923  0.3451 -0.1709  0.2836
17067TIP3    H172616   1.036   5.630  16.848  0.3115  0.9092  1.1165
17067TIP3    H272617   1.116   5.517  16.910 -0.8019 -1.5358 -1.6416
17068TIP3   OH272618   0.469   1.218   6.834 -0.0085  0.5742 -0.3388
17068TIP3    H172619   0.392   1.259   6.794  0.7867  1.0527 -1.4461
17068TIP3    H272620   0.536   1.286   6.832  0.3890  0.2300  0.8039
17069TIP3   OH272621   0.813   4.545   4.729  0.1291 -0.1055  0.3458
17069TIP3    H172622   0.826   4.630   4.769 -0.1744  0.7532 -1.3036
17069TIP3    H272623   0.718   4.535   4.721  0.0395 -1.5478  2.3923
17070TIP3   OH272624   3.893   2.472  17.167  0.3923 -0.2469  0.2808
17070TIP3    H172625   3.864   2.509  17.084 -0.3142 -1.0073  0.1742
17070TIP3    H272626   3.822   2.491  17.228  0.7841  0.0613  0.6520
17071TIP3   OH272627   5.294   5.140  15.555 -0.2227  0.1221  0.2606
17071TIP3    H172628   5.383   5.164  15.581 -1.0086  2.8512  0.6566
17071TIP3    H272629   5.304   5.105  15.466  1.3071 -0.3938  0.6023
17072TIP3   OH272630   1.521   1.873   2.570  0.4259 -0.3325 -0.3876
17072TIP3    H172631   1.595   1.825   2.533 -0.2217 -1.8808  0.2375
17072TIP3    H272632   1.532   1.963   2.537  2.1766 -0.6760 -0.8588
17073TIP3   OH272633   0.421   1.102   4.229 -0.2350  0.3662 -0.6308
17073TIP3    H172634   0.447   1.105   4.321  0.4392 -1.4618 -0.7169
17073TIP3    H272635   0.502   1.118   4.180 -0.5465  1.1063 -0.9178
17074TIP3   OH272636   1.926   0.787   0.232  0.2782  0.1743  0.0384
17074TIP3    H172637   1.859   0.839   0.276 -0.4098 -1.1627  0.6281
17074TIP3    H272638   1.889   0.698   0.230  0.3594  0.1080 -3.0134
17075TIP3   OH272639   3.681   2.579   0.723 -0.0522  0.4525 -0.4505
17075TIP3    H172640   3.722   2.493   0.723  0.3268  0.6294 -0.1074
17075TIP3    H272641   3.598   2.566   0.678 -1.4401 -0.7809  2.1852
17076TIP3   OH272642   6.092   1.129   2.693  0.0833 -0.0384 -0.0911
17076TIP3    H172643   6.005   1.145   2.657  0.0180  0.1653  0.1590
17076TIP3    H272644   6.136   1.214   2.688  0.5529 -0.3147 -0.9844
17077TIP3   OH272645   1.287   5.118  12.646 -0.4965 -0.2024  0.1578
17077TIP3    H172646   1.251   5.166  12.572 -0.2950 -1.3765 -0.7233
17077TIP3    H272647   1.287   5.026  12.618  0.5817 -0.5499  1.2013
17078TIP3   OH272648   0.390   0.175   2.969 -0.2179  0.7037  0.0761
17078TIP3    H172649   0.451   0.200   3.037  0.8586  1.0220 -0.9653
17078TIP3    H272650   0.418   0.225   2.892 -1.7488  0.8039 -0.4536
17079TIP3   OH272651   5.580   1.529  15.727 -0.1158 -0.1920  0.5648
17079TIP3    H172652   5.513   1.590  15.694  0.5740  0.9569  1.2259
17079TIP3    H272653   5.532   1.474  15.790 -1.0182 -1.1785 -0.9214
17080TIP3   OH272654   1.835   4.342  13.994  0.1759  0.5509 -0.0942
17080TIP3    H172655   1.906   4.326  13.932  3.2242 -1.4234  3.4690
17080TIP3    H272656   1.765   4.283  13.967 -0.6110  2.9468 -4.0679
17081TIP3   OH272657   4.942   5.808  14.739 -0.1154 -0.5093  0.6003
17081TIP3    H172658   4.884   5.883  14.730 -2.1734 -2.0730 -0.0370
17081TIP3    H272659   4.903   5.755  14.808 -0.2908 -2.2860 -0.7781
17082TIP3   OH272660   5.965   1.912   6.407 -0.3121 -0.3695 -0.0479
17082TIP3    H172661   5.916   1.933   6.487 -1.6244  0.4375 -1.0242
17082TIP3    H272662   6.020   1.989   6.391  0.1246 -0.6264  0.1839
17083TIP3   OH272663   0.525   0.249   5.369 -0.8663  0.3499 -0.1121
17083TIP3    H172664   0.592   0.318   5.378 -0.3530 -0.1058 -0.3937
17083TIP3    H272665   0.532   0.199   5.451 -2.4561  1.6771  0.8871
17084TIP3   OH272666   2.710   1.169   0.316  0.4744  0.1225 -0.2036
17084TIP3    H172667   2.695   1.077   0.297 -2.2043  0.3520  0.4671
17084TIP3    H272668   2.775   1.196   0.250  1.3102 -2.1748 -0.4301
17085TIP3   OH272669   4.091   0.807  13.882 -0.2855 -0.0403  0.4319
17085TIP3    H172670   4.132   0.828  13.965  0.7941  0.9094 -0.3027
17085TIP3    H272671   4.013   0.864  13.878 -0.3263 -0.0735  0.7817
17086TIP3   OH272672   4.791   3.729  12.458  0.1242 -0.4878 -0.3306
17086TIP3    H172673   4.760   3.692  12.375  0.3511 -1.3703 -0.0270
17086TIP3    H272674   4.716   3.721  12.517 -0.1044  0.3275 -0.5014
17087TIP3   OH272675   2.737   0.756  12.071  0.2894 -0.3105 -0.2403
17087TIP3    H172676   2.683   0.732  12.146 -2.7353  0.9414 -1.8162
17087TIP3    H272677   2.770   0.673  12.037 -0.2827 -1.1050  1.0808
17088TIP3   OH272678   0.410   5.292   5.366  0.2414  0.5143 -0.1439
17088TIP3    H172679   0.420   5.356   5.296 -4.5074  1.6553 -0.1320
17088TIP3    H272680   0.358   5.221   5.327 -0.2942 -0.0754  1.5222
17089TIP3   OH272681   3.728   4.898   5.201 -0.1562 -0.2547 -0.1534
17089TIP3    H172682   3.711   4.974   5.257 -0.4407  0.2017 -0.8433
17089TIP3    H272683   3.791   4.930   5.137  0.0994 -0.7467 -0.1498
17090TIP3   OH272684   5.097   5.079   4.049  0.4317 -0.6178  0.1202
17090TIP3    H172685   5.013   5.112   4.020  1.1147  0.3642 -0.8032
17090TIP3    H272686   5.122   5.014   3.983  1.6357  1.0718 -1.1666
17091TIP3   OH272687   6.724   3.081  11.226 -0.3506 -0.1405 -0.1571
17091TIP3    H172688   6.787   3.009  11.232  2.0447  1.7248 -0.9885
17091TIP3    H272689   6.711   3.092  11.131  1.8869  2.4567 -0.2749
17092TIP3   OH272690   2.828   2.210  16.680  0.2893  0.3445  0.7476
17092TIP3    H172691   2.854   2.178  16.767 -2.4170 -1.6372  0.9627
17092TIP3    H272692   2.811   2.130  16.630 -1.2322  1.4660 -0.5908
17093TIP3   OH272693   0.334   5.188  16.678  0.2120  0.2004  0.3481
17093TIP3    H172694   0.325   5.272  16.633  0.2607  1.5568  2.6925
17093TIP3    H272695   0.428   5.170  16.676  0.2366  0.3579  0.0764
17094TIP3   OH272696   6.110   6.682  12.207 -0.5134  0.3581 -0.3147
17094TIP3    H172697   6.154   6.713  12.127 -0.7332  1.2559 -0.1015
17094TIP3    H272698   6.056   6.609  12.178  1.3096 -0.9518 -0.5409
17095TIP3   OH272699   6.625   0.283  16.085  0.1037  0.1129 -0.4276
17095TIP3    H172700   6.624   0.223  16.159 -2.3038 -1.1649 -1.3869
17095TIP3    H272701   6.661   0.232  16.013  1.4966  1.0395 -0.4401
17096TIP3   OH272702   3.352   3.181   0.597 -0.3938  0.2366 -0.0671
17096TIP3    H172703   3.324   3.124   0.525  0.8785  0.4902 -0.7915
17096TIP3    H272704   3.406   3.248   0.555 -1.6574  1.8842  0.7817
17097TIP3   OH272705   6.444   4.947   5.188  0.9795 -0.1101 -0.5987
17097TIP3    H172706   6.448   4.979   5.278 -1.2030 -1.8102  0.1840
17097TIP3    H272707   6.533   4.916   5.169  0.8797 -2.2977  2.0135
17098TIP3   OH272708   2.776   1.925  13.256  0.5030 -0.0335  0.0488
17098TIP3    H172709   2.705   1.862  13.244  0.8295 -0.2176 -1.1159
17098TIP3    H272710   2.853   1.872  13.273  0.2185  0.2014  2.4248
17099TIP3   OH272711   5.624   2.122   1.103  0.4338  0.3550  0.1146
17099TIP3    H172712   5.590   2.199   1.148 -0.1729 -0.3864  0.9713
17099TIP3    H272713   5.617   2.052   1.168  3.5602  0.1160  0.3487
17100TIP3   OH272714   1.403   4.972   1.982  0.4779  0.2200 -0.7261
17100TIP3    H172715   1.335   5.025   1.942 -0.4000 -0.6757 -0.4730
17100TIP3    H272716   1.365   4.944   2.066  1.8483  1.1559  0.2471
17101TIP3   OH272717   0.104   4.340  16.339  0.7754  0.0942  0.8974
17101TIP3    H172718   0.196   4.327  16.359  1.0909 -0.5378 -0.8104
17101TIP3    H272719   0.102   4.355  16.244 -0.9334 -0.4766  0.8119
17102TIP3   OH272720   2.271   1.095  14.372  0.1921  0.1027  0.0402
17102TIP3    H172721   2.310   1.093  14.459  0.6671 -0.3253 -0.1781
17102TIP3    H272722   2.307   1.018  14.328 -0.0995  0.2782 -0.5114
17103TIP3   OH272723   1.741   2.554   5.438 -0.2677  0.2020  0.4033
17103TIP3    H172724   1.779   2.593   5.358 -0.9021 -1.7224 -0.8956
17103TIP3    H272725   1.647   2.555   5.422 -0.3547 -0.9146  0.7728
17104TIP3   OH272726   4.888   0.854   0.659 -0.2681 -1.0609  0.3633
17104TIP3    H172727   4.817   0.918   0.667  0.7428  0.4648 -1.9283
17104TIP3    H272728   4.890   0.811   0.745 -2.9079 -0.0953  1.0214
17105TIP3   OH272729   1.803   0.121  15.983 -0.4972  0.2732  0.1235
17105TIP3    H172730   1.805   0.172  16.064  1.9193  0.7429 -0.1736
17105TIP3    H272731   1.806   0.186  15.913 -0.4201 -0.1998 -0.3177
17106TIP3   OH272732   0.416   1.474  13.228  0.3152 -0.2411 -0.0021
17106TIP3    H172733   0.419   1.379  13.242 -1.7065 -0.4542 -0.6073
17106TIP3    H272734   0.440   1.485  13.137 -0.3355 -0.2914 -0.1889
17107TIP3   OH272735   1.497   0.433   0.026 -0.1968 -0.3753  0.0753
17107TIP3    H172736   1.520   0.400  -0.061 -0.3328  0.4058 -0.2689
17107TIP3    H272737   1.485   0.354   0.079 -1.7026 -0.9443 -1.0229
17108TIP3   OH272738   6.364   1.896   2.564  0.1605 -0.0703  0.2474
17108TIP3    H172739   6.432   1.933   2.508  0.9552 -0.4434  0.9524
17108TIP3    H272740   6.282   1.920   2.520  0.7521 -0.3011 -1.0334
17109TIP3   OH272741   5.872   5.464   3.273  0.3196 -0.2931  0.3392
17109TIP3    H172742   5.926   5.419   3.208  3.2532  2.1573  0.8590
17109TIP3    H272743   5.869   5.404   3.348  1.5588 -0.8921 -0.0698
17110TIP3   OH272744   4.568   3.978  15.131 -0.0783  0.0783  0.7175
17110TIP3    H172745   4.550   4.071  15.115 -1.7662 -0.0649  1.5130
17110TIP3    H272746   4.503   3.933  15.077 -0.2294 -0.5832  1.4399
17111TIP3   OH272747   4.613   1.901  12.037  0.4715 -0.1444 -0.7087
17111TIP3    H172748   4.691   1.871  12.083 -1.1211 -0.2399  2.1687
17111TIP3    H272749   4.579   1.972  12.092 -1.8424 -0.6142 -1.4296
17112TIP3   OH272750   4.100   6.530   3.294  0.1801  0.3779  0.1392
17112TIP3    H172751   4.020   6.479   3.307  0.3628 -0.2291 -1.0183
17112TIP3    H272752   4.153   6.511   3.372  0.1581 -1.0629 -0.1577
17113TIP3   OH272753   1.480   3.854   3.633  0.1181  0.1451  0.1790
17113TIP3    H172754   1.465   3.767   3.597 -1.9330 -0.0864  1.3852
17113TIP3    H272755   1.394   3.896   3.629  1.0743  2.1850 -0.4650
17114TIP3   OH272756   3.250   3.057   2.592  0.1109  0.3344  0.8294
17114TIP3    H172757   3.287   2.975   2.623  0.3783  0.0077 -0.3140
17114TIP3    H272758   3.294   3.124   2.645  0.5386 -0.2023  1.1668
17115TIP3   OH272759   2.976   5.087   3.455 -0.2692  0.4916  0.2605
17115TIP3    H172760   3.035   5.159   3.474  0.0215  0.3922 -0.2364
17115TIP3    H272761   2.889   5.127   3.450  0.0844  1.1378 -1.7153
17116TIP3   OH272762   2.649   4.665  11.060  0.1590 -0.2932  0.4378
17116TIP3    H172763   2.717   4.631  11.002  2.3126  0.5275  2.3260
17116TIP3    H272764   2.633   4.595  11.123 -0.7272 -0.4536  0.0525
17117TIP3   OH272765   0.836   4.153   0.381  0.5872 -0.3568 -0.1732
17117TIP3    H172766   0.883   4.070   0.388 -0.7239 -1.0558  0.5656
17117TIP3    H272767   0.845   4.193   0.468  0.5199 -0.0953 -0.2852
17118TIP3   OH272768   1.321   6.487   6.344 -0.0077 -0.2453 -0.1427
17118TIP3    H172769   1.299   6.560   6.402  1.4087 -0.6561  0.9426
17118TIP3    H272770   1.239   6.438   6.337 -0.5196  0.4771  0.5357
17119TIP3   OH272771   2.883   1.727   6.010  0.2203 -0.6420 -0.1580
17119TIP3    H172772   2.899   1.808   6.060 -1.1054 -1.0584  1.0164
17119TIP3    H272773   2.945   1.731   5.938  1.1158  0.7768  0.6342
17120TIP3   OH272774   3.758   0.300   1.419 -0.1055 -0.1567  0.0764
17120TIP3    H172775   3.674   0.277   1.458  0.7340  0.1359  2.2163
17120TIP3    H272776   3.815   0.225   1.439  0.3992  0.0829 -0.4452
17121TIP3   OH272777   6.700   3.128   1.444 -0.2862  0.0424  0.1493
17121TIP3    H172778   6.611   3.124   1.409 -0.0096 -1.1651 -0.4800
17121TIP3    H272779   6.731   3.037   1.441  1.2372  0.5442 -0.3929
17122TIP3   OH272780   0.894   6.044  10.807 -0.1850 -0.3588 -0.2597
17122TIP3    H172781   0.858   6.097  10.879 -1.2841  0.3428 -1.2932
17122TIP3    H272782   0.988   6.059  10.811 -0.4006  1.0860 -0.0533
17123TIP3   OH272783   0.974   5.515   5.732 -0.5887  0.4146 -0.7059
17123TIP3    H172784   1.010   5.448   5.791  0.3311 -0.0928 -1.7998
17123TIP3    H272785   0.880   5.515   5.750 -0.4970 -0.6317 -0.1310
17124TIP3   OH272786   2.547   5.288  12.492 -0.6695 -0.0632  0.1052
17124TIP3    H172787   2.590   5.265  12.409 -2.3115  2.3427 -1.5496
17124TIP3    H272788   2.468   5.235  12.494  0.3953 -1.6972  1.2754
17125TIP3   OH272789   5.365   5.276   0.430 -0.1590 -0.3636  0.0991
17125TIP3    H172790   5.432   5.209   0.438  2.1866  1.7961 -0.3000
17125TIP3    H272791   5.334   5.269   0.340  0.3912 -0.6340 -0.0701
17126TIP3   OH272792   1.640   6.311   3.415 -0.0368  0.4703  0.0401
17126TIP3    H172793   1.562   6.303   3.470  0.8961  2.3877  1.7929
17126TIP3    H272794   1.670   6.221   3.402 -0.5745 -0.0954  2.3007
17127TIP3   OH272795   2.306   1.026   2.082  0.5264 -0.1449  0.0078
17127TIP3    H172796   2.326   1.091   2.015  0.2631 -0.9288 -0.8456
17127TIP3    H272797   2.301   0.943   2.035 -2.3651 -0.3585  0.4832
17128TIP3   OH272798   0.126   2.685   6.323 -0.1454  0.0128  0.6647
17128TIP3    H172799   0.063   2.658   6.390 -0.3349 -1.3994 -0.0472
17128TIP3    H272800   0.072   2.726   6.256 -0.1795 -0.2073  0.5562
17129TIP3   OH272801   3.473   0.019   5.557 -0.6522  0.4178  0.2542
17129TIP3    H172802   3.552  -0.029   5.530  0.5053  2.6776 -0.7000
17129TIP3    H272803   3.421   0.025   5.477 -0.5296  1.1512  0.2209
17130TIP3   OH272804   3.961   1.831   4.309 -0.0005 -0.0507  0.3624
17130TIP3    H172805   3.886   1.889   4.315 -1.3892 -1.5645 -1.0709
17130TIP3    H272806   3.923   1.743   4.302  1.9598 -1.0332  1.1772
17131TIP3   OH272807   4.981   0.526   3.867  0.0247 -0.3661 -0.0231
17131TIP3    H172808   4.945   0.495   3.949  1.3081  0.1945  0.7856
17131TIP3    H272809   4.997   0.446   3.816 -1.1578 -0.6874  0.0809
17132TIP3   OH272810   5.262   4.901  14.690 -0.2056  0.2237  0.4619
17132TIP3    H172811   5.229   4.812  14.694 -2.1205  0.7883 -1.2163
17132TIP3    H272812   5.237   4.940  14.774 -0.6582 -0.3926  0.6121
17133TIP3   OH272813   5.392   1.767   3.341  0.1611 -0.0387  0.6039
17133TIP3    H172814   5.469   1.762   3.399  0.9965 -2.0405 -0.5501
17133TIP3    H272815   5.423   1.815   3.265 -0.0076 -0.0450  0.5323
17134TIP3   OH272816   4.796   3.404   0.921  1.0057  0.6527 -0.8923
17134TIP3    H172817   4.735   3.338   0.889  0.3346  0.4139  0.7680
17134TIP3    H272818   4.843   3.361   0.992  0.8279  1.8073 -0.0357
17135TIP3   OH272819   1.425   5.667  14.345  0.0629 -0.2734 -0.4991
17135TIP3    H172820   1.415   5.670  14.250  1.5943 -2.4149 -0.8035
17135TIP3    H272821   1.519   5.679  14.360  0.0326 -1.2795  0.6382
17136TIP3   OH272822   5.170   0.340   0.955  0.5722  0.0134 -0.1792
17136TIP3    H172823   5.167   0.392   0.875 -2.2405 -1.3628 -1.0697
17136TIP3    H272824   5.236   0.272   0.937  1.2942  0.7987 -0.5729
17137TIP3   OH272825   4.106   5.292  14.389 -0.4900 -0.3757  0.5855
17137TIP3    H172826   4.063   5.235  14.453  0.7009 -0.2415  1.5545
17137TIP3    H272827   4.110   5.377  14.432  0.6258 -0.3595  0.5004
17138TIP3   OH272828   2.422   0.447  15.284  0.3443  0.5340 -0.0334
17138TIP3    H172829   2.430   0.469  15.377  1.0023  0.9032 -0.1736
17138TIP3    H272830   2.349   0.500  15.253 -0.1090  0.1441  0.3511
17139TIP3   OH272831   4.195   1.216   3.090  0.3144  0.4631  0.1859
17139TIP3    H172832   4.179   1.243   3.000  0.7186  3.0136  0.7884
17139TIP3    H272833   4.141   1.138   3.102 -1.7515  1.5238 -1.5240
17140TIP3   OH272834   4.300   6.253   1.575 -0.1068  0.3930 -0.2234
17140TIP3    H172835   4.326   6.219   1.660  0.5202 -0.4379 -0.7283
17140TIP3    H272836   4.297   6.348   1.586  0.2651  0.3072  0.6380
17141TIP3   OH272837   1.761   4.814  16.209 -0.3940 -0.4983 -0.0305
17141TIP3    H172838   1.772   4.834  16.302  3.2207  0.3272 -0.4688
17141TIP3    H272839   1.745   4.899  16.168 -1.1054 -0.7401 -0.2642
17142TIP3   OH272840   6.407   1.231   0.347 -0.6658  0.3076 -0.2123
17142TIP3    H172841   6.460   1.297   0.391 -1.6302  0.6743  0.4485
17142TIP3    H272842   6.366   1.278   0.275  0.5322 -0.1760 -1.2350
17143TIP3   OH272843   2.518   2.217   4.139  0.0730  0.0416 -0.3447
17143TIP3    H172844   2.539   2.291   4.082  1.0221  0.6460  0.7222
17143TIP3    H272845   2.462   2.255   4.208  1.6832  0.1250  0.9827
17144TIP3   OH272846   3.493   3.639   3.828 -0.3135 -0.2389  0.3413
17144TIP3    H172847   3.547   3.570   3.788 -0.6827  0.1834 -0.9547
17144TIP3    H272848   3.447   3.679   3.754  1.2928  2.6492  0.7467
17145TIP3   OH272849   4.968   4.392   3.094 -0.2240 -0.0607 -0.0783
17145TIP3    H172850   4.967   4.311   3.146  0.9680  0.6355  1.0919
17145TIP3    H272851   5.043   4.382   3.036 -0.1397  0.1504 -0.0070
17146TIP3   OH272852   0.223   3.286  14.103 -0.3021  0.5562  0.1110
17146TIP3    H172853   0.285   3.296  14.031 -0.0085  0.0853  0.2978
17146TIP3    H272854   0.245   3.203  14.144 -0.5683  0.7399  0.6506
17147TIP3   OH272855   4.657   3.110   2.850  0.2532  0.0703  0.1312
17147TIP3    H172856   4.691   3.118   2.939 -0.3319  2.2424  0.2353
17147TIP3    H272857   4.729   3.142   2.794 -0.1567  0.8810  0.0420
17148TIP3   OH272858   2.821   1.008  10.802  0.0732  0.3478  0.5887
17148TIP3    H172859   2.813   0.915  10.781  0.1615 -0.5415  3.9592
17148TIP3    H272860   2.737   1.046  10.774  0.1239 -0.6723 -1.0267
17149TIP3   OH272861   4.691   4.229  17.032 -0.0637 -0.2636 -0.5976
17149TIP3    H172862   4.717   4.216  17.124 -0.0877  0.5570 -0.4693
17149TIP3    H272863   4.609   4.180  17.024 -0.4809  0.3001  0.0434
17150TIP3   OH272864   2.277   6.182   6.124  0.3579  0.7146 -0.1485
17150TIP3    H172865   2.330   6.251   6.086  2.6937  0.4190  2.2882
17150TIP3    H272866   2.318   6.163   6.209 -0.8286 -2.8497 -0.1734
17151TIP3   OH272867   0.609   2.606   3.742 -0.1376 -0.5166  0.1714
17151TIP3    H172868   0.700   2.607   3.713  0.6176 -0.4842  2.3182
17151TIP3    H272869   0.559   2.585   3.664  1.5932  0.7159 -1.3517
17152TIP3   OH272870   2.808   0.817   2.325 -0.0207  0.6374  0.4448
17152TIP3    H172871   2.738   0.783   2.270  0.2428  1.0973 -0.1801
17152TIP3    H272872   2.809   0.758   2.401  0.9641 -1.2671 -0.9809
17153TIP3   OH272873   4.856   3.064  13.408  0.6057 -0.3330 -0.7232
17153TIP3    H172874   4.903   3.040  13.328  2.6533 -1.9415  0.8343
17153TIP3    H272875   4.782   3.004  13.411  0.1482  0.1642 -1.7020
17154TIP3   OH272876   5.743   5.730  16.944 -0.6475 -0.0017  0.0448
17154TIP3    H172877   5.802   5.732  16.868 -0.1402  1.5456  0.4435
17154TIP3    H272878   5.782   5.665  17.003 -1.3481 -1.6293 -1.2090
17155TIP3   OH272879   0.243   0.655  17.128  0.2170 -0.3029 -0.5799
17155TIP3    H172880   0.219   0.601  17.204  0.4710  1.1073  0.5524
17155TIP3    H272881   0.298   0.598  17.074 -0.6549 -1.6072 -0.1381
17156TIP3   OH272882   0.190   6.386  15.910  0.0742  0.7927 -0.3555
17156TIP3    H172883   0.243   6.401  15.989 -0.7120  0.6917  0.2033
17156TIP3    H272884   0.238   6.431  15.841  1.1220  0.3418  0.0457
17157TIP3   OH272885   2.985   1.194  13.963  0.0738 -0.0940 -0.1893
17157TIP3    H172886   3.046   1.206  14.035  0.0805 -0.1205 -0.1904
17157TIP3    H272887   2.924   1.126  13.993 -0.2869  0.3198  0.0259
17158TIP3   OH272888   0.130   4.137   5.786  0.4509 -0.3589 -0.5293
17158TIP3    H172889   0.088   4.206   5.734 -0.4611 -0.0506  0.5975
17158TIP3    H272890   0.205   4.111   5.733 -1.6140 -1.5716 -3.0883
17159TIP3   OH272891   2.567   3.573  13.524  0.6802 -0.0847  0.5860
17159TIP3    H172892   2.474   3.581  13.502  0.8303  1.3252  0.3667
17159TIP3    H272893   2.611   3.567  13.440  0.9472  1.5982  0.5576
17160TIP3   OH272894   2.380   1.402   0.405 -0.5228  0.3715  0.2882
17160TIP3    H172895   2.325   1.387   0.481 -0.6878 -0.9190 -0.0565
17160TIP3    H272896   2.456   1.450   0.439  0.1989 -1.5806  1.6238
17161TIP3   OH272897   0.988   4.061   2.845 -0.1349 -0.4659  0.6808
17161TIP3    H172898   0.901   4.037   2.878 -1.0242  0.5503 -0.7693
17161TIP3    H272899   0.976   4.149   2.809  1.8258  0.2184  1.5713
17162TIP3   OH272900   0.095   1.827  11.684  0.7342 -0.1126  0.5258
17162TIP3    H172901   0.009   1.806  11.647 -0.0677  2.4406  0.7437
17162TIP3    H272902   0.154   1.764  11.644 -1.1336 -1.5524 -0.1008
17163TIP3   OH272903   3.331   1.395   2.939 -0.1968  0.2497  0.2621
17163TIP3    H172904   3.405   1.410   2.998 -0.6742  0.7648  0.7428
17163TIP3    H272905   3.370   1.398   2.852  0.2336  1.3825  0.4658
17164TIP3   OH272906   0.014   4.452  16.607 -0.0094 -0.4363  0.2393
17164TIP3    H172907   0.031   4.436  16.514 -0.1896  0.8244 -0.0284
17164TIP3    H272908  -0.072   4.494  16.608 -0.8788 -2.1535  1.1502
17165TIP3   OH272909   4.038   6.161   4.984 -0.3903  0.5086  0.3475
17165TIP3    H172910   4.069   6.181   5.072  0.4076  0.0499  0.1880
17165TIP3    H272911   4.082   6.225   4.928  0.5054 -0.2948  0.0914
17166TIP3   OH272912   4.776   2.133   5.998 -0.0800 -0.3738  0.0125
17166TIP3    H172913   4.844   2.187   5.956 -0.0007  0.6631  1.3796
17166TIP3    H272914   4.705   2.194   6.017 -0.1772 -0.8207  1.2042
17167TIP3   OH272915   5.603   6.586   4.195  0.0701 -0.3036 -0.1399
17167TIP3    H172916   5.689   6.583   4.152 -0.0834  1.6174 -0.6671
17167TIP3    H272917   5.611   6.524   4.267  1.7955 -0.4341 -0.3836
17168TIP3   OH272918   3.885   4.091   2.814 -0.2243 -0.1448  0.0870
17168TIP3    H172919   3.969   4.050   2.835  0.4265  1.3313  0.4652
17168TIP3    H272920   3.901   4.185   2.821 -1.8437  0.1811 -0.1167
17169TIP3   OH272921   3.167   6.285  16.043 -0.2393 -0.0958 -0.0155
17169TIP3    H172922   3.140   6.360  15.990  0.7062 -1.0505 -1.9503
17169TIP3    H272923   3.085   6.237  16.061 -0.7678  1.0639  0.7536
17170TIP3   OH272924   6.475   5.484  12.826 -0.2543  0.3609  0.4023
17170TIP3    H172925   6.446   5.519  12.742  1.8220 -0.7607 -0.8856
17170TIP3    H272926   6.559   5.527  12.842  0.1907 -0.6889  1.0113
17171TIP3   OH272927   1.080   6.029   1.831 -0.1235 -0.2963 -0.4115
17171TIP3    H172928   1.148   5.995   1.889  0.6709  3.8869  1.5070
17171TIP3    H272929   1.100   5.991   1.746  1.4755 -3.1315  1.0924
17172TIP3   OH272930   5.841   4.008   2.292 -0.1630 -0.4728  0.2856
17172TIP3    H172931   5.813   4.059   2.369 -0.4534  0.4320 -0.4083
17172TIP3    H272932   5.759   3.978   2.253 -0.1982  1.4867 -1.2822
17173TIP3   OH272933   6.561   5.057   5.427  0.4092 -0.0169 -0.4611
17173TIP3    H172934   6.638   5.000   5.431 -0.9458 -1.9667 -0.2179
17173TIP3    H272935   6.535   5.068   5.518 -0.2477 -0.3419 -0.6043
17174TIP3   OH272936   0.199   4.657  12.601 -0.0362 -0.2347  0.1232
17174TIP3    H172937   0.104   4.655  12.610  0.0149  0.8687  1.3035
17174TIP3    H272938   0.215   4.657  12.507 -1.2283  0.2270 -0.0897
17175TIP3   OH272939   3.340   2.403  11.568 -1.4922  0.1542  0.1045
17175TIP3    H172940   3.395   2.414  11.646 -1.2535 -0.2633  0.0024
17175TIP3    H272941   3.310   2.312  11.573 -2.5062  0.4853  0.3695
17176TIP3   OH272942   5.626   4.871   1.697 -0.3263 -0.1944  0.2748
17176TIP3    H172943   5.715   4.907   1.698 -0.6797  0.7592 -0.9429
17176TIP3    H272944   5.581   4.920   1.629 -1.7119 -0.8815  0.6652
17177TIP3   OH272945   4.725   1.770  15.696 -0.1950  0.0423  0.5096
17177TIP3    H172946   4.675   1.849  15.715 -0.3039  0.1748 -0.2959
17177TIP3    H272947   4.817   1.796  15.709  0.0001  1.1389 -2.4157
17178TIP3   OH272948   0.313   0.511  14.874  0.0143  0.4108  0.0434
17178TIP3    H172949   0.367   0.556  14.939 -0.4203  0.9445  0.0355
17178TIP3    H272950   0.223   0.525  14.903 -0.2945  2.0352 -1.5222
17179TIP3   OH272951   1.188   4.681   3.364  0.2605 -0.6639 -0.1529
17179TIP3    H172952   1.197   4.619   3.437 -0.1463  0.2490  0.7023
17179TIP3    H272953   1.276   4.716   3.352 -0.0890  0.9725  1.5696
17180TIP3   OH272954   4.166   3.314   5.540 -0.4306 -0.3188  0.3682
17180TIP3    H172955   4.121   3.230   5.542 -0.4024 -0.3181  1.2323
17180TIP3    H272956   4.168   3.338   5.447 -2.7005 -0.0301  0.3359
17181TIP3   OH272957   3.752   6.260   5.324 -0.2370  0.0516  0.0498
17181TIP3    H172958   3.840   6.278   5.357  0.5329 -1.5737 -0.9643
17181TIP3    H272959   3.726   6.340   5.279  0.4793  0.7413  0.8254
17182TIP3   OH272960   6.395   3.289  11.475  0.4431  0.0431  0.2293
17182TIP3    H172961   6.352   3.276  11.391  1.7225 -0.4660 -0.3594
17182TIP3    H272962   6.481   3.326  11.454  0.7737 -0.0558  1.3149
17183TIP3   OH272963   2.227   2.277  16.694  0.5652 -0.1851 -0.0431
17183TIP3    H172964   2.178   2.343  16.645  1.6906  0.7880  0.0791
17183TIP3    H272965   2.168   2.250  16.764 -0.9296 -1.3174 -1.6487
17184TIP3   OH272966   2.098   4.244  16.478  0.6073  0.3372 -0.4096
17184TIP3    H172967   2.120   4.331  16.445  1.4587  0.4594  0.4293
17184TIP3    H272968   2.102   4.253  16.573 -2.5870  0.2072 -0.1704
17185TIP3   OH272969   1.443   2.703   4.516 -0.6023 -0.0895  1.5900
17185TIP3    H172970   1.445   2.608   4.518 -1.1968 -0.1173  1.2500
17185TIP3    H272971   1.498   2.730   4.589  0.9964 -0.6716  0.6522
17186TIP3   OH272972   1.964   5.165   3.017 -0.1972 -0.0015  0.5781
17186TIP3    H172973   1.981   5.083   3.063  0.7863  0.2395  0.6737
17186TIP3    H272974   1.966   5.232   3.085 -2.6830 -0.0404  0.7665
17187TIP3   OH272975   5.741   3.083   6.073  0.2436 -0.1389  0.2293
17187TIP3    H172976   5.799   3.155   6.046 -1.1796  1.7410  1.8921
17187TIP3    H272977   5.793   3.034   6.137  1.1709 -0.5463 -0.7966
17188TIP3   OH272978   3.854   2.999  15.620  0.8593  0.1392  0.0432
17188TIP3    H172979   3.816   2.911  15.618 -1.4003  1.0389  0.4513
17188TIP3    H272980   3.829   3.034  15.705 -0.2293  1.9411 -0.9507
17189TIP3   OH272981   5.500   6.406  13.274  0.2995 -0.7691 -0.1663
17189TIP3    H172982   5.493   6.482  13.217 -0.4814 -0.9568 -0.3317
17189TIP3    H272983   5.589   6.373  13.260  0.6326  0.0760 -0.1225
17190TIP3   OH272984   3.326   6.625   3.135 -0.1895  0.0805 -0.2183
17190TIP3    H172985   3.337   6.716   3.106 -1.9065  1.1116  2.0432
17190TIP3    H272986   3.335   6.574   3.055  1.8931  2.1034 -1.4156
17191TIP3   OH272987   2.583   0.290  14.340  0.2874  0.3214 -0.3184
17191TIP3    H172988   2.646   0.350  14.299 -1.4111  0.9567 -2.1594
17191TIP3    H272989   2.498   0.331  14.326 -0.7044 -1.2054  0.8418
17192TIP3   OH272990   6.086   3.384   5.566  0.1322  0.0800  0.3461
17192TIP3    H172991   6.037   3.465   5.577 -3.2975 -2.0054  2.3534
17192TIP3    H272992   6.054   3.348   5.483  0.1015 -0.1461  0.4552
17193TIP3   OH272993   0.513   5.566   1.227 -0.2438 -0.1679 -0.1909
17193TIP3    H172994   0.447   5.574   1.158 -1.2367 -1.9652  0.5080
17193TIP3    H272995   0.522   5.655   1.261 -0.0049  0.6954 -2.3384
17194TIP3   OH272996   3.993   2.514   4.554  0.3215 -0.4036 -0.3958
17194TIP3    H172997   3.995   2.421   4.535  1.3028 -0.0022 -2.6422
17194TIP3    H272998   3.981   2.555   4.468 -0.4083  1.5341  0.5686
17195TIP3   OH272999   1.619   2.609  15.334  0.1866 -0.3100  0.3782
17195TIP3    H173000   1.666   2.559  15.267 -1.0161  3.0119 -3.3192
17195TIP3    H273001   1.688   2.652  15.385  1.1798 -0.5877 -0.7013
17196TIP3   OH273002   2.255   5.931   4.330 -0.2454  0.5616  0.7242
17196TIP3    H173003   2.175   5.969   4.368 -1.2564 -0.3158 -0.4569
17196TIP3    H273004   2.254   5.840   4.358  0.2720  0.5105  0.5830
17197TIP3   OH273005   0.921   6.474   0.247 -0.2000  0.1784  0.0196
17197TIP3    H173006   0.861   6.489   0.320 -0.6369  1.0825 -0.5132
17197TIP3    H273007   0.863   6.454   0.172  0.2549 -1.1811  0.0024
17198TIP3   OH273008   6.094   3.688   3.282  0.4576 -0.0641  0.0660
17198TIP3    H173009   6.054   3.755   3.227 -0.6500 -0.6006  0.1840
17198TIP3    H273010   6.131   3.737   3.356  0.6697  0.5147 -0.4123
17199TIP3   OH273011   1.894   4.919   6.161  0.1042  0.2662 -0.0961
17199TIP3    H173012   1.832   4.905   6.233  1.1132  0.4359  0.8227
17199TIP3    H273013   1.980   4.913   6.202  0.6933  0.5388 -1.2655
17200TIP3   OH273014   4.486   3.612  15.740 -0.0762  0.5210 -0.2196
17200TIP3    H173015   4.400   3.651  15.726 -0.1946  0.6608  0.8367
17200TIP3    H273016   4.497   3.610  15.835  1.6111  1.6703 -0.3307
17201TIP3   OH273017   0.728   0.282   2.738 -0.0778 -0.3736 -0.4646
17201TIP3    H173018   0.635   0.283   2.714  0.0342 -0.6642 -0.9114
17201TIP3    H273019   0.734   0.215   2.806 -0.1525 -0.5313 -0.6124
17202TIP3   OH273020   4.635   3.020   0.781 -0.1945 -0.5623 -0.2380
17202TIP3    H173021   4.577   3.090   0.810 -1.8253 -1.2240 -1.6725
17202TIP3    H273022   4.597   2.940   0.818 -0.6412 -1.0808 -1.7377
17203TIP3   OH273023   5.920   4.181  13.566 -0.1632 -0.6973  0.2030
17203TIP3    H173024   5.896   4.256  13.620  1.4993 -0.3970  0.5800
17203TIP3    H273025   5.847   4.120  13.576 -1.9499  1.1705 -0.7612
17204TIP3   OH273026   6.404   3.978  13.257  0.3045  0.0793  0.2772
17204TIP3    H173027   6.428   4.036  13.185  0.3114  1.4700  1.3538
17204TIP3    H273028   6.480   3.979  13.315 -0.4457  0.5894  1.2771
17205TIP3   OH273029   4.727   6.584  17.078 -0.4510  0.5345  1.0150
17205TIP3    H173030   4.644   6.629  17.064  0.4892  1.7932 -0.9587
17205TIP3    H273031   4.726   6.511  17.015  0.2082  0.9891  0.4624
17206TIP3   OH273032   4.522   2.970  15.786  0.1663  0.0293  0.5538
17206TIP3    H173033   4.464   2.959  15.861  3.3339 -2.0333  2.9762
17206TIP3    H273034   4.535   3.064  15.778  0.5062  0.2842  3.3220
17207TIP3   OH273035   0.829   0.706  10.911 -0.0340 -0.0807 -0.5205
17207TIP3    H173036   0.922   0.718  10.928 -0.3308  0.6808  0.7011
17207TIP3    H273037   0.820   0.715  10.817  1.0859  0.1791 -0.6121
17208TIP3   OH273038   3.858   2.845   4.268  0.2456  0.8977 -0.8391
17208TIP3    H173039   3.771   2.874   4.240  0.6781  2.6579 -0.4438
17208TIP3    H273040   3.919   2.895   4.215  1.0307  1.3090  0.4043
17209TIP3   OH273041   4.787   3.128   1.178  0.3087  0.0837  0.2403
17209TIP3    H173042   4.718   3.068   1.149  1.2167 -1.7077  1.5627
17209TIP3    H273043   4.760   3.154   1.266  0.2558  1.1438 -0.0730
17210TIP3   OH273044   2.251   4.186   1.542 -0.2116  0.1777  0.2050
17210TIP3    H173045   2.221   4.132   1.615 -1.3891  0.6678  0.1072
17210TIP3    H273046   2.196   4.159   1.468  0.9916 -0.3443 -0.5344
17211TIP3   OH273047   5.212   3.148   0.069  0.8393 -0.2048  0.2043
17211TIP3    H173048   5.268   3.118  -0.003 -0.7934 -1.6400 -0.5270
17211TIP3    H273049   5.180   3.233   0.040 -0.7218 -1.2610 -1.3849
17212TIP3   OH273050   3.979   4.281  13.338  0.3415  0.3026 -0.4458
17212TIP3    H173051   3.911   4.241  13.283 -0.2548  0.2647  0.3096
17212TIP3    H273052   3.962   4.247  13.425  0.1663  1.7753  0.1170
17213TIP3   OH273053   0.739   1.622   0.445 -0.3660 -0.3153 -0.2770
17213TIP3    H173054   0.792   1.683   0.497 -0.8555  1.7089 -2.0092
17213TIP3    H273055   0.651   1.659   0.448 -0.6560 -0.8841 -1.4653
17214TIP3   OH273056   2.027   1.826  14.767  0.5732 -0.2931 -0.0343
17214TIP3    H173057   2.117   1.816  14.799  0.0101 -1.9997  1.1227
17214TIP3    H273058   1.979   1.754  14.807 -1.4983  1.0297 -0.0215
17215TIP3   OH273059   3.773   0.859  14.814 -0.5481  0.6341  0.1334
17215TIP3    H173060   3.817   0.893  14.891 -0.2668  0.2931  0.1264
17215TIP3    H273061   3.843   0.842  14.751 -0.6754  0.0311  0.1472
17216TIP3   OH273062   1.443   2.072  14.000 -0.2812 -0.2994  0.3387
17216TIP3    H173063   1.428   2.088  13.907 -1.8910  1.2042  0.8020
17216TIP3    H273064   1.375   2.122  14.044 -0.3148 -1.9489  2.3049
17217TIP3   OH273065   2.112   1.279  13.965 -0.5369  0.0955 -0.2365
17217TIP3    H173066   2.207   1.280  13.952 -0.4994  1.5290 -0.0261
17217TIP3    H273067   2.077   1.243  13.883  0.1379  0.6173 -0.7708
17218TIP3   OH273068   3.069   5.373   6.305  0.0121  0.3709  0.5696
17218TIP3    H173069   3.003   5.372   6.374 -1.4827 -4.0728 -0.5727
17218TIP3    H273070   3.151   5.351   6.350 -0.0533  1.7429  1.4180
17219TIP3   OH273071   4.209   1.429  10.789 -0.2421 -0.6293  0.2949
17219TIP3    H173072   4.284   1.447  10.846  0.0677  2.2298 -0.8615
17219TIP3    H273073   4.248   1.399  10.707 -0.2980  1.1784 -0.4179
17220TIP3   OH273074   2.261   2.662  13.142 -0.0455  0.4345 -0.5155
17220TIP3    H173075   2.180   2.710  13.155  0.4584  1.1875 -0.1037
17220TIP3    H273076   2.327   2.729  13.126  0.3954 -0.1983 -1.4435
17221TIP3   OH273077   1.458   4.034   2.731 -0.2234  0.4871  0.1662
17221TIP3    H173078   1.431   3.964   2.790 -2.0527 -1.0494 -2.2897
17221TIP3    H273079   1.517   4.088   2.783  2.2877 -3.4570  1.9521
17222TIP3   OH273080   1.267   1.572  17.255 -0.0223  0.2187 -0.0475
17222TIP3    H173081   1.206   1.585  17.182 -1.4124 -0.0049  1.0213
17222TIP3    H273082   1.313   1.656  17.264  0.8522 -0.0327 -1.7328
17223TIP3   OH273083   6.670   4.857  15.642  0.6828  0.1232  0.2184
17223TIP3    H173084   6.589   4.902  15.665  1.3684  0.5102  2.0525
17223TIP3    H273085   6.679   4.871  15.548 -0.4896  1.5633  0.2814
17224TIP3   OH273086   4.833   2.665  15.061  0.3538 -0.4497  0.2535
17224TIP3    H173087   4.825   2.696  14.971  2.2100 -1.2067 -0.2160
17224TIP3    H273088   4.905   2.716  15.098  0.3516 -0.9337  0.9463
17225TIP3   OH273089   4.801   3.948   4.951  0.0354 -0.6429  0.4897
17225TIP3    H173090   4.814   3.926   4.859 -0.6086  1.0430 -0.0565
17225TIP3    H273091   4.889   3.958   4.987  0.2902 -1.2634  0.0521
17226TIP3   OH273092   2.682   4.053  13.353 -0.3513 -0.0228 -0.1948
17226TIP3    H173093   2.721   4.006  13.426  0.2902  0.1752 -0.4058
17226TIP3    H273094   2.736   4.132  13.343 -1.0864  0.4962 -0.1848
17227TIP3   OH273095   4.651   6.353   6.163  0.0092  0.1005  0.3316
17227TIP3    H173096   4.675   6.265   6.190  0.8343 -0.0822 -0.9100
17227TIP3    H273097   4.555   6.351   6.156 -0.0170 -0.5281  0.8485
17228TIP3   OH273098   4.640   4.657  15.077 -0.1632 -0.0707  1.1950
17228TIP3    H173099   4.583   4.720  15.034  2.4036  0.6765 -1.4518
17228TIP3    H273100   4.728   4.679  15.045  1.1204 -3.6689  1.8193
17229TIP3   OH273101   2.471   4.617  16.350 -0.0776 -0.1854 -0.0267
17229TIP3    H173102   2.423   4.604  16.268  1.2906  1.9966 -1.2675
17229TIP3    H273103   2.423   4.686  16.396  0.5145  0.3366 -0.1723
17230TIP3   OH273104   0.624   0.149  15.569  0.0894  0.7339  0.3855
17230TIP3    H173105   0.659   0.236  15.550 -0.2161  0.5736 -1.0631
17230TIP3    H273106   0.584   0.121  15.486  0.5108 -0.9387  0.7096
17231TIP3   OH273107   4.508   3.157  14.225 -0.2204  0.0952  0.0894
17231TIP3    H173108   4.470   3.082  14.179 -1.5331  0.3425  0.7353
17231TIP3    H273109   4.572   3.193  14.163 -0.4138 -0.8523 -0.6800
17232TIP3   OH273110   0.366   1.999  13.901 -0.2664  0.0371  0.0182
17232TIP3    H173111   0.329   2.017  13.988  1.1124  1.4167  0.3559
17232TIP3    H273112   0.370   2.084  13.859  1.6147 -0.1850 -0.3463
17233TIP3   OH273113   3.050   4.583  15.462  0.1249  0.0356  0.2418
17233TIP3    H173114   3.130   4.626  15.492 -0.2478  0.7030  0.2922
17233TIP3    H273115   3.075   4.539  15.381  0.3085  1.0633 -0.2689
17234TIP3   OH273116   5.555   1.349  12.005  0.2800  0.5011 -0.0223
17234TIP3    H173117   5.549   1.271  12.060 -1.2281 -0.7810 -1.8812
17234TIP3    H273118   5.463   1.374  11.990  0.6990  1.5964 -0.8866
17235TIP3   OH273119   0.194   2.928   5.853 -0.5778 -0.0330  0.5633
17235TIP3    H173120   0.104   2.940   5.882 -0.9373  1.3577 -0.9792
17235TIP3    H273121   0.224   3.015   5.830 -0.6708 -0.9286 -3.9345
17236TIP3   OH273122   1.918   6.561  13.439  0.3829 -0.3141 -0.4391
17236TIP3    H173123   1.997   6.550  13.492  0.3107 -0.8232 -0.4316
17236TIP3    H273124   1.951   6.576  13.350  0.4852 -1.0274 -0.5249
17237TIP3   OH273125   3.150   1.516   5.616 -0.2017 -0.1603  0.6336
17237TIP3    H173126   3.154   1.542   5.524 -1.7132 -3.8081 -0.6602
17237TIP3    H273127   3.218   1.450   5.626  0.7159  0.9834  2.5184
17238TIP3   OH273128   1.183   4.149  16.118 -0.4099 -0.0294 -0.4935
17238TIP3    H173129   1.268   4.157  16.074 -0.3897  0.4638 -0.3656
17238TIP3    H273130   1.142   4.073  16.075  0.4356 -0.8122  0.0305
17239TIP3   OH273131   3.517   0.019   4.270  0.1601  0.6041 -0.1088
17239TIP3    H173132   3.425  -0.001   4.250  0.6462 -1.7091 -0.3248
17239TIP3    H273133   3.561   0.015   4.186  0.6878  0.2556  0.1785
17240TIP3   OH273134   3.014   4.136  13.932 -0.2484 -0.1937 -0.1719
17240TIP3    H173135   2.941   4.147  13.871 -0.3277 -0.1280 -0.0647
17240TIP3    H273136   2.973   4.122  14.017 -0.1378 -0.3178 -0.1378
17241TIP3   OH273137   5.850   4.072   1.547 -0.0157 -0.1273  0.2498
17241TIP3    H173138   5.809   4.156   1.566 -0.3997 -0.2571  0.0069
17241TIP3    H273139   5.856   4.069   1.451  0.9316  0.0655  0.2963
17242TIP3   OH273140   2.967   5.538   2.529 -0.4510  0.8815  0.3867
17242TIP3    H173141   3.013   5.539   2.445 -0.4431  0.2345  0.3783
17242TIP3    H273142   2.884   5.584   2.512 -2.2033 -2.4568 -1.0161
17243TIP3   OH273143   4.543   4.471  16.469 -0.4629  0.4037 -0.1906
17243TIP3    H173144   4.603   4.512  16.407 -1.1838 -0.6159 -1.6276
17243TIP3    H273145   4.600   4.421  16.528  0.1902  0.7998 -0.4799
17244TIP3   OH273146   3.817   6.659  15.237 -0.2144 -0.6421  0.6749
17244TIP3    H173147   3.814   6.597  15.310  0.6054 -2.0579 -0.4482
17244TIP3    H273148   3.726   6.664  15.207 -1.4422  3.0891  4.1975
17245TIP3   OH273149   2.936   4.607   2.861  0.2449  0.1254 -0.3994
17245TIP3    H173150   2.927   4.688   2.912  1.2668  0.2342 -0.3813
17245TIP3    H273151   2.927   4.537   2.925  0.7387  0.2477 -0.1971
17246TIP3   OH273152   2.534   6.685   1.764 -1.0865 -0.0144 -0.2052
17246TIP3    H173153   2.581   6.604   1.745 -0.0626  0.3957  0.5244
17246TIP3    H273154   2.584   6.753   1.719 -0.3334  0.5695  1.4255
17247TIP3   OH273155   2.326   6.702  13.451 -0.0124 -0.0217  0.3610
17247TIP3    H173156   2.280   6.751  13.519  0.4088 -0.0272  0.6558
17247TIP3    H273157   2.267   6.703  13.376 -1.8933 -2.6372  1.6711
17248TIP3   OH273158   0.619   1.770  16.700 -0.3467 -0.5238 -0.3963
17248TIP3    H173159   0.646   1.679  16.711  1.7147 -0.0193 -0.8956
17248TIP3    H273160   0.629   1.809  16.787 -1.1500 -0.7462 -0.2011
17249TIP3   OH273161   6.679   6.541  13.181  0.2201 -0.0676  0.3170
17249TIP3    H173162   6.702   6.568  13.092  0.8521 -0.5685  0.3183
17249TIP3    H273163   6.632   6.458  13.169  1.2518 -0.7090  0.4852
17250TIP3   OH273164   2.386   1.242   3.207 -0.0520 -0.1096  0.0280
17250TIP3    H173165   2.331   1.294   3.267  0.2438  0.3265 -0.0768
17250TIP3    H273166   2.475   1.266   3.230  0.1122 -0.9557  0.3193
17251TIP3   OH273167   1.490   5.481   3.111  0.4563  0.9186  0.1593
17251TIP3    H173168   1.566   5.470   3.169  0.1460  0.8617  0.5665
17251TIP3    H273169   1.503   5.566   3.069  1.7820  0.0252 -1.3466
17252TIP3   OH273170   1.788   1.167   3.048 -0.6465  0.0174 -0.3272
17252TIP3    H173171   1.727   1.241   3.045 -0.0767  0.5114 -0.0513
17252TIP3    H273172   1.872   1.204   3.020  0.2153  0.0718  2.0752
17253TIP3   OH273173   2.968   2.819   4.800  0.1026  0.0231  0.0609
17253TIP3    H173174   2.918   2.745   4.833  0.2014  0.6610  1.7056
17253TIP3    H273175   2.903   2.888   4.786  0.3804  0.5896  1.4339
17254TIP3   OH273176   0.033   3.260  11.647 -0.3487  0.3610  0.1714
17254TIP3    H173177  -0.027   3.272  11.574 -1.0667 -0.4242  0.6119
17254TIP3    H273178  -0.019   3.215  11.713  0.8532 -0.7530  0.3945
17255TIP3   OH273179   1.816   4.943   4.265  0.1246 -0.0038 -0.0914
17255TIP3    H173180   1.811   4.887   4.188  1.0998 -0.0771 -0.1182
17255TIP3    H273181   1.726   4.953   4.294  0.0514 -3.0609  0.9962
17256TIP3   OH273182   1.600   4.467  17.007 -0.5315 -0.5100  0.1668
17256TIP3    H173183   1.577   4.423  16.926 -0.6954  0.1738 -0.1716
17256TIP3    H273184   1.609   4.397  17.072  0.1849 -1.1122 -0.5731
17257TIP3   OH273185   0.997   4.745  14.736 -0.7451  0.0006  0.3678
17257TIP3    H173186   1.015   4.795  14.656 -0.0145  0.3960  0.7619
17257TIP3    H273187   0.912   4.705  14.721 -0.2121 -0.6892 -0.9856
17258TIP3   OH273188   2.126   1.121   1.296  0.4342  0.1550  0.2240
17258TIP3    H173189   2.117   1.063   1.220  0.7124 -0.1256  0.4013
17258TIP3    H273190   2.067   1.085   1.361  0.0786  0.4885  0.0867
17259TIP3   OH273191   1.959   3.199  10.906  0.5131 -0.3962  0.3755
17259TIP3    H173192   1.951   3.167  10.817  1.0369 -0.6884  0.4311
17259TIP3    H273193   1.875   3.243  10.923  0.1371 -0.9443 -0.0116
17260TIP3   OH273194   3.562   3.547  12.743  0.2189  0.1103  0.1967
17260TIP3    H173195   3.503   3.474  12.726  1.5312 -0.9683  0.0429
17260TIP3    H273196   3.596   3.530  12.831  3.0184 -1.3735 -1.0315
17261TIP3   OH273197   4.440   4.463  11.956 -0.0937 -0.3114 -0.0560
17261TIP3    H173198   4.440   4.547  11.909 -1.4161  0.7047  1.6466
17261TIP3    H273199   4.497   4.477  12.031  1.1011 -1.5600 -0.6762
17262TIP3   OH273200   1.856   0.277   1.666 -0.0695  0.3338  0.0090
17262TIP3    H173201   1.902   0.235   1.739 -0.1734  0.8036  0.3495
17262TIP3    H273202   1.768   0.293   1.699  0.0000  0.9099 -0.0833
17263TIP3   OH273203   0.042   3.063  16.354 -0.0160  0.2568 -0.0980
17263TIP3    H173204   0.086   3.148  16.356 -0.8288  0.7311 -1.1364
17263TIP3    H273205  -0.048   3.082  16.381  0.5175 -0.8204  2.7592
17264TIP3   OH273206   3.059   6.152  16.906 -0.5915 -0.4952  0.2471
17264TIP3    H173207   3.047   6.080  16.968 -2.2637 -0.5038 -0.0422
17264TIP3    H273208   3.070   6.230  16.961  1.5352 -0.9463  0.5701
17265TIP3   OH273209   3.211   2.381  11.943 -0.0537  0.6689 -0.9027
17265TIP3    H173210   3.148   2.328  11.895 -0.9648  0.0878  0.8417
17265TIP3    H273211   3.281   2.320  11.967 -1.1331  0.1463  1.1596
17266TIP3   OH273212   5.348   5.907   1.858  0.5753 -0.1030 -0.2121
17266TIP3    H173213   5.311   5.854   1.788 -0.7418  0.8622 -0.2861
17266TIP3    H273214   5.410   5.966   1.814 -1.4434  1.6424 -0.8964
17267TIP3   OH273215   0.313   0.650  10.831  0.3460  0.1425 -0.3120
17267TIP3    H173216   0.272   0.721  10.782 -1.2545  0.9348  1.9932
17267TIP3    H273217   0.302   0.573  10.775 -0.2153  1.2166 -1.7497
17268TIP3   OH273218   4.680   4.053  11.732 -0.1084  0.0856  0.4545
17268TIP3    H173219   4.744   4.020  11.795  1.4015  0.5744 -0.7638
17268TIP3    H273220   4.710   4.019  11.648  0.3106  2.7660 -0.5627
17269TIP3   OH273221   6.233   3.456  17.140 -0.4596  0.2778  0.2107
17269TIP3    H173222   6.292   3.404  17.195  0.5855 -0.5689 -1.6335
17269TIP3    H273223   6.167   3.394  17.110  0.4136  0.0932 -1.4608
17270TIP3   OH273224   3.993   0.541  13.904  0.0793 -0.7574 -0.2228
17270TIP3    H173225   3.901   0.555  13.928 -0.4373 -1.0109 -1.9072
17270TIP3    H273226   4.035   0.626  13.919 -0.8006 -0.1808 -0.9539
17271TIP3   OH273227   5.529   5.071   2.878  0.0232 -0.1384  0.0589
17271TIP3    H173228   5.458   5.006   2.875 -1.5236  1.4253  0.8566
17271TIP3    H273229   5.511   5.129   2.804 -0.7079  1.3827  1.3737
17272TIP3   OH273230   3.835   4.307   3.107  0.4402 -0.8215 -0.7122
17272TIP3    H173231   3.762   4.336   3.052  1.1848  0.8613 -0.8714
17272TIP3    H273232   3.794   4.260   3.179 -1.1772  2.6936  0.9119
17273TIP3   OH273233   3.071   1.121   5.450 -0.0817 -0.5764  0.3021
17273TIP3    H173234   3.000   1.146   5.508 -0.4299 -3.4539  1.2739
17273TIP3    H273235   3.151   1.145   5.498 -0.3995 -0.9712  1.0566
17274TIP3   OH273236   4.617   3.417  12.472 -0.1926 -0.3694 -0.7066
17274TIP3    H173237   4.647   3.341  12.421 -0.1575 -1.5872  1.0342
17274TIP3    H273238   4.522   3.418  12.459 -0.1869 -0.6885 -0.7984
17275TIP3   OH273239   3.024   4.099  13.479  0.3745  0.3907  0.1722
17275TIP3    H173240   2.969   4.173  13.501 -0.4913 -0.5710  1.3995
17275TIP3    H273241   3.090   4.096  13.549 -0.1425 -0.5019  0.6448
17276TIP3   OH273242   1.500   1.889  12.153  0.1381  0.0982 -0.5739
17276TIP3    H173243   1.487   1.982  12.134 -1.1382 -0.1076 -0.8292
17276TIP3    H273244   1.530   1.852  12.070 -1.9431 -0.1578 -1.2764
17277TIP3   OH273245   0.018   5.101  11.572 -0.4155  0.3103  0.2217
17277TIP3    H173246   0.099   5.149  11.589 -0.5296  0.4089  0.4987
17277TIP3    H273247   0.030   5.018  11.618  0.1360 -0.2964 -0.9620
17278TIP3   OH273248   3.925   2.747  12.033  0.3909  0.2264 -0.2621
17278TIP3    H173249   3.898   2.793  11.953 -0.5772  1.4182  0.7281
17278TIP3    H273250   3.850   2.753  12.092  1.2271 -0.2971  0.8978
17279TIP3   OH273251   0.210   5.987   5.674  0.5924  0.1207 -0.0921
17279TIP3    H173252   0.170   5.910   5.634  1.4706 -0.3509 -0.0963
17279TIP3    H273253   0.265   6.024   5.604 -0.1303  1.0000 -0.2214
17280TIP3   OH273254   2.816   5.158   0.739 -0.4536 -0.1774  0.5715
17280TIP3    H173255   2.855   5.074   0.718 -1.8308 -0.3191 -1.8273
17280TIP3    H273256   2.890   5.216   0.755  0.5628 -1.4298  0.5469
17281TIP3   OH273257   5.142   6.357   3.020 -0.4581  0.0584  0.7247
17281TIP3    H173258   5.173   6.357   2.930 -0.8052  1.5480  0.5734
17281TIP3    H273259   5.218   6.385   3.072 -0.8970  1.6181  0.5888
17282TIP3   OH273260   5.645   2.920   3.932 -0.2168  0.1712  0.2721
17282TIP3    H173261   5.657   3.007   3.895  0.8876 -0.7083 -1.5625
17282TIP3    H273262   5.551   2.914   3.949 -0.2860  1.7407  0.5274
17283TIP3   OH273263   3.900   2.994  13.188  0.5337 -0.3142 -0.2706
17283TIP3    H173264   3.936   2.955  13.108  1.4863 -0.6871  0.3143
17283TIP3    H273265   3.825   2.939  13.210  1.6609 -1.6559  0.3560
17284TIP3   OH273266   0.352   4.355  11.538  0.0892  0.0229  0.3832
17284TIP3    H173267   0.375   4.275  11.585 -1.6217 -0.3945  0.5813
17284TIP3    H273268   0.378   4.339  11.448  0.3574 -0.5042  0.5562
17285TIP3   OH273269   2.930   3.966   5.756  0.4764 -0.3107 -0.4267
17285TIP3    H173270   2.900   3.893   5.811  2.0968 -0.2857  0.5694
17285TIP3    H273271   2.851   3.998   5.714 -0.5113 -1.6774  0.2914
17286TIP3   OH273272   2.212   3.872   4.779 -0.9161 -0.5073  0.2222
17286TIP3    H173273   2.239   3.961   4.799  1.5789 -1.1946  0.3037
17286TIP3    H273274   2.159   3.846   4.854  0.8830 -0.0574  1.7483
17287TIP3   OH273275   6.179   6.063   6.167 -0.3597 -0.3711 -0.0520
17287TIP3    H173276   6.172   6.151   6.129 -0.0415  0.4350  1.6745
17287TIP3    H273277   6.262   6.029   6.132 -0.6860 -0.1760 -1.0599
17288TIP3   OH273278   3.942   3.298  15.838 -0.6331 -0.2900 -0.5476
17288TIP3    H173279   3.878   3.355  15.881  1.3186  1.3433  0.3845
17288TIP3    H273280   3.989   3.257  15.910 -0.8106 -1.7330 -1.2185
17289TIP3   OH273281   3.336   1.731  12.911 -0.2803 -0.2181 -0.0724
17289TIP3    H173282   3.271   1.688  12.966  0.5998  0.8793  1.9667
17289TIP3    H273283   3.294   1.811  12.881 -0.1921  0.0555  0.5135
17290TIP3   OH273284   1.525   3.152   2.765 -0.6479 -0.5531  0.1353
17290TIP3    H173285   1.617   3.131   2.755 -0.5266 -0.2433  0.5614
17290TIP3    H273286   1.492   3.089   2.829 -0.3540  0.3115  1.1820
17291TIP3   OH273287   1.833   6.424  16.486  0.3296 -0.4136  0.3201
17291TIP3    H173288   1.839   6.332  16.460 -0.9316  0.0806 -2.0704
17291TIP3    H273289   1.910   6.465  16.445  0.2953 -0.2221  0.4479
17292TIP3   OH273290   6.528   0.368   4.472  0.1646  0.1525 -0.3119
17292TIP3    H173291   6.565   0.306   4.410  0.0759  0.6626 -0.8909
17292TIP3    H273292   6.525   0.451   4.423  2.5430  1.2311  1.1826
17293TIP3   OH273293   2.404   2.654  14.082  0.3500  0.4681 -1.0133
17293TIP3    H173294   2.362   2.740  14.089  0.6223  0.6305 -1.3092
17293TIP3    H273295   2.476   2.658  14.145 -0.1911  0.1172 -0.3612
17294TIP3   OH273296   5.950   2.890   1.267  0.8940 -0.4848 -0.6104
17294TIP3    H173297   5.879   2.888   1.203  0.5070 -2.3325 -0.1800
17294TIP3    H273298   6.026   2.858   1.220  0.3372 -3.0452  0.0733
17295TIP3   OH273299   0.040   0.416  17.088  0.1369  0.0709  0.3053
17295TIP3    H173300   0.059   0.447  17.000  0.8557 -0.7657  0.1476
17295TIP3    H273301  -0.043   0.456  17.111 -0.4164 -0.2729 -1.0352
17296TIP3   OH273302   1.851   5.466   1.725 -0.6737 -0.5502 -0.1228
17296TIP3    H173303   1.851   5.560   1.744  0.4484 -0.8262  1.4872
17296TIP3    H273304   1.891   5.426   1.802  0.3671 -2.2189 -1.4624
17297TIP3   OH273305   6.070   6.042  13.872 -0.1600  0.4373 -0.1449
17297TIP3    H173306   6.142   6.104  13.866  0.2532 -0.0977 -0.9423
17297TIP3    H273307   6.111   5.961  13.904 -0.3034 -0.0098 -1.0620
17298TIP3   OH273308   2.736   2.793  12.096  0.5123 -0.3618 -0.1305
17298TIP3    H173309   2.723   2.718  12.154 -0.0252  0.6167  1.0784
17298TIP3    H273310   2.806   2.844  12.139  0.9824 -0.2454 -1.0130
17299TIP3   OH273311   1.447   6.544  13.927  0.2142 -0.3218  0.5870
17299TIP3    H173312   1.456   6.475  13.862 -0.0590 -1.4490  1.7177
17299TIP3    H273313   1.429   6.623  13.875  0.8169 -1.0178 -0.7370
17300TIP3   OH273314   0.826   4.380   1.044 -0.8398 -0.0825 -0.7781
17300TIP3    H173315   0.902   4.324   1.028 -1.0358 -0.2521 -1.1272
17300TIP3    H273316   0.830   4.400   1.137 -1.1290 -1.2096 -0.5139
17301TIP3   OH273317   6.703   4.012   1.010 -0.6906  0.1415 -0.0694
17301TIP3    H173318   6.697   4.032   0.917 -1.3448 -1.5083 -0.4217
17301TIP3    H273319   6.616   4.033   1.044 -0.6675  0.0906  0.0220
17302TIP3   OH273320   4.081   3.450  15.268 -0.1318 -0.4166 -0.5983
17302TIP3    H173321   4.100   3.438  15.361  0.3903  0.8586 -0.5211
17302TIP3    H273322   4.104   3.366  15.228 -0.5601 -1.0456  0.4440
17303TIP3   OH273323   0.162   4.657  10.989 -0.0750 -0.0027  0.2149
17303TIP3    H173324   0.195   4.604  11.061 -0.3074  0.8352  0.9483
17303TIP3    H273325   0.080   4.694  11.021  0.0717  0.7841 -0.2930
17304TIP3   OH273326   5.283   0.868   0.345  0.2298 -0.2476  0.3026
17304TIP3    H173327   5.315   0.917   0.421  0.0042 -0.0294  0.2577
17304TIP3    H273328   5.231   0.932   0.296  1.6189  0.0411 -0.8430
17305TIP3   OH273329   2.120   5.018   4.672  0.0041 -0.4323 -0.2561
17305TIP3    H173330   2.156   4.956   4.609 -1.0883 -2.9137  1.3884
17305TIP3    H273331   2.194   5.074   4.695  1.5160 -2.1374 -0.6692
17306TIP3   OH273332   6.298   4.780   2.813 -0.1914 -0.1709  0.7398
17306TIP3    H173333   6.393   4.787   2.799 -0.3126 -1.6558 -1.2554
17306TIP3    H273334   6.287   4.693   2.853 -0.8214 -0.8001 -0.7446
17307TIP3   OH273335   3.874   0.589   4.854  0.2389 -0.4033  0.2215
17307TIP3    H173336   3.810   0.522   4.829  0.1570  0.3370 -1.7493
17307TIP3    H273337   3.959   0.544   4.849  0.1192 -0.5830 -0.3464
17308TIP3   OH273338   0.075   0.215  14.890 -0.9680  0.4659  0.1659
17308TIP3    H173339   0.167   0.200  14.911 -1.1170 -2.2853 -0.8500
17308TIP3    H273340   0.047   0.283  14.953  1.9037  2.0092 -0.0739
17309TIP3   OH273341   5.237   5.706  15.835  0.7359  0.2547 -0.6920
17309TIP3    H173342   5.241   5.694  15.930 -0.2479 -0.9587 -0.7683
17309TIP3    H273343   5.320   5.670  15.803  0.4108 -0.8061 -0.3938
17310TIP3   OH273344   6.299   1.649   0.776  0.6391 -0.0984 -0.1256
17310TIP3    H173345   6.337   1.590   0.711 -0.2089 -0.3419 -0.4146
17310TIP3    H273346   6.216   1.608   0.801 -1.6942  2.4724 -2.8101
17311TIP3   OH273347   4.107   3.913   2.046 -0.4020  0.1818  0.4621
17311TIP3    H173348   4.057   3.932   1.967  0.6321  0.1687 -0.2171
17311TIP3    H273349   4.099   3.992   2.100  0.7901  1.1385 -0.6947
17312TIP3   OH273350   3.627   0.993   2.198  0.4263 -0.6848  0.2039
17312TIP3    H173351   3.709   1.042   2.191 -1.2743  2.3122 -0.4891
17312TIP3    H273352   3.625   0.938   2.120  0.5663  1.3068 -1.2822
17313TIP3   OH273353   4.547   2.191   5.289  0.6180 -0.6552  0.8631
17313TIP3    H173354   4.571   2.245   5.214  1.0280 -0.6855  0.9708
17313TIP3    H273355   4.475   2.137   5.257  1.6961 -1.6640  0.0475
17314TIP3   OH273356   3.961   0.367  16.657  0.2173  0.2472  0.4700
17314TIP3    H173357   3.919   0.449  16.683 -0.2393  0.3688 -0.5999
17314TIP3    H273358   3.894   0.300  16.670 -0.2114  0.3866 -0.8596
17315TIP3   OH273359   3.650   1.848  15.916 -0.0252 -0.7794 -0.5298
17315TIP3    H173360   3.743   1.853  15.938  0.1011  0.0375 -1.2078
17315TIP3    H273361   3.610   1.805  15.991  0.6982  0.0914  0.3814
17316TIP3   OH273362   0.551   3.271  16.898  0.4539  0.3376  0.0645
17316TIP3    H173363   0.599   3.254  16.817 -0.6971 -1.7236 -0.2482
17316TIP3    H273364   0.483   3.334  16.872 -0.0440 -0.4726 -0.6391
17317TIP3   OH273365   5.329   0.903  15.455  0.1814 -0.2919  0.2552
17317TIP3    H173366   5.341   0.816  15.491 -0.7451 -0.0907  1.1001
17317TIP3    H273367   5.274   0.949  15.520 -1.8552 -0.0145 -1.5385
17318TIP3   OH273368   5.488   2.776  12.626 -0.0850  0.1282 -0.2161
17318TIP3    H173369   5.542   2.703  12.596 -0.7671 -0.4263 -0.1206
17318TIP3    H273370   5.460   2.751  12.714 -1.3614 -0.0809 -0.6714
17319TIP3   OH273371   5.512   2.910   0.560 -0.1613  0.2251 -0.2159
17319TIP3    H173372   5.478   2.988   0.602  0.7744  0.3425  0.3469
17319TIP3    H273373   5.465   2.906   0.476 -0.3629  1.2714 -0.1704
17320TIP3   OH273374   4.671   2.697   3.625  0.1903  0.2084  0.2746
17320TIP3    H173375   4.624   2.613   3.617  0.7585 -0.0752 -0.1910
17320TIP3    H273376   4.638   2.749   3.552  1.5000 -0.4523 -0.8292
17321TIP3   OH273377   4.238   2.101   2.902 -0.5559 -0.2334  0.1661
17321TIP3    H173378   4.286   2.019   2.891  2.7129  1.1759  2.3329
17321TIP3    H273379   4.236   2.116   2.996 -1.7868  1.8242 -0.1099
17322TIP3   OH273380   6.647   0.056   6.087 -0.1111  0.4843 -0.4059
17322TIP3    H173381   6.649   0.068   6.182  0.3820 -0.7788 -0.2467
17322TIP3    H273382   6.556   0.035   6.067 -0.2429  0.8826 -0.2414
17323TIP3   OH273383   4.537   4.849   2.953  0.5107  0.1716  0.7071
17323TIP3    H173384   4.543   4.757   2.979  3.0666  0.1091  0.2063
17323TIP3    H273385   4.491   4.847   2.869  0.7503 -0.7043  0.5782
17324TIP3   OH273386   6.202   2.435   0.118 -0.0545  0.0016  0.3940
17324TIP3    H173387   6.152   2.473   0.046 -0.6552 -2.5913 -0.6751
17324TIP3    H273388   6.136   2.407   0.181  0.0896 -1.8949 -0.2347
17325TIP3   OH273389   3.698   5.544  11.895 -0.3459 -0.1031  0.3619
17325TIP3    H173390   3.723   5.521  11.806 -0.3604 -0.4304  0.4414
17325TIP3    H273391   3.756   5.491  11.950  0.9532  1.4244  0.5693
17326TIP3   OH273392   4.048   4.474  13.594 -0.2039  0.3989 -0.0671
17326TIP3    H173393   4.132   4.428  13.602  0.2232  1.2328  0.3141
17326TIP3    H273394   3.983   4.404  13.594  0.5954 -0.4650 -2.9214
17327TIP3   OH273395   5.397   4.686   0.206 -0.1999 -0.3940 -0.3157
17327TIP3    H173396   5.363   4.642   0.284  1.5901 -1.7781 -0.2522
17327TIP3    H273397   5.355   4.640   0.133  0.4214 -1.1595 -0.2079
17328TIP3   OH273398   4.225   3.444  15.513  0.0407  0.2637  0.4813
17328TIP3    H173399   4.217   3.516  15.576  0.7420  0.2863  0.5578
17328TIP3    H273400   4.208   3.366  15.564 -1.7988  0.4215  0.1697
17329TIP3   OH273401   5.120   4.292   2.884 -0.5408  0.5176  0.1188
17329TIP3    H173402   5.182   4.287   2.810 -0.9759 -0.2474 -0.2116
17329TIP3    H273403   5.035   4.307   2.843 -0.6442  1.1039  0.5421
17330TIP3   OH273404   6.217   6.313  12.001  0.1682 -0.8521 -0.0314
17330TIP3    H173405   6.162   6.240  11.974  0.2302 -0.8197 -0.2487
17330TIP3    H273406   6.161   6.366  12.058  0.5000 -1.7121  1.1295
17331TIP3   OH273407   4.511   2.514   0.801  0.0340 -0.0773  0.5893
17331TIP3    H173408   4.572   2.448   0.835  0.4044  0.9537  1.9856
17331TIP3    H273409   4.559   2.556   0.729 -0.4814 -1.7839 -0.8180
17332TIP3   OH273410   5.880   2.098   0.959 -0.3915 -0.1609  0.2864
17332TIP3    H173411   5.952   2.077   1.019  0.1288  2.1367  0.5661
17332TIP3    H273412   5.807   2.121   1.016 -0.4270  0.3405  0.0449
17333TIP3   OH273413   0.494   6.701   4.422 -0.0824 -0.7380  0.4262
17333TIP3    H173414   0.420   6.644   4.445 -0.3004  0.1206  2.0228
17333TIP3    H273415   0.479   6.724   4.331 -2.5059  0.3809  1.0130
17334TIP3   OH273416   6.459   3.893  11.784 -0.1076  0.0071  0.5763
17334TIP3    H173417   6.399   3.876  11.712  0.9146  0.6260 -0.4573
17334TIP3    H273418   6.470   3.988  11.785  1.0529 -0.1076  0.5600
17335TIP3   OH273419   3.207   4.099  13.670 -0.3832 -0.3195  0.4509
17335TIP3    H173420   3.217   4.018  13.720 -1.4170 -1.5434 -1.2412
17335TIP3    H273421   3.223   4.168  13.734  0.2992 -1.8411  1.9992
17336TIP3   OH273422   0.868   5.653  10.993  0.4570  0.3568 -0.2890
17336TIP3    H173423   0.885   5.558  10.995 -0.5518  0.1736  1.5979
17336TIP3    H273424   0.773   5.660  10.982  0.2455  1.0631  1.6127
17337TIP3   OH273425   4.768   5.686   5.623  0.1383  0.0704  0.1274
17337TIP3    H173426   4.856   5.720   5.609  0.2121 -0.0743  0.2275
17337TIP3    H273427   4.710   5.758   5.602  0.3202  0.5787  1.2751
17338TIP3   OH273428   6.329   0.662   2.088  0.2372  0.4193  0.2324
17338TIP3    H173429   6.315   0.757   2.096  0.1382  0.3382  1.0797
17338TIP3    H273430   6.392   0.641   2.156 -0.5114 -0.2840  0.7311
17339TIP3   OH273431   4.409   1.394   3.670 -0.6724  0.0122 -0.0293
17339TIP3    H173432   4.420   1.308   3.710 -0.6572 -0.4526 -1.0074
17339TIP3    H273433   4.492   1.439   3.685 -0.8378  0.0363  0.8770
17340TIP3   OH273434   0.444   2.590  12.103 -0.0262 -0.2524 -0.0511
17340TIP3    H173435   0.465   2.665  12.159  0.0659 -1.2358  1.2597
17340TIP3    H273436   0.520   2.533  12.109 -0.5757 -1.0057 -0.1114
17341TIP3   OH273437   0.800   5.145  13.212  0.0848  0.1434  0.1927
17341TIP3    H173438   0.730   5.154  13.147  0.5037  2.3058 -0.0192
17341TIP3    H273439   0.875   5.114  13.162  0.3382  1.5704 -0.3650
17342TIP3   OH273440   4.091   5.269   0.348 -0.6168 -0.2156 -0.1639
17342TIP3    H173441   4.012   5.322   0.358 -1.1864 -1.1562  0.5208
17342TIP3    H273442   4.140   5.282   0.429  0.7665  1.6330 -1.2310
17343TIP3   OH273443   6.009   2.364   0.301 -0.3239  0.7109 -0.3622
17343TIP3    H173444   5.950   2.337   0.372 -0.7733 -1.3014 -1.4107
17343TIP3    H273445   5.954   2.359   0.222  0.2886  2.4337 -0.9271
17344TIP3   OH273446   1.272   1.086   2.465 -0.3347 -0.0785 -0.1955
17344TIP3    H173447   1.354   1.119   2.501 -0.2013  0.5508 -1.0429
17344TIP3    H273448   1.221   1.061   2.542  0.6372 -0.4612  0.3360
17345TIP3   OH273449   0.115   3.715  15.655 -0.0253  0.3232  0.5515
17345TIP3    H173450   0.138   3.674  15.738 -0.0306  1.7475  1.2814
17345TIP3    H273451   0.035   3.765  15.673 -0.3359  0.2226 -0.4490
17346TIP3   OH273452   5.876   4.377   0.852 -0.1223  0.2284  0.1122
17346TIP3    H173453   5.951   4.402   0.798 -0.7130 -0.8829 -1.2662
17346TIP3    H273454   5.800   4.406   0.803 -0.6496  0.3645  0.9841
17347TIP3   OH273455   6.267   0.932   1.679 -0.4828 -0.2588  0.2451
17347TIP3    H173456   6.252   0.955   1.770 -3.1914  0.5432 -0.3071
17347TIP3    H273457   6.226   1.002   1.629 -0.3426 -1.3952 -1.5841
17348TIP3   OH273458   5.466   0.725  10.471  0.1052 -0.1652 -0.1904
17348TIP3    H173459   5.509   0.640  10.459  0.5254  0.0367 -0.1511
17348TIP3    H273460   5.384   0.718  10.423 -1.4296 -1.7483  2.4352
17349TIP3   OH273461   2.590   4.084  13.630 -0.1936  0.2698 -0.0605
17349TIP3    H173462   2.533   4.158  13.611  1.2326  1.3669 -0.2792
17349TIP3    H273463   2.531   4.012  13.652 -1.7045  0.7770 -2.2066
17350TIP3   OH273464   2.407   4.483  14.639 -0.2168 -0.6212  0.4311
17350TIP3    H173465   2.434   4.474  14.730  0.6023  0.5077  0.3151
17350TIP3    H273466   2.481   4.449  14.588  0.6075  1.4427  0.1444
17351TIP3   OH273467   0.390   6.170  15.995 -0.3050 -0.1817  0.2257
17351TIP3    H173468   0.477   6.208  15.989  0.0200 -0.7557  1.1570
17351TIP3    H273469   0.404   6.084  16.036 -1.2566 -0.4546  0.0034
17352TIP3   OH273470   3.995   0.744  10.071  0.1448  0.0176  0.0349
17352TIP3    H173471   3.949   0.675  10.119  0.7353 -0.2281  0.2638
17352TIP3    H273472   4.067   0.769  10.130  3.2053 -2.8555 -2.0874
17353TIP3   OH273473   5.723   1.247   4.112  0.6545 -0.1827  0.3063
17353TIP3    H173474   5.672   1.255   4.193  2.6955  1.0569  1.5509
17353TIP3    H273475   5.701   1.326   4.062 -0.1514 -0.6472 -0.0758
17354TIP3   OH273476   5.787   0.091   5.088 -0.2359 -0.0428 -0.0676
17354TIP3    H173477   5.743   0.172   5.062 -0.0880 -0.2421 -0.9695
17354TIP3    H273478   5.726   0.021   5.064  0.7375 -0.3494 -1.7713
17355TIP3   OH273479   6.688   2.926  14.112  0.3838 -0.5563 -0.4767
17355TIP3    H173480   6.731   3.001  14.069  0.2138 -0.1674  0.0240
17355TIP3    H273481   6.683   2.859  14.043 -1.8602  0.8067 -1.7892
17356TIP3   OH273482   4.653   2.374  11.579 -0.1485 -0.1561 -0.1560
17356TIP3    H173483   4.627   2.303  11.521 -0.6167 -0.4909  0.4509
17356TIP3    H273484   4.571   2.411  11.611  0.0982  0.2944 -0.0290
17357TIP3   OH273485   0.243   3.048   3.034  0.5013  0.2445  0.3694
17357TIP3    H173486   0.254   3.038   3.128 -0.2402 -2.2909  0.2556
17357TIP3    H273487   0.327   3.084   3.004  1.3342 -0.4355  1.7897
17358TIP3   OH273488   2.519   3.413   6.222 -0.2681  0.4345 -0.3638
17358TIP3    H173489   2.509   3.491   6.168  0.0403 -0.1299 -1.2507
17358TIP3    H273490   2.430   3.378   6.232 -0.5479  1.4160  0.8558
17359TIP3   OH273491   0.547   0.288   1.956  0.1726 -0.2454  0.3806
17359TIP3    H173492   0.582   0.376   1.969  0.2225 -0.0884 -0.7489
17359TIP3    H273493   0.465   0.301   1.910 -0.0039 -0.7756  0.5357
17360TIP3   OH273494   4.622   4.875   0.739 -0.0987 -0.1691  0.3062
17360TIP3    H173495   4.547   4.818   0.753  1.2047 -1.4083  2.8283
17360TIP3    H273496   4.584   4.962   0.728 -2.0713 -1.2323 -2.4759
17361TIP3   OH273497   5.052   3.690  13.080 -0.4615  0.2916 -0.1942
17361TIP3    H173498   5.109   3.650  13.146 -1.2063 -0.5971 -0.0756
17361TIP3    H273499   5.109   3.750  13.032  0.4235 -0.1275  0.3184
17362TIP3   OH273500   2.589   1.739  16.912  0.3728 -0.0636 -0.1539
17362TIP3    H173501   2.617   1.728  16.821  0.1329  0.2705 -0.2711
17362TIP3    H273502   2.586   1.651  16.948  0.6887 -0.1757 -0.4050
17363TIP3   OH273503   6.356   0.696   6.207 -0.9519  0.6030  0.6263
17363TIP3    H173504   6.440   0.732   6.236 -0.6560  0.2649  0.2104
17363TIP3    H273505   6.331   0.749   6.132 -0.3653 -0.2286 -0.1755
17364TIP3   OH273506   0.230   4.788   5.241 -0.0604 -0.4600 -0.0369
17364TIP3    H173507   0.173   4.732   5.189 -2.0816  0.3397  1.2205
17364TIP3    H273508   0.177   4.814   5.316  0.7398  3.1225 -0.5376
17365TIP3   OH273509   1.382   1.473  10.425 -0.3930 -0.0889  0.3150
17365TIP3    H173510   1.415   1.558  10.396  0.1039 -0.3793  0.0134
17365TIP3    H273511   1.291   1.472  10.397 -0.0134 -0.2246 -0.9788
17366TIP3   OH273512   5.900   5.670  17.335  0.5704 -0.2531  0.2402
17366TIP3    H173513   5.872   5.625  17.255 -1.0268 -0.2379  0.7616
17366TIP3    H273514   5.992   5.645  17.345  0.9040  0.0364 -1.7824
17367TIP3   OH273515   3.407   3.983   3.749  0.0130 -0.8813  0.1901
17367TIP3    H173516   3.371   4.053   3.803 -2.5297 -1.8456 -0.1249
17367TIP3    H273517   3.487   3.956   3.795 -0.6027  0.1376  1.9704
17368TIP3   OH273518   5.713   5.737  14.938 -0.5181 -0.2294 -0.5608
17368TIP3    H173519   5.651   5.776  14.999  2.3332  1.2881  1.5771
17368TIP3    H273520   5.744   5.658  14.982  0.0924 -0.2320 -0.9778
17369TIP3   OH273521   3.789   1.227  14.388 -0.4103 -0.2763 -0.3806
17369TIP3    H173522   3.809   1.271  14.471 -1.2771  0.8431 -0.7547
17369TIP3    H273523   3.834   1.142  14.395  0.6622  0.3465  0.6611
17370TIP3   OH273524   4.838   1.182   1.292  0.0901  0.1003 -0.4685
17370TIP3    H173525   4.795   1.154   1.373  0.7984 -1.5672 -0.6176
17370TIP3    H273526   4.766   1.207   1.234 -0.3905  2.0238  0.8837
17371TIP3   OH273527   6.318   5.013  11.603 -0.1402 -0.5674 -0.0062
17371TIP3    H173528   6.335   5.106  11.616 -0.9231 -0.1895 -1.3962
17371TIP3    H273529   6.355   4.994  11.516  0.1635 -1.6017  0.3285
17372TIP3   OH273530   1.027   1.320  17.197  0.1427  0.9409 -0.2214
17372TIP3    H173531   1.072   1.313  17.113  4.5857  0.4264  1.8625
17372TIP3    H273532   1.035   1.413  17.220 -1.1861  1.1097 -0.3999
17373TIP3   OH273533   5.573   0.754  13.845  0.2257 -0.1976 -0.7241
17373TIP3    H173534   5.667   0.741  13.836  0.5843  1.2915  0.4426
17373TIP3    H273535   5.544   0.778  13.757  0.7465 -1.5283 -1.2876
17374TIP3   OH273536   2.085   6.212  12.893 -0.0065  0.1452 -0.1380
17374TIP3    H173537   2.133   6.213  12.976 -1.7983  0.3357  0.9620
17374TIP3    H273538   2.016   6.146  12.907  0.6935 -1.0963 -2.1372
17375TIP3   OH273539   0.920   5.309   2.048  0.0205 -0.9057  0.0832
17375TIP3    H173540   0.846   5.261   2.085 -0.4355 -0.7307 -0.5896
17375TIP3    H273541   0.937   5.266   1.965 -0.1599 -0.1247 -0.3613
17376TIP3   OH273542   6.640   5.177   5.176 -0.2695 -0.3477  0.4848
17376TIP3    H173543   6.587   5.125   5.237 -0.7025 -1.3529 -0.7113
17376TIP3    H273544   6.714   5.121   5.154 -0.5191 -0.3116 -0.4961
17377TIP3   OH273545   1.875   1.961  16.475 -0.3754 -0.2315 -0.5108
17377TIP3    H173546   1.904   1.982  16.386  0.6991 -0.4465 -0.2256
17377TIP3    H273547   1.785   1.931  16.464  0.3582 -2.1739 -1.8037
17378TIP3   OH273548   5.630   3.637  15.447 -0.5350  0.3762 -0.0738
17378TIP3    H173549   5.669   3.660  15.362 -1.2859  1.2818 -0.1964
17378TIP3    H273550   5.646   3.714  15.502  0.0937 -0.2712  0.6706
17379TIP3   OH273551   5.725   5.118   5.156 -0.2057 -0.1314 -0.2444
17379TIP3    H173552   5.720   5.074   5.071  0.8747  2.4145 -1.7208
17379TIP3    H273553   5.638   5.158   5.167  0.0374  0.5684 -0.7832
17380TIP3   OH273554   0.390   2.618   4.057 -0.1385 -0.2253 -0.0065
17380TIP3    H173555   0.462   2.575   4.102  1.5000  0.6684 -1.6534
17380TIP3    H273556   0.382   2.571   3.974 -1.3701 -0.2165  0.0869
17381TIP3   OH273557   0.518   1.140  11.743 -0.1533  0.4809 -0.0521
17381TIP3    H173558   0.501   1.054  11.704  0.1857  0.5448 -0.3407
17381TIP3    H273559   0.445   1.153  11.804 -1.5974  1.1267 -1.8571
17382TIP3   OH273560   4.264   5.270  11.237  0.2406  0.9481  0.2485
17382TIP3    H173561   4.217   5.326  11.176  1.7201  0.4787 -1.3843
17382TIP3    H273562   4.194   5.229  11.290 -1.1199  1.1271 -1.3245
17383TIP3   OH273563   5.112   1.391  12.169 -0.8477  0.0868  0.0301
17383TIP3    H173564   5.096   1.441  12.249  1.3612  0.9582 -0.0184
17383TIP3    H273565   5.173   1.322  12.195 -0.8963 -0.2420 -0.7000
17384TIP3   OH273566   6.498   6.044  13.853 -0.2534 -0.5139 -0.1003
17384TIP3    H173567   6.407   6.070  13.843 -0.9339 -2.8315 -0.4842
17384TIP3    H273568   6.500   5.995  13.936 -0.0208 -2.8673 -1.4184
17385TIP3   OH273569   2.021   5.342  12.727  0.3119  0.1585 -0.0961
17385TIP3    H173570   1.934   5.362  12.692 -0.6523 -0.1824  1.9536
17385TIP3    H273571   2.075   5.326  12.649 -1.4095  0.4742 -1.4252
17386TIP3   OH273572   4.610   2.473   2.081  0.0333  0.1376  0.2480
17386TIP3    H173573   4.572   2.488   2.168  0.3506  0.1867  0.3792
17386TIP3    H273574   4.591   2.381   2.063  1.5668 -0.3838  1.1688
17387TIP3   OH273575   1.939   4.381   3.385  0.2947 -0.2597 -0.0726
17387TIP3    H173576   1.974   4.296   3.410 -0.1080 -0.5328 -0.4283
17387TIP3    H273577   1.993   4.408   3.310 -0.5916 -0.9442 -0.9944
17388TIP3   OH273578   2.985   4.192   6.807  0.3635 -0.4355  0.4418
17388TIP3    H173579   3.018   4.105   6.831 -0.3764 -1.2765 -1.3741
17388TIP3    H273580   2.910   4.174   6.751  0.4543  1.3792 -0.3222
17389TIP3   OH273581   0.904   0.563   1.614 -0.0112  0.4809  0.1991
17389TIP3    H173582   0.850   0.621   1.560  2.1865  0.0066 -2.7494
17389TIP3    H273583   0.993   0.594   1.601  1.0636 -2.3779 -0.0447
17390TIP3   OH273584   0.286   1.677  11.100  0.6344  0.3432 -0.3524
17390TIP3    H173585   0.335   1.637  11.171 -0.6093  0.5812  0.6767
17390TIP3    H273586   0.194   1.661  11.122  0.1838  1.6555 -1.1588
17391TIP3   OH273587   5.758   5.664  15.214 -0.1888 -0.6577  0.1664
17391TIP3    H173588   5.771   5.637  15.305  0.5716 -1.0100 -0.0426
17391TIP3    H273589   5.783   5.757  15.213 -0.3135 -0.6215  0.3386
17392TIP3   OH273590   4.953   4.841   2.874 -0.1978 -0.2389  0.3548
17392TIP3    H173591   4.973   4.794   2.955 -1.2340 -0.0113  0.7506
17392TIP3    H273592   4.887   4.787   2.830  0.0345 -0.1344 -0.1277
17393TIP3   OH273593   2.864   6.225  16.015  0.3973  0.3780 -0.6156
17393TIP3    H173594   2.868   6.136  16.049 -0.6798  0.9941  1.2859
17393TIP3    H273595   2.845   6.215  15.921 -0.4254 -1.3783 -0.2964
17394TIP3   OH273596   6.299   0.394  17.199  0.2981  0.1385  0.1344
17394TIP3    H173597   6.238   0.328  17.232  1.0630 -1.5633 -1.6187
17394TIP3    H273598   6.291   0.387  17.104  0.5548  2.5065 -0.1087
17395TIP3   OH273599   2.062   2.116  11.449 -0.1866 -0.2504  0.5814
17395TIP3    H173600   2.107   2.135  11.531 -1.1785 -1.6586  1.5043
17395TIP3    H273601   2.085   2.025  11.429  0.3742  0.1987 -0.9471
17396TIP3   OH273602   6.181   5.492   3.847 -0.1253 -0.6327 -0.3463
17396TIP3    H173603   6.232   5.413   3.865  0.6937  0.1202  0.8022
17396TIP3    H273604   6.096   5.476   3.888  0.4299 -0.4842  0.9132
17397TIP3   OH273605   4.873   6.001   1.351  0.4799 -0.2120  0.4138
17397TIP3    H173606   4.950   6.000   1.408 -0.5041  0.4588  1.8115
17397TIP3    H273607   4.798   5.996   1.411 -0.5935 -0.0810 -0.8637
17398TIP3   OH273608   4.511   1.662   2.776 -0.4225 -0.2765 -0.0174
17398TIP3    H173609   4.595   1.672   2.821  0.6391 -2.6816 -1.2545
17398TIP3    H273610   4.533   1.671   2.683 -1.5454 -0.8035 -0.3454
17399TIP3   OH273611   4.067   1.861  14.371  0.2866  0.2845 -0.3564
17399TIP3    H173612   4.057   1.792  14.305  0.0339 -0.4712  0.4547
17399TIP3    H273613   4.095   1.815  14.450  0.5528  1.1729  0.0814
17400TIP3   OH273614   6.131   2.011  12.003 -0.2386  0.1042  0.0450
17400TIP3    H173615   6.060   1.960  12.043 -0.6871  0.2208 -0.5851
17400TIP3    H273616   6.211   1.972  12.038 -0.5480 -1.4450 -0.8581
17401TIP3   OH273617   0.479   1.743  17.334 -0.0096 -0.3782 -0.0964
17401TIP3    H173618   0.456   1.759  17.243 -1.0785 -2.7115 -0.3325
17401TIP3    H273619   0.416   1.794  17.384 -0.2278 -0.0613 -0.6907
17402TIP3   OH273620   3.048   0.190   6.173 -0.7079  0.0214 -0.6056
17402TIP3    H173621   3.026   0.100   6.199 -1.2452  0.3628  0.1365
17402TIP3    H273622   3.067   0.235   6.256 -2.0663  1.0272 -0.8075
17403TIP3   OH273623   4.416   6.160   0.101  0.3530  0.1578  0.5670
17403TIP3    H173624   4.482   6.183   0.036  0.0333  0.8116  0.4678
17403TIP3    H273625   4.385   6.074   0.075 -1.4247  1.3252 -1.5292
17404TIP3   OH273626   3.683   0.006   2.970 -0.6787  0.1329  0.1004
17404TIP3    H173627   3.704  -0.048   2.894 -1.1417  0.4759 -0.2781
17404TIP3    H273628   3.662  -0.057   3.039  1.1063 -0.2059  0.3677
17405TIP3   OH273629   0.691   0.107  13.849 -0.4291 -1.0270 -0.2506
17405TIP3    H173630   0.614   0.149  13.888  0.6634  0.5687  0.2619
17405TIP3    H273631   0.747   0.179  13.822  1.0669 -2.1565 -0.2936
17406TIP3   OH273632   5.748   2.165   2.845  0.5854  0.5161 -0.2678
17406TIP3    H173633   5.800   2.104   2.898 -1.4532 -1.8249 -0.7256
17406TIP3    H273634   5.687   2.205   2.907  0.7055  0.6773 -0.2541
17407TIP3   OH273635   1.945   3.549  10.940  0.2812  0.1048 -0.6501
17407TIP3    H173636   1.851   3.554  10.920  0.0205 -0.5034  0.3580
17407TIP3    H273637   1.987   3.594  10.867 -0.8231  0.8173 -0.8752
17408TIP3   OH273638   2.229   4.251   0.911 -0.0409  0.7170 -0.5037
17408TIP3    H173639   2.283   4.247   0.832  1.4810 -2.2782  0.5103
17408TIP3    H273640   2.292   4.253   0.983 -1.3447  0.5241  0.6807
17409TIP3   OH273641   4.085   1.357  15.755  0.0923 -0.0143 -0.0520
17409TIP3    H173642   4.110   1.360  15.663  0.0067 -0.5070 -0.0942
17409TIP3    H273643   3.992   1.335  15.754  0.2077 -0.5177  0.1633
17410TIP3   OH273644   5.664   0.370   1.876  0.1770 -0.3753 -0.2108
17410TIP3    H173645   5.711   0.413   1.805  0.5051  1.9498  1.3122
17410TIP3    H273646   5.572   0.374   1.851  0.2195  1.0705 -0.2334
17411TIP3   OH273647   5.121   6.142   1.209 -0.6619  0.1681  0.0365
17411TIP3    H173648   5.202   6.098   1.182 -0.7589  0.3456 -0.5373
17411TIP3    H273649   5.114   6.122   1.303 -0.0784 -0.0448  0.0393
17412TIP3   OH273650   3.124   6.227   0.740  0.3750  0.4227 -0.4512
17412TIP3    H173651   3.205   6.273   0.762  0.0137  0.7280  0.2991
17412TIP3    H273652   3.150   6.159   0.679  1.2466  0.3306  0.0191
17413TIP3   OH273653   1.577   4.863   0.355 -0.3507 -0.2361 -0.0213
17413TIP3    H173654   1.618   4.949   0.349  0.2414 -0.4204  1.0356
17413TIP3    H273655   1.651   4.801   0.352 -0.8102 -0.7640 -1.4592
17414TIP3   OH273656   1.899   0.051  16.405  0.1542 -0.1998  0.4817
17414TIP3    H173657   1.970  -0.011  16.390 -0.8903 -2.2180  3.1465
17414TIP3    H273658   1.822  -0.003  16.418 -1.5620  1.8630 -0.4228
17415TIP3   OH273659   1.521   1.851   6.311  0.4212  0.0187 -0.3177
17415TIP3    H173660   1.477   1.767   6.322 -1.3522  1.0011  0.3052
17415TIP3    H273661   1.451   1.915   6.300  1.7229  1.4581 -0.7176
17416TIP3   OH273662   2.404   3.721   4.648  0.0247 -0.2095  0.2128
17416TIP3    H173663   2.450   3.659   4.704  0.2076 -0.7960 -0.5702
17416TIP3    H273664   2.356   3.778   4.709  0.9845 -0.2159  0.9941
17417TIP3   OH273665   1.366   2.493  17.003  0.4857 -0.5337  0.3577
17417TIP3    H173666   1.402   2.448  17.080 -1.1122  1.0559  2.1636
17417TIP3    H273667   1.272   2.479  17.009  0.2855  0.1445 -0.9656
17418TIP3   OH273668   4.257   5.706   6.043  0.4848  0.3787 -0.0869
17418TIP3    H173669   4.344   5.721   6.006 -0.0972 -0.1950 -1.8233
17418TIP3    H273670   4.273   5.653   6.121  1.6419 -0.8752 -1.1131
17419TIP3   OH273671   5.247   2.083   5.017 -0.0442 -0.1554  0.0874
17419TIP3    H173672   5.197   2.062   5.096 -0.3742  1.7046  0.4287
17419TIP3    H273673   5.296   2.003   4.997  0.0085 -0.6903  2.1400
17420TIP3   OH273674   5.197   6.345  15.657  0.4127 -0.2833  0.6957
17420TIP3    H173675   5.125   6.351  15.594  0.8423  1.9850  0.3253
17420TIP3    H273676   5.177   6.412  15.723  1.8535 -0.0508  0.9293
17421TIP3   OH273677   6.223   2.381  15.585  0.4050  0.6254 -0.8005
17421TIP3    H173678   6.303   2.332  15.602 -0.1327 -0.4108 -1.1905
17421TIP3    H273679   6.250   2.473  15.591  1.5722  0.2952 -0.7256
17422TIP3   OH273680   0.646   3.005  15.328 -0.1623  0.7619 -0.0410
17422TIP3    H173681   0.566   3.005  15.380  0.0537  1.6068  0.3050
17422TIP3    H273682   0.629   2.943  15.257 -1.3476  1.3889 -0.3151
17423TIP3   OH273683   3.724   4.877  15.752 -0.1241  0.3294 -0.2779
17423TIP3    H173684   3.687   4.965  15.755  0.7028  0.6631  0.2286
17423TIP3    H273685   3.804   4.886  15.701  1.2935  0.3872  1.8464
17424TIP3   OH273686   5.766   0.325   2.916 -0.2859  0.0703  0.0711
17424TIP3    H173687   5.806   0.285   2.993  1.6131  1.3643 -0.1715
17424TIP3    H273688   5.677   0.290   2.914  0.3474 -1.7850  1.5107
17425TIP3   OH273689   5.563   0.728  14.724  0.5359 -0.1711 -0.2582
17425TIP3    H173690   5.473   0.750  14.701 -0.0139 -1.3783  0.6378
17425TIP3    H273691   5.557   0.690  14.811  2.2016  1.5882  0.6991
17426TIP3   OH273692   2.366   2.006   3.233 -0.7682 -0.5619 -0.7173
17426TIP3    H173693   2.402   1.917   3.224  0.8537  0.0841 -0.8265
17426TIP3    H273694   2.271   1.992   3.235 -0.5712 -2.2628 -1.1358
17427TIP3   OH273695   3.229   5.390   4.673 -0.4729  0.8511  0.4085
17427TIP3    H173696   3.234   5.361   4.764 -0.0551  0.2134  0.1864
17427TIP3    H273697   3.186   5.318   4.626 -2.2789  1.8795  0.3875
17428TIP3   OH273698   5.147   1.305   3.981 -0.5222 -0.4036  0.1840
17428TIP3    H173699   5.128   1.259   4.063  0.0771 -1.7195 -0.3946
17428TIP3    H273700   5.131   1.397   4.002  0.6604 -0.5625  2.1061
17429TIP3   OH273701   0.191   2.147   3.256 -0.1971 -0.3554  0.2863
17429TIP3    H173702   0.112   2.096   3.241 -2.9808  2.4018  3.8962
17429TIP3    H273703   0.176   2.230   3.211  1.2266 -0.1829  0.0591
17430TIP3   OH273704   4.728   0.824   3.768  0.5666  0.2245 -0.0047
17430TIP3    H173705   4.695   0.757   3.828  1.3702 -0.1778 -0.0064
17430TIP3    H273706   4.819   0.801   3.753  1.1937  1.9320  0.8559
17431TIP3   OH273707   0.553   6.013  12.064  0.2718  0.3435  0.0047
17431TIP3    H173708   0.467   6.042  12.034  0.5141  1.1257  0.0522
17431TIP3    H273709   0.535   5.935  12.118 -0.4651  0.8962  0.5709
17432TIP3   OH273710   6.545   4.331  14.476  0.0686  0.2265  0.8995
17432TIP3    H173711   6.461   4.353  14.516  0.1427  2.7722 -0.1369
17432TIP3    H273712   6.529   4.249  14.429 -1.5896  0.2304  1.4052
17433TIP3   OH273713   4.723   1.583  15.971 -0.5593 -0.1479  0.1912
17433TIP3    H173714   4.684   1.597  15.885  1.1094  1.6392 -0.3523
17433TIP3    H273715   4.762   1.496  15.966 -1.3161 -0.4614 -0.5067
17434TIP3   OH273716   0.366   1.824  13.654  0.1580  0.2407 -0.6238
17434TIP3    H173717   0.276   1.854  13.665 -0.1993 -0.6003 -1.1698
17434TIP3    H273718   0.419   1.888  13.702 -0.9099 -0.5372  1.7321
17435TIP3   OH273719   3.813   4.361   0.804  0.3398 -0.2589  0.5516
17435TIP3    H173720   3.773   4.347   0.718 -0.0567 -1.3733  0.9080
17435TIP3    H273721   3.794   4.453   0.824 -0.4281 -0.2624 -0.1046
17436TIP3   OH273722   4.508   0.488   3.135  0.5824 -0.3085  0.5115
17436TIP3    H173723   4.571   0.493   3.063 -0.5944  1.5578 -0.4748
17436TIP3    H273724   4.494   0.579   3.161  0.8143 -0.9274  3.0128
17437TIP3   OH273725   5.212   3.892  12.981  0.1553 -0.1097 -0.5145
17437TIP3    H173726   5.276   3.958  12.953  0.9522 -0.1227  1.1439
17437TIP3    H273727   5.161   3.935  13.049 -0.8357 -0.5037 -0.9854
17438TIP3   OH273728   4.677   1.857   5.950  0.8007 -0.4902 -0.5213
17438TIP3    H173729   4.624   1.872   5.872 -0.2557 -2.1259 -0.1722
17438TIP3    H273730   4.722   1.941   5.965  0.8815 -0.0706 -2.7272
17439TIP3   OH273731   3.745   4.497   5.930  0.0654  0.6916  0.3784
17439TIP3    H173732   3.718   4.536   5.846  0.6361 -1.2214 -0.7569
17439TIP3    H273733   3.734   4.567   5.993 -1.3759  1.9088 -1.1226
17440TIP3   OH273734   2.999   2.366   1.786 -0.1417  0.1721  0.3312
17440TIP3    H173735   3.094   2.359   1.777  0.0070 -0.3812  2.0003
17440TIP3    H273736   2.964   2.293   1.735  0.3747 -0.2389  0.5655
17441TIP3   OH273737   2.711   2.125  11.135  0.2954 -0.1206 -0.3209
17441TIP3    H173738   2.719   2.219  11.117  2.2467 -0.2373 -0.2439
17441TIP3    H273739   2.801   2.095  11.148 -0.2326 -2.1539 -1.0127
17442TIP3   OH273740   4.026   5.776  13.953 -0.3271 -0.2008  0.3467
17442TIP3    H173741   4.087   5.848  13.942 -2.0923  1.6311  1.6373
17442TIP3    H273742   3.998   5.753  13.865  2.1034 -1.0750 -0.2677
17443TIP3   OH273743   5.548   6.191   0.691 -0.2991 -0.5985  0.9983
17443TIP3    H173744   5.612   6.162   0.626  0.4478 -0.4508  1.6584
17443TIP3    H273745   5.600   6.217   0.766 -1.0648  0.7376  1.0903
17444TIP3   OH273746   5.660   0.162   2.382 -0.7882  0.3830 -0.0640
17444TIP3    H173747   5.600   0.198   2.448 -0.9185 -0.2785  0.1895
17444TIP3    H273748   5.639   0.211   2.302 -2.1554 -0.2893 -0.1525
17445TIP3   OH273749   5.738   1.977   5.104 -0.3665  0.2634  0.2441
17445TIP3    H173750   5.713   1.905   5.162 -0.8512  0.6509  0.5269
17445TIP3    H273751   5.670   2.043   5.118 -1.0012  0.0076 -1.4403
17446TIP3   OH273752   0.117   3.932   0.548 -0.6216  0.1201 -0.1505
17446TIP3    H173753   0.184   3.919   0.481 -1.5197  0.1049 -1.0665
17446TIP3    H273754   0.052   3.863   0.531 -0.9515  0.2366  0.6114
17447TIP3   OH273755   0.573   6.164   4.838 -0.3951  0.0616  0.2874
17447TIP3    H173756   0.560   6.078   4.879  0.6523 -0.6029 -0.7275
17447TIP3    H273757   0.485   6.201   4.833 -0.8690 -0.9660  0.7039
17448TIP3   OH273758   6.658   0.484  11.526  0.4174  0.2868 -0.0559
17448TIP3    H173759   6.742   0.530  11.527  0.7391 -0.2865  1.3274
17448TIP3    H273760   6.612   0.520  11.450  2.1217  0.2208 -1.1896
17449TIP3   OH273761   6.721   1.447   4.171  0.5874 -0.2216  0.3138
17449TIP3    H173762   6.684   1.395   4.099  0.1588 -0.7674  0.9208
17449TIP3    H273763   6.811   1.416   4.178  1.1450  0.9467 -1.0116
17450TIP3   OH273764   6.252   6.690   3.750  0.1329 -0.0467 -0.7456
17450TIP3    H173765   6.247   6.723   3.661 -0.3835 -2.5085 -1.6929
17450TIP3    H273766   6.313   6.617   3.745  0.0220 -0.2868  0.9079
17451TIP3   OH273767   4.424   4.182  14.778 -0.0255  0.9001  0.1496
17451TIP3    H173768   4.423   4.223  14.692  1.2368 -0.2500 -0.4639
17451TIP3    H273769   4.415   4.088  14.760 -0.7256  0.7173  1.3414
17452TIP3   OH273770   0.942   1.855  12.951 -0.2436 -0.0762  0.5130
17452TIP3    H173771   1.003   1.899  12.891 -0.4182  0.1425  0.4943
17452TIP3    H273772   0.998   1.811  13.015  0.0090 -1.6607 -0.7270
17453TIP3   OH273773   4.529   2.703   3.890 -0.0303 -0.0965 -0.0976
17453TIP3    H173774   4.574   2.710   3.805  0.2188  1.4399  0.1410
17453TIP3    H273775   4.454   2.761   3.881 -0.9075 -1.1692  0.1903
17454TIP3   OH273776   6.268   6.538  13.114 -0.0948  0.1539 -0.2127
17454TIP3    H173777   6.343   6.560  13.058  0.2064  3.7378  1.3452
17454TIP3    H273778   6.194   6.529  13.054  1.1835 -1.8136 -1.6158
17455TIP3   OH273779   0.095   0.689  16.429  0.0736  0.7275  0.1877
17455TIP3    H173780   0.124   0.657  16.344  0.8244 -1.5410  1.2154
17455TIP3    H273781   0.176   0.705  16.477 -0.3446  1.0740  0.7905
17456TIP3   OH273782   1.909   3.293  15.903  0.6063  0.2356 -0.0824
17456TIP3    H173783   1.842   3.331  15.960  0.1858  1.8322 -1.5381
17456TIP3    H273784   1.989   3.338  15.927  0.5583  0.4397 -0.2992
17457TIP3   OH273785   6.564   0.734  16.140  0.4060 -0.9309 -0.1001
17457TIP3    H173786   6.568   0.821  16.181  0.1866 -0.0356 -1.8696
17457TIP3    H273787   6.536   0.676  16.210 -2.3624  0.9127  0.4866
17458TIP3   OH273788   2.278   1.110  14.653  0.2840  0.3701  0.6727
17458TIP3    H173789   2.187   1.127  14.680  0.2437 -0.5579  1.1766
17458TIP3    H273790   2.328   1.178  14.697 -0.0301  0.1072  1.4776
17459TIP3   OH273791   5.507   6.614  13.086 -0.0530 -0.3788 -0.2384
17459TIP3    H173792   5.600   6.638  13.082 -0.5801  1.8662  0.0929
17459TIP3    H273793   5.498   6.545  13.020  1.5154  0.5880 -1.5422
17460TIP3   OH273794   1.136   3.855   6.855  0.1322  0.5365  0.8018
17460TIP3    H173795   1.207   3.805   6.894 -0.0276  0.2869  0.7739
17460TIP3    H273796   1.063   3.794   6.850  0.5020  0.1677 -1.0333
17461TIP3   OH273797   5.922   6.344   2.153 -0.6675  0.4446 -0.0628
17461TIP3    H173798   5.942   6.386   2.237 -0.6922  0.0784  0.1284
17461TIP3    H273799   5.937   6.412   2.088  2.0280 -0.0216 -0.0371
17462TIP3   OH273800   4.856   6.333  14.194 -0.3283 -0.2318  0.3755
17462TIP3    H173801   4.911   6.348  14.271  0.2412  1.7528 -0.3814
17462TIP3    H273802   4.915   6.297  14.128 -0.5536 -0.7356  0.4406
17463TIP3   OH273803   0.207   2.724   2.376 -0.6292 -0.2486 -0.1282
17463TIP3    H173804   0.280   2.730   2.315 -0.0860  0.6359  0.5791
17463TIP3    H273805   0.136   2.685   2.325  0.1653 -0.6407 -0.9750
17464TIP3   OH273806   4.084   4.364  16.666  0.4653  0.1250 -0.2325
17464TIP3    H173807   4.165   4.407  16.695  0.2540 -0.4573  1.3272
17464TIP3    H273808   4.099   4.271  16.684  1.0597 -0.6422 -3.8489
17465TIP3   OH273809   1.322   2.010  11.425 -0.0253  0.7527 -0.5789
17465TIP3    H173810   1.318   2.019  11.520  0.2976  0.4560 -0.5350
17465TIP3    H273811   1.348   2.096  11.393  0.3517  0.7227 -0.3608
17466TIP3   OH273812   6.565   4.927  15.259 -0.1982 -0.0565  0.0215
17466TIP3    H173813   6.652   4.960  15.281  0.2523 -0.1697 -1.4465
17466TIP3    H273814   6.507   4.970  15.322  0.8945  0.0796  0.9822
17467TIP3   OH273815   6.437   0.775   2.920  0.3786 -0.1274 -0.1866
17467TIP3    H173816   6.484   0.720   2.982 -0.4414  0.9471  1.4435
17467TIP3    H273817   6.349   0.738   2.917  1.0634 -1.8063 -2.8207
17468TIP3   OH273818   4.833   0.213  10.820 -0.2030  0.0493 -0.0744
17468TIP3    H173819   4.811   0.132  10.774 -1.2314  0.0493  0.3903
17468TIP3    H273820   4.929   0.215  10.821 -0.1700 -0.8196 -0.6779
17469TIP3   OH273821   0.348   0.612  14.243 -0.2241  0.1185  0.9125
17469TIP3    H173822   0.329   0.677  14.312 -1.1355 -1.2625  2.0124
17469TIP3    H273823   0.292   0.639  14.170 -1.1514  0.1950  1.6148
17470TIP3   OH273824   5.091   0.605   1.973  0.7301  0.0386 -0.1874
17470TIP3    H173825   5.034   0.681   1.959 -1.8586 -1.4958  1.2524
17470TIP3    H273826   5.077   0.551   1.895 -4.3056 -2.8363  2.1756
17471TIP3   OH273827   4.926   4.429  13.733  0.2210  0.8350  0.4788
17471TIP3    H173828   4.952   4.521  13.734  0.5867  0.7308  0.6815
17471TIP3    H273829   4.967   4.393  13.654 -1.9889  1.4219 -1.0442
17472TIP3   OH273830   3.601   2.499  15.577 -0.0800 -0.0268  0.6277
17472TIP3    H173831   3.583   2.418  15.624  0.7955  0.4213  1.7861
17472TIP3    H273832   3.692   2.520  15.600 -0.5439  1.6903  0.9947
17473TIP3   OH273833   2.815   5.837  11.559  0.0752  0.3967 -0.0286
17473TIP3    H173834   2.807   5.930  11.578 -1.8232  0.2427  0.1674
17473TIP3    H273835   2.725   5.810  11.539  0.2970 -1.7350  1.5553
17474TIP3   OH273836   2.066   3.807   1.864  0.4115  0.3450  0.4168
17474TIP3    H173837   2.102   3.851   1.941 -0.7881  1.4506  0.3917
17474TIP3    H273838   2.081   3.868   1.792 -0.9100  0.5571  0.2990
17475TIP3   OH273839   3.594   5.845   2.635 -0.2542 -0.5142 -0.0300
17475TIP3    H173840   3.668   5.870   2.690  0.0698 -2.1650  0.3372
17475TIP3    H273841   3.625   5.767   2.587 -0.1900  1.3147 -3.2732
17476TIP3   OH273842   2.304   5.489   2.639 -0.5260 -0.2188 -0.0496
17476TIP3    H173843   2.259   5.500   2.555 -0.2890  0.5455 -0.0823
17476TIP3    H273844   2.295   5.396   2.659 -1.9257 -0.1379 -0.1670
17477TIP3   OH273845   5.113   6.613   3.708 -0.4393 -0.8152 -0.0021
17477TIP3    H173846   5.203   6.640   3.690 -0.0371 -2.2681 -0.2632
17477TIP3    H273847   5.059   6.685   3.674  0.6020 -0.0466 -0.0666
17478TIP3   OH273848   4.156   1.148   4.432 -0.1453  0.1645 -0.0468
17478TIP3    H173849   4.246   1.167   4.408  0.4560 -1.0496  1.1199
17478TIP3    H273850   4.136   1.065   4.389 -1.0350  0.8605 -1.0267
17479TIP3   OH273851   0.530   5.801   1.393  0.3540  0.1549 -0.8288
17479TIP3    H173852   0.531   5.895   1.376 -1.8207  0.6067  1.0317
17479TIP3    H273853   0.579   5.791   1.474  3.4278 -0.8571 -2.6443
17480TIP3   OH273854   5.524   4.220   3.896 -0.4700 -0.0167 -0.3605
17480TIP3    H173855   5.503   4.133   3.932  1.1329 -0.6919 -0.9738
17480TIP3    H273856   5.619   4.225   3.899 -0.5273  1.7965 -0.2371
17481TIP3   OH273857   3.097   6.604  16.888 -0.3736  0.3079  0.4839
17481TIP3    H173858   3.146   6.615  16.970 -0.6799  1.1770  0.5640
17481TIP3    H273859   3.152   6.647  16.822 -0.7443  0.7686  0.4714
17482TIP3   OH273860   0.442   0.687  15.036  0.1891 -0.6775  0.4009
17482TIP3    H173861   0.520   0.674  15.091  0.0143  0.7429  1.0295
17482TIP3    H273862   0.457   0.770  14.993 -1.9590  0.8170  2.2970
17483TIP3   OH273863   5.620   3.977  14.804  0.2784  0.2697  0.1561
17483TIP3    H173864   5.581   4.047  14.855  0.5459 -0.6600  1.6985
17483TIP3    H273865   5.603   3.897  14.854  3.3761 -0.2984  0.5500
17484TIP3   OH273866   2.941   6.104  16.637  0.4742  0.2973 -0.1683
17484TIP3    H173867   2.990   6.086  16.717 -1.5879 -0.5868  0.9777
17484TIP3    H273868   2.945   6.199  16.626  1.9392  0.2981  0.1675
17485TIP3   OH273869   4.137   1.761   1.044  0.0435  0.0280 -0.2679
17485TIP3    H173870   4.128   1.856   1.051 -1.2976 -0.0904  0.0688
17485TIP3    H273871   4.074   1.736   0.976  2.1930 -0.4016 -2.2248
17486TIP3   OH273872   5.846   4.910   2.076 -0.8777 -0.7984 -0.3453
17486TIP3    H173873   5.817   4.945   1.992 -0.7562 -0.3303 -0.1942
17486TIP3    H273874   5.843   4.985   2.136 -0.9403 -1.1204  0.0638
17487TIP3   OH273875   1.020   4.486  14.525 -0.6465 -0.0776  0.8880
17487TIP3    H173876   1.051   4.535  14.601 -1.2227  0.4704  0.7757
17487TIP3    H273877   1.069   4.523  14.451 -1.7675  1.0167  0.6613
17488TIP3   OH273878   2.251   1.587   3.290  0.1751  0.0433  0.8079
17488TIP3    H173879   2.237   1.624   3.203 -0.9429  1.2175  1.4531
17488TIP3    H273880   2.200   1.505   3.289 -0.5417  0.4810  0.6292
17489TIP3   OH273881   2.942   5.944  15.565  0.2264 -0.7829  0.1015
17489TIP3    H173882   3.007   5.929  15.633  0.1468  1.5894  0.7999
17489TIP3    H273883   2.965   5.882  15.495  0.7040 -2.8191  1.9598
17490TIP3   OH273884   0.940   3.126   1.789  0.0262  0.5528  0.2147
17490TIP3    H173885   0.904   3.100   1.704 -0.1348 -0.1169  0.4811
17490TIP3    H273886   0.999   3.055   1.813 -1.7009 -0.4593  1.7398
17491TIP3   OH273887   1.308   1.297   5.658 -0.1362  0.0229  0.0171
17491TIP3    H173888   1.396   1.325   5.633 -0.1262 -0.3281 -0.3540
17491TIP3    H273889   1.307   1.303   5.753 -0.0461  1.0174 -0.0349
17492TIP3   OH273890   5.093   5.124  11.415  0.1299  0.2423 -0.1628
17492TIP3    H173891   5.007   5.081  11.414 -0.0455  0.5644 -1.6902
17492TIP3    H273892   5.084   5.196  11.353  0.2852  2.8805  2.6847
17493TIP3   OH273893   0.080   1.252   2.777  0.1908 -0.0007 -0.0717
17493TIP3    H173894   0.164   1.295   2.791 -0.0148 -0.2637  2.3596
17493TIP3    H273895   0.016   1.323   2.786  0.0811  0.2703 -2.2609
17494TIP3   OH273896   0.139   1.962  13.728  0.6748  0.3978 -0.3654
17494TIP3    H173897   0.061   1.907  13.730  2.4463 -2.3663 -0.1779
17494TIP3    H273898   0.156   1.984  13.819  0.3635  0.6562 -0.3670
17495TIP3   OH273899   5.839   2.293  12.673 -0.4890  0.3402 -0.2701
17495TIP3    H173900   5.792   2.223  12.627  2.1103 -0.8834 -1.2145
17495TIP3    H273901   5.873   2.349  12.603  0.0123  0.8254  0.3537
17496TIP3   OH273902   5.615   0.473   4.384  0.2755 -0.5038 -0.4413
17496TIP3    H173903   5.530   0.443   4.418 -0.6314  2.1945 -0.0569
17496TIP3    H273904   5.592   0.543   4.323  2.2243 -0.6376 -1.3952
17497TIP3   OH273905   5.882   0.118   1.612 -0.0470  0.0974  0.9497
17497TIP3    H173906   5.887   0.032   1.571 -1.8765 -0.1301  1.0925
17497TIP3    H273907   5.902   0.180   1.542  1.9755 -0.4310  1.0124
17498TIP3   OH273908   2.135   3.315  16.261 -0.2284 -0.6191 -0.2476
17498TIP3    H173909   2.229   3.319  16.279 -0.0704  2.0089 -1.1968
17498TIP3    H273910   2.094   3.322  16.347  0.4039 -1.9692  0.1891
17499TIP3   OH273911   1.666   1.155   6.136 -0.4729  0.7939 -1.0912
17499TIP3    H173912   1.697   1.116   6.054 -0.1968  1.0327 -1.0999
17499TIP3    H273913   1.583   1.109   6.154 -0.5023  0.6947 -1.4682
17500TIP3   OH273914   4.619   4.359  13.707 -0.4315  0.7927 -0.0535
17500TIP3    H173915   4.564   4.416  13.654 -0.8735 -2.0518 -3.0231
17500TIP3    H273916   4.707   4.396  13.699 -0.8799  1.7222 -0.8639
17501TIP3   OH273917   1.251   5.754   4.010  0.2768  0.3520 -0.5074
17501TIP3    H173918   1.253   5.784   3.920 -1.4270  0.6000 -0.5085
17501TIP3    H273919   1.213   5.666   4.006  0.2745  0.3268 -0.0451
17502TIP3   OH273920   6.593   3.525   2.184  0.3845 -0.1198 -0.3079
17502TIP3    H173921   6.666   3.587   2.189 -1.4139  2.0738  0.7164
17502TIP3    H273922   6.527   3.570   2.131 -1.4114 -0.5937  1.3702
17503TIP3   OH273923   2.335   6.469   6.126  0.7458  0.1701 -0.1317
17503TIP3    H173924   2.428   6.488   6.112  0.5787  0.5073 -0.8222
17503TIP3    H273925   2.320   6.487   6.219  1.2351  0.6806 -0.1502
17504TIP3   OH273926   0.279   2.759  11.590  0.2616  0.2290  0.2218
17504TIP3    H173927   0.252   2.850  11.600 -1.7581 -0.2921  0.0250
17504TIP3    H273928   0.210   2.709  11.633  0.0239 -1.2808 -1.7418
17505TIP3   OH273929   1.188   6.343   5.996 -0.2972 -0.2108  0.3602
17505TIP3    H173930   1.158   6.349   6.086 -0.2841 -0.9425  0.4171
17505TIP3    H273931   1.120   6.292   5.951 -0.1895 -0.0515  0.0094
17506TIP3   OH273932   5.014   2.256   3.576 -0.2363 -0.0437  0.0355
17506TIP3    H173933   5.106   2.247   3.554 -0.1625 -0.3925  0.4545
17506TIP3    H273934   5.005   2.208   3.659 -0.7567  0.1289  0.0827
17507TIP3   OH273935   3.595   4.702  14.323 -0.4732 -0.0513  0.3223
17507TIP3    H173936   3.628   4.679  14.237 -0.1066 -0.5474  0.5941
17507TIP3    H273937   3.643   4.782  14.347  0.2357 -0.5366  0.5381
17508TIP3   OH273938   0.475   0.064  11.517 -0.1446  0.0692 -0.4188
17508TIP3    H173939   0.405   0.129  11.512  0.0547  0.2359 -1.2333
17508TIP3    H273940   0.542   0.097  11.457 -0.4550 -1.3786 -1.6207
17509TIP3   OH273941   1.757   4.135  15.215  0.4755 -0.6063 -0.4434
17509TIP3    H173942   1.769   4.074  15.142  0.3916 -0.7647 -0.3250
17509TIP3    H273943   1.663   4.154  15.214 -0.2533 -3.3773  1.8059
17510TIP3   OH273944   6.653   6.539   3.311 -0.1028  0.3367 -0.1409
17510TIP3    H173945   6.712   6.484   3.259  1.1536  0.0776  1.4741
17510TIP3    H273946   6.708   6.610   3.343 -0.1617 -0.7327  2.6859
17511TIP3   OH273947   1.855   1.032   4.845  0.3614 -0.3349 -0.0012
17511TIP3    H173948   1.933   1.012   4.793  1.3287  0.4253  1.0901
17511TIP3    H273949   1.832   0.949   4.886 -1.7252 -1.5101 -3.1794
17512TIP3   OH273950   3.599   5.613   2.526 -0.3237  0.5609 -0.2792
17512TIP3    H173951   3.557   5.550   2.585 -0.7913 -0.3709 -1.5672
17512TIP3    H273952   3.690   5.584   2.521 -0.5829 -0.1586 -1.0258
17513TIP3   OH273953   3.718   1.132  13.426 -0.8337 -0.2619  0.1244
17513TIP3    H173954   3.666   1.202  13.466  0.5713  1.5217 -1.0171
17513TIP3    H273955   3.728   1.159  13.334  1.5115 -0.8457  0.1412
17514TIP3   OH273956   4.759   3.584  10.672 -0.2524 -0.4618  0.2780
17514TIP3    H173957   4.806   3.537  10.740 -0.8422 -0.6412  0.5675
17514TIP3    H273958   4.792   3.673  10.677 -0.3735 -0.4471  0.8752
17515TIP3   OH273959   0.086   6.220  13.026 -0.4897  0.4105 -0.3148
17515TIP3    H173960   0.165   6.167  13.028  1.1102  2.6780  0.2984
17515TIP3    H273961   0.071   6.244  13.118 -0.9746  1.2906 -0.6165
17516TIP3   OH273962   4.670   5.781  12.213  0.7498 -0.4384 -0.0872
17516TIP3    H173963   4.673   5.853  12.150  1.1661  0.3521  0.8038
17516TIP3    H273964   4.580   5.751  12.212  0.4944  0.3210 -0.2397
17517TIP3   OH273965   5.020   0.039   5.335  0.2194 -0.2144 -0.1181
17517TIP3    H173966   5.113   0.024   5.351  0.7192  1.9636 -0.6757
17517TIP3    H273967   5.005   0.130   5.360 -1.7765 -0.5083 -0.0470
17518TIP3   OH273968   1.542   5.422  10.808  0.1502 -0.3213  0.1197
17518TIP3    H173969   1.490   5.501  10.800 -0.1593 -0.0173  3.7526
17518TIP3    H273970   1.478   5.351  10.803  0.2251 -0.3263 -1.3904
17519TIP3   OH273971   5.844   3.413  16.847 -0.3663  0.3425  0.0665
17519TIP3    H173972   5.904   3.481  16.876 -0.6852  0.7668 -0.2529
17519TIP3    H273973   5.801   3.384  16.927 -0.0418  0.3333  0.2390
17520TIP3   OH273974   5.962   6.072   1.482 -0.2368  0.6633  0.6449
17520TIP3    H173975   5.984   6.125   1.558 -0.0139  2.1551 -0.4303
17520TIP3    H273976   6.004   6.116   1.408 -0.6396 -0.6174 -0.3898
17521TIP3   OH273977   3.126   5.313   2.714  0.3341  0.3236  0.3548
17521TIP3    H173978   3.079   5.306   2.797 -0.3422 -2.0038 -0.1471
17521TIP3    H273979   3.064   5.354   2.654 -0.1013 -0.2830  0.3829
17522TIP3   OH273980   5.626   0.324   0.796  0.1920 -0.0747 -0.4869
17522TIP3    H173981   5.648   0.272   0.874  0.0474 -1.0457 -1.0779
17522TIP3    H273982   5.640   0.264   0.723 -2.6957 -0.2305 -1.0391
17523TIP3   OH273983   2.298   1.538  14.118  0.3642 -0.6481  0.8685
17523TIP3    H173984   2.315   1.535  14.024 -0.6191  0.3097  0.6323
17523TIP3    H273985   2.332   1.456  14.152  3.8717  0.4031  0.2433
17524TIP3   OH273986   5.254   0.986   5.076 -0.4228  0.2874  0.1456
17524TIP3    H173987   5.334   1.029   5.045 -0.1604  0.6032  1.2121
17524TIP3    H273988   5.258   0.898   5.037 -0.0900  0.6463 -0.6569
17525TIP3   OH273989   2.102   2.395  15.077  0.7688 -0.0799  0.3061
17525TIP3    H173990   2.062   2.481  15.063 -0.5739 -1.1432 -4.3514
17525TIP3    H273991   2.043   2.351  15.138 -0.6563  1.1082 -0.1403
17526TIP3   OH273992   0.175   2.197  13.573 -0.0715 -0.3273 -0.0546
17526TIP3    H173993   0.145   2.117  13.618  0.4730 -1.2183 -1.2375
17526TIP3    H273994   0.249   2.228  13.625  0.8353 -1.6019 -0.5478
17527TIP3   OH273995   3.150   1.995  13.544  0.2248 -0.7188 -0.2293
17527TIP3    H173996   3.206   1.930  13.500  1.3435 -0.7408  1.1562
17527TIP3    H273997   3.169   2.077  13.499  1.9610 -0.5868  0.6340
17528TIP3   OH273998   0.154   3.770   5.492 -0.1065  0.8871  0.3169
17528TIP3    H173999   0.224   3.746   5.552  1.1363  0.0396 -1.3685
17528TIP3    H274000   0.101   3.690   5.484  0.4423  0.5918 -0.5871
17529TIP3   OH274001   5.905   3.572   0.472 -0.3989 -0.0938 -0.1592
17529TIP3    H174002   5.957   3.499   0.505 -1.4413 -0.2674  1.2398
17529TIP3    H274003   5.967   3.644   0.463  0.2798 -0.5993  0.4030
17530TIP3   OH274004   6.553   6.193   4.173  0.0930 -0.2434  0.1071
17530TIP3    H174005   6.610   6.118   4.187 -1.2941 -1.0929  1.4057
17530TIP3    H274006   6.471   6.155   4.139 -0.3688  0.7551  0.0694
17531TIP3   OH274007   5.849   4.633   5.820  0.0326  0.1217 -0.0124
17531TIP3    H174008   5.843   4.684   5.901 -2.0287 -0.0595 -0.0017
17531TIP3    H274009   5.758   4.618   5.794  0.6300 -1.1154 -1.5603
17532TIP3   OH274010   0.365   0.557   5.814  0.3105 -0.8450 -0.0037
17532TIP3    H174011   0.281   0.526   5.847 -0.1316  0.1417 -0.1721
17532TIP3    H274012   0.394   0.488   5.755 -0.2286 -1.3414  0.3041
17533TIP3   OH274013   4.444   4.018  14.448  0.4318 -0.2310 -0.2152
17533TIP3    H174014   4.518   4.012  14.388 -0.7801  1.1501 -1.9405
17533TIP3    H274015   4.420   4.111  14.448 -2.1871 -0.8193 -0.8676
17534TIP3   OH274016   1.904   4.346   3.773  0.0359 -0.4517 -0.7211
17534TIP3    H174017   1.850   4.375   3.700  1.4460 -0.5185 -1.8424
17534TIP3    H274018   1.930   4.257   3.750 -2.0172 -1.6907  1.3834
17535TIP3   OH274019   2.941   5.947   1.649 -1.0249  0.1550  0.1048
17535TIP3    H174020   2.877   5.885   1.682  0.7365 -0.9582  1.6384
17535TIP3    H274021   2.991   5.898   1.583 -1.0863  0.6897 -0.3482
17536TIP3   OH274022   0.038   0.822  11.931 -0.1545 -0.0023 -0.3564
17536TIP3    H174023   0.120   0.808  11.884  1.0897 -0.5045  1.7989
17536TIP3    H274024  -0.014   0.744  11.911  0.1911 -0.0328 -1.1700
17537TIP3   OH274025   1.336   1.701  16.187  0.1892  0.7334 -0.1007
17537TIP3    H174026   1.427   1.694  16.158 -0.0842  0.6224 -0.9771
17537TIP3    H274027   1.285   1.683  16.108 -0.5913  1.5144  0.2180
17538TIP3   OH274028   4.508   5.191   5.376 -0.3430 -0.3331  0.0570
17538TIP3    H174029   4.452   5.168   5.302 -2.4075 -0.8652  1.6687
17538TIP3    H274030   4.566   5.115   5.387 -0.3220 -0.4368 -0.7221
17539TIP3   OH274031   0.684   6.433  17.017  0.1749  1.0310  0.0073
17539TIP3    H174032   0.670   6.510  16.963  2.8493  0.6234 -1.3941
17539TIP3    H274033   0.698   6.362  16.955  1.6407  0.1938  1.2297
17540TIP3   OH274034   0.217   1.393  16.803  0.0626  0.1792 -0.1080
17540TIP3    H174035   0.220   1.426  16.714 -1.1273  0.0158 -0.2341
17540TIP3    H274036   0.133   1.347  16.808  1.4310 -2.4619  0.1825
17541TIP3   OH274037   6.233   2.515   4.611  0.1702 -0.0519 -0.2072
17541TIP3    H174038   6.203   2.437   4.564  0.2955  0.5600 -1.3347
17541TIP3    H274039   6.154   2.548   4.654  0.2741 -1.2316  0.9603
17542TIP3   OH274040   1.219   1.259  11.540  0.1365  0.0861  0.2814
17542TIP3    H174041   1.261   1.341  11.517  0.8091 -0.8747 -2.2180
17542TIP3    H274042   1.281   1.217  11.600  1.1266  0.1993 -0.6348
17543TIP3   OH274043   6.019   3.681   5.095 -0.2550 -0.4677  0.1122
17543TIP3    H174044   5.965   3.713   5.023 -0.9621 -0.1003  0.7967
17543TIP3    H274045   5.978   3.716   5.174  0.1222 -1.4090  0.7448
17544TIP3   OH274046   3.732   1.254  16.389  0.3805 -0.6907 -0.2506
17544TIP3    H174047   3.792   1.327  16.375  1.1332 -1.0765  0.8426
17544TIP3    H274048   3.684   1.276  16.469  0.8675 -1.5426  0.2925
17545TIP3   OH274049   5.827   5.971  15.279  0.7146 -0.1848  0.4700
17545TIP3    H174050   5.764   5.971  15.352  1.2887  1.0080  0.9980
17545TIP3    H274051   5.849   6.063  15.267 -1.1686 -0.0123 -2.8412
17546TIP3   OH274052   3.408   6.042  14.546 -0.0472 -0.9598 -0.1071
17546TIP3    H174053   3.489   6.091  14.558 -0.5038 -0.1303 -0.3475
17546TIP3    H274054   3.341   6.109  14.531 -0.4750 -1.7027 -1.6731
17547TIP3   OH274055   4.709   0.856   5.836 -0.1929  0.1324  0.3520
17547TIP3    H174056   4.756   0.779   5.803  0.3713  0.2577  0.8413
17547TIP3    H274057   4.707   0.917   5.763  0.4774  0.1494  0.3411
17548TIP3   OH274058   4.196   2.708   3.026  0.3971  0.6655 -0.1566
17548TIP3    H174059   4.232   2.685   2.940  0.3221  1.1631 -0.3229
17548TIP3    H274060   4.141   2.784   3.009 -0.4577  0.1241  0.1620
17549TIP3   OH274061   6.504   1.774   4.952  0.6516  0.2341  0.0697
17549TIP3    H174062   6.448   1.831   4.899 -0.5773 -1.1154 -0.1517
17549TIP3    H274063   6.557   1.728   4.887 -3.1471 -3.9316 -0.6003
17550TIP3   OH274064   5.446   6.320   5.059 -0.5740  0.5874 -0.6544
17550TIP3    H174065   5.468   6.333   4.967  0.5209 -1.8603 -0.7955
17550TIP3    H274066   5.511   6.372   5.107 -1.8551  2.8381 -1.1633
17551TIP3   OH274067   6.098   6.672  14.541  0.2685  0.1340  0.3801
17551TIP3    H174068   6.170   6.699  14.599  0.9481 -0.9007  0.0460
17551TIP3    H274069   6.083   6.580  14.562 -0.2736  0.0664 -0.2657
17552TIP3   OH274070   5.643   1.402   3.514  0.0172  0.2162  0.1559
17552TIP3    H174071   5.614   1.330   3.458  1.2404  0.6649 -1.1086
17552TIP3    H274072   5.572   1.466   3.508 -0.8105 -0.6049  0.8183
17553TIP3   OH274073   3.222   4.000  14.052 -0.0342  0.6906  0.5421
17553TIP3    H174074   3.164   4.045  13.990 -0.4420 -0.4015  0.1059
17553TIP3    H274075   3.240   3.916  14.010  1.6531  0.8947  0.7941
17554TIP3   OH274076   4.119   3.124  16.554 -0.2810 -0.3995  0.0096
17554TIP3    H174077   4.197   3.177  16.568 -0.9117  0.8309 -0.8657
17554TIP3    H274078   4.150   3.034  16.551  0.7542 -0.1720  2.1959
17555TIP3   OH274079   1.641   5.571   5.151 -0.0172 -0.0709  0.0675
17555TIP3    H174080   1.587   5.552   5.074  0.6849 -1.8466 -0.0478
17555TIP3    H274081   1.582   5.612   5.213 -1.4780 -1.7293 -0.1451
17556TIP3   OH274082   2.607   5.877  17.250  0.0284  0.0750 -0.1216
17556TIP3    H174083   2.668   5.883  17.177 -0.8209 -1.5667 -1.0220
17556TIP3    H274084   2.554   5.957  17.244  1.2216  0.8810 -0.1116
17557TIP3   OH274085   2.049   4.236   5.740 -0.1270 -0.6657 -0.2069
17557TIP3    H174086   2.054   4.304   5.808  0.8731 -1.0863  0.1575
17557TIP3    H274087   2.132   4.241   5.694 -0.8016 -0.3783 -1.4394
17558TIP3   OH274088   0.456   0.164  13.310 -0.6955  0.0060 -0.8564
17558TIP3    H174089   0.419   0.100  13.371  0.8091 -0.3124 -0.2546
17558TIP3    H274090   0.492   0.111  13.239 -0.4890  0.2465 -0.9300
17559TIP3   OH274091   6.537   0.619  11.328 -0.4746  0.1494  0.0287
17559TIP3    H174092   6.449   0.592  11.302 -0.0679  0.3385 -1.7216
17559TIP3    H274093   6.543   0.711  11.301  0.1150  0.2578  0.5088
17560TIP3   OH274094   3.981   6.305  13.136 -0.1932  0.4194 -0.1165
17560TIP3    H174095   3.994   6.257  13.217  1.0749  0.8480 -0.0411
17560TIP3    H274096   3.926   6.380  13.160  0.5302  0.7818  0.4550
17561TIP3   OH274097   5.999   2.412  12.261  0.0803 -0.4506  0.2934
17561TIP3    H174098   5.921   2.425  12.206  1.2009 -1.9518 -1.8323
17561TIP3    H274099   6.067   2.387  12.199  2.5019  1.5166  1.9771
17562TIP3   OH274100   3.670   6.069  14.627  0.1293  0.3084 -0.3657
17562TIP3    H174101   3.703   6.142  14.574  1.3389  1.7861  2.2191
17562TIP3    H274102   3.747   6.016  14.644 -0.3851 -0.5308 -0.6039
17563TIP3   OH274103   3.987   1.216  11.160  0.4344  0.8782 -0.2619
17563TIP3    H174104   4.058   1.236  11.100  1.3371 -1.8383 -0.2296
17563TIP3    H274105   3.907   1.222  11.107  1.0692  0.1580 -1.3291
17564TIP3   OH274106   6.063   4.496  17.247 -0.2911 -0.0789  0.0448
17564TIP3    H174107   6.050   4.409  17.211 -0.2248 -0.1305  0.1431
17564TIP3    H274108   6.157   4.511  17.240 -0.1785 -0.3735  0.8396
17565TIP3   OH274109   2.949   5.563   4.245 -0.1444  0.2769 -0.0404
17565TIP3    H174110   2.941   5.551   4.340 -0.4130 -0.2735 -0.1288
17565TIP3    H274111   2.861   5.588   4.216 -0.8691 -2.5991 -0.5649
17566TIP3   OH274112   5.721   4.978  13.126  0.2893 -0.2820  0.3104
17566TIP3    H174113   5.690   5.056  13.172  0.6412  0.7177 -1.0726
17566TIP3    H274114   5.642   4.926  13.112 -0.3467  0.8818 -0.6540
17567TIP3   OH274115   0.943   2.467  13.321  0.0806  0.1111  0.0388
17567TIP3    H174116   0.879   2.453  13.251 -0.3901 -1.1248  0.6749
17567TIP3    H274117   1.023   2.494  13.276 -1.0227  2.3111 -0.7417
17568TIP3   OH274118   5.358   0.216  15.451  0.2662  0.3162  0.6262
17568TIP3    H174119   5.385   0.126  15.435  1.7637  0.6427  1.1503
17568TIP3    H274120   5.274   0.208  15.498  0.3211 -0.7886  0.5606
17569TIP3   OH274121   0.999   2.708   3.762  0.6074 -0.2935  0.8769
17569TIP3    H174122   0.990   2.632   3.819 -0.6625 -1.1517 -0.3674
17569TIP3    H274123   0.932   2.695   3.694 -0.3513  2.4439  1.1483
17570TIP3   OH274124   0.424   4.008  10.587  0.1245  0.3594  0.3449
17570TIP3    H174125   0.378   4.091  10.578 -0.8260  0.0683  1.9858
17570TIP3    H274126   0.421   3.989  10.681  2.8892 -0.1184  0.4206
17571TIP3   OH274127   1.589   1.533   6.096  0.3595 -0.8970  0.3080
17571TIP3    H174128   1.506   1.569   6.130  0.7080 -0.3953  0.6366
17571TIP3    H274129   1.655   1.565   6.157  0.6063 -2.7379  1.0725
17572TIP3   OH274130   0.466   2.034  14.490  0.1301 -0.1307  1.0444
17572TIP3    H174131   0.469   2.023  14.395 -2.1462 -0.3608  0.9314
17572TIP3    H274132   0.474   1.945  14.524 -0.8094 -0.2580  0.9606
17573TIP3   OH274133   3.235   3.090   0.148 -0.5385 -0.1080 -0.0259
17573TIP3    H174134   3.245   3.063   0.057 -0.4133  3.3626 -1.2016
17573TIP3    H274135   3.307   3.151   0.163 -0.9636 -0.0694  2.1701
17574TIP3   OH274136   4.253   3.410  12.725 -0.2579 -0.7913  0.7776
17574TIP3    H174137   4.308   3.429  12.801 -2.1144 -3.7539  3.1099
17574TIP3    H274138   4.290   3.329  12.688 -0.3454 -0.2736 -0.4901
17575TIP3   OH274139   5.235   5.036   1.797 -0.3716 -0.0184  0.6074
17575TIP3    H174140   5.187   5.071   1.872 -1.2655  0.1926 -0.0358
17575TIP3    H274141   5.310   5.095   1.787 -1.0550  0.8508  0.4413
17576TIP3   OH274142   1.787   0.588  16.695  0.1845 -0.3274 -0.2323
17576TIP3    H174143   1.699   0.561  16.722  0.4882 -2.2608 -1.0083
17576TIP3    H274144   1.844   0.518  16.726  1.2239  0.0336 -1.2606
17577TIP3   OH274145   0.147   3.865  15.899  0.3946 -0.0860  0.1138
17577TIP3    H174146   0.091   3.854  15.976 -0.0913  0.0502 -0.2117
17577TIP3    H274147   0.175   3.956  15.903  3.2240 -0.9179  2.0084
17578TIP3   OH274148   5.593   6.071   0.258 -0.4158  0.0194  0.2934
17578TIP3    H174149   5.554   6.133   0.320  0.8616  1.0462  0.1079
17578TIP3    H274150   5.595   5.988   0.305 -0.1369  0.6220  1.3707
17579TIP3   OH274151   4.055   0.109  13.345 -0.3539  0.5822 -0.0641
17579TIP3    H174152   4.003   0.100  13.425  0.7037  0.7973  0.6628
17579TIP3    H274153   4.118   0.178  13.364  1.1338 -0.6228 -0.4095
17580TIP3   OH274154   0.518   4.745  16.985 -0.8640 -0.0298  0.1532
17580TIP3    H174155   0.604   4.702  16.980 -0.5617  0.5955 -0.0703
17580TIP3    H274156   0.457   4.679  16.951 -0.0823  0.6102 -2.7967
17581TIP3   OH274157   3.394   4.900  13.887  0.0187 -0.1293  0.1748
17581TIP3    H174158   3.329   4.889  13.956  1.0419 -1.8966  0.9165
17581TIP3    H274159   3.404   4.995  13.879 -1.2074  0.1387  1.4070
17582TIP3   OH274160   0.962   2.685  15.161  0.8466  0.1075 -0.3860
17582TIP3    H174161   1.052   2.662  15.137  0.6864 -0.1917 -0.7201
17582TIP3    H274162   0.949   2.772  15.123  0.7450 -0.1728 -1.0206
17583TIP3   OH274163   3.174   3.837  13.799 -0.2188 -0.0198 -0.8110
17583TIP3    H174164   3.087   3.834  13.761 -0.3552  2.9720 -0.9533
17583TIP3    H274165   3.230   3.791  13.736 -1.5931 -1.6607 -0.8860
17584TIP3   OH274166   6.007   1.398   2.838 -0.1704  0.0796  0.4837
17584TIP3    H174167   5.971   1.372   2.923 -1.0390 -3.1197 -0.7205
17584TIP3    H274168   5.944   1.365   2.774  1.0135  1.4081 -1.4898
17585TIP3   OH274169   3.510   2.907   3.249  0.3308  0.2688  0.0800
17585TIP3    H174170   3.421   2.869   3.251  1.0937 -1.6354  0.4025
17585TIP3    H274171   3.500   2.993   3.290 -1.1335 -0.4753  1.4252
17586TIP3   OH274172   6.410   4.158   3.829  0.1614 -0.1413  0.3978
17586TIP3    H174173   6.480   4.181   3.890  0.8130  0.8379 -0.6867
17586TIP3    H274174   6.452   4.157   3.743 -1.1766  0.5832 -0.2890
17587TIP3   OH274175   2.907   1.296   4.988 -0.1485  0.1674  0.0639
17587TIP3    H174176   2.858   1.368   5.027 -0.5481 -1.1787  2.2192
17587TIP3    H274177   2.942   1.248   5.062  1.4739 -0.9575 -1.3511
17588TIP3   OH274178   5.336   4.005  15.122 -0.1759  0.2083  0.2258
17588TIP3    H174179   5.293   4.078  15.078 -1.4121  0.0877  1.1620
17588TIP3    H274180   5.385   4.046  15.194 -0.6157  0.1634  0.5590
17589TIP3   OH274181   0.181   2.992   2.518  0.0026  0.3663 -0.3883
17589TIP3    H174182   0.151   2.911   2.478 -1.0308 -0.5034  1.9943
17589TIP3    H274183   0.116   3.057   2.491 -0.2519 -0.0179 -0.7153
17590TIP3   OH274184   2.938   5.507  16.551 -0.1752 -0.7615  0.3232
17590TIP3    H174185   2.881   5.501  16.474 -0.2792  2.1097  0.0469
17590TIP3    H274186   3.020   5.541  16.517  0.5341 -1.5370  1.2115
17591TIP3   OH274187   2.482   3.228   2.521  0.1391 -0.1775 -0.1546
17591TIP3    H174188   2.400   3.270   2.548 -0.4472 -1.3218 -0.1300
17591TIP3    H274189   2.456   3.162   2.458  1.1859  0.2849 -1.1006
17592TIP3   OH274190   6.566   3.271  13.890  0.0961 -0.1137 -0.1364
17592TIP3    H174191   6.514   3.310  13.960 -0.3662 -0.1379 -0.4614
17592TIP3    H274192   6.600   3.346  13.841 -1.5229 -0.0944 -1.2980
17593TIP3   OH274193   4.929   0.163  13.695 -0.3169 -0.1080  0.5462
17593TIP3    H174194   4.899   0.084  13.739  0.6418 -0.8777 -0.1361
17593TIP3    H274195   5.016   0.180  13.732  1.0617 -1.4813 -1.7986
17594TIP3   OH274196   6.072   0.194   0.556  0.1971 -0.4112 -0.3023
17594TIP3    H174197   6.141   0.238   0.605 -0.2488 -0.4510  0.3676
17594TIP3    H274198   6.116   0.120   0.514  0.9795  0.7224 -1.5425
17595TIP3   OH274199   2.383   4.904  10.810 -0.1294 -0.1851 -0.0034
17595TIP3    H174200   2.440   4.961  10.758 -0.3838 -1.6486 -2.0176
17595TIP3    H274201   2.297   4.914  10.770 -0.8675  0.3989  1.6614
17596TIP3   OH274202   3.377   3.062  11.594 -0.2152 -0.3925  0.3391
17596TIP3    H174203   3.407   3.149  11.621 -0.0158 -0.2228 -0.3927
17596TIP3    H274204   3.371   3.068  11.499 -0.2517 -1.1652  0.2892
17597TIP3   OH274205   2.756   0.388  15.572 -0.3913  0.1133 -0.0000
17597TIP3    H174206   2.756   0.465  15.514  0.4957 -0.4948 -0.8421
17597TIP3    H274207   2.776   0.314  15.514 -1.8015 -0.8522  0.6985
17598TIP3   OH274208   1.010   6.374  12.531  0.2563  0.7128  0.1003
17598TIP3    H174209   1.047   6.389  12.444  1.8979  0.2437  0.6833
17598TIP3    H274210   1.041   6.448  12.583 -0.3159  0.7391  0.4116
17599TIP3   OH274211   5.108   1.330   5.681 -0.3191  0.7250 -0.6385
17599TIP3    H174212   5.051   1.404   5.702 -0.4741  0.4488 -0.0862
17599TIP3    H274213   5.176   1.333   5.748 -0.1421  0.5575 -0.8094
17600TIP3   OH274214   5.454   0.239   5.783  0.3278  0.3552 -0.6242
17600TIP3    H174215   5.489   0.226   5.871  0.0537 -0.2498 -0.6010
17600TIP3    H274216   5.361   0.221   5.792  0.3093  0.2383 -1.0497
17601TIP3   OH274217   3.094   3.027   5.289 -0.3342  0.6499  0.0296
17601TIP3    H174218   3.163   2.996   5.348 -0.2270 -1.2863 -1.0197
17601TIP3    H274219   3.032   2.954   5.283  0.3582  0.1469 -3.2604
17602TIP3   OH274220   3.054   2.937   6.812 -0.1167 -0.3917  0.2540
17602TIP3    H174221   3.127   2.993   6.839  1.6906 -2.7621  0.5641
17602TIP3    H274222   2.989   2.998   6.776 -0.5429  2.5120  5.0610
17603TIP3   OH274223   5.238   5.056  13.977 -0.5494  0.0235  0.0798
17603TIP3    H174224   5.330   5.031  13.983 -0.3486  0.0699 -1.9180
17603TIP3    H274225   5.236   5.148  14.004  0.2149  0.3666 -0.9520
17604TIP3   OH274226   1.436   4.478  13.936 -0.1787  0.0836  0.4256
17604TIP3    H174227   1.520   4.487  13.980 -0.6343  0.4740  1.2389
17604TIP3    H274228   1.396   4.400  13.976  0.6410 -1.3688 -1.4142
17605TIP3   OH274229   1.718   1.122  16.714  0.0570  0.2348  0.5590
17605TIP3    H174230   1.711   1.218  16.710  0.9364  0.4081  2.5924
17605TIP3    H274231   1.628   1.092  16.700 -0.4708  1.4143  1.2831
17606TIP3   OH274232   3.251   2.131   3.788  0.3620 -0.7061 -0.0246
17606TIP3    H174233   3.304   2.120   3.867 -0.4718 -1.8784  0.4000
17606TIP3    H274234   3.199   2.210   3.805 -0.7363 -1.6369  1.1858
17607TIP3   OH274235   3.050   0.813   1.760 -0.1322  0.3728 -0.0457
17607TIP3    H174236   3.040   0.855   1.674 -1.3125 -1.0569 -0.6489
17607TIP3    H274237   3.049   0.719   1.741  0.0346  0.0334  1.4988
17608TIP3   OH274238   0.961   3.466  10.946  0.0010  0.3355  0.4526
17608TIP3    H174239   1.056   3.470  10.954 -0.0664  3.2415  0.6384
17608TIP3    H274240   0.942   3.497  10.858 -0.8161  0.9924  0.8445
17609TIP3   OH274241   1.400   5.305   4.866  0.0731 -0.2961 -0.1510
17609TIP3    H174242   1.348   5.353   4.931 -0.6249 -1.1908 -0.0294
17609TIP3    H274243   1.345   5.302   4.788 -1.0692 -3.1200  0.6457
17610TIP3   OH274244   1.729   5.519  13.495  0.1700  0.1014  0.4338
17610TIP3    H174245   1.811   5.524  13.543  0.1605 -1.0236  0.5739
17610TIP3    H274246   1.696   5.431  13.511 -0.1933 -0.0565 -1.0458
17611TIP3   OH274247   4.202   3.944  15.087 -0.7152  0.2049 -0.3642
17611TIP3    H174248   4.278   3.920  15.034 -2.3180 -0.3150 -2.5223
17611TIP3    H274249   4.156   3.861  15.101  0.5001 -0.0562  3.4709
17612TIP3   OH274250   3.234   5.788  16.211 -0.0145  0.0767 -0.2133
17612TIP3    H174251   3.144   5.798  16.181 -0.1582  0.3580  0.3037
17612TIP3    H274252   3.240   5.843  16.289  0.6243  0.1143 -0.2846
17613TIP3   OH274253   5.362   2.226   1.804 -0.0877  0.2702 -0.3614
17613TIP3    H174254   5.407   2.283   1.867  1.3509 -1.1730  0.0242
17613TIP3    H274255   5.285   2.195   1.851 -0.6344  1.5220 -0.4139
17614TIP3   OH274256   4.571   0.938  13.694  0.2624  0.0283 -0.1103
17614TIP3    H174257   4.520   0.939  13.613 -0.5432 -0.4382  0.3772
17614TIP3    H274258   4.524   0.999  13.752  0.4295 -0.1776  0.2442
17615TIP3   OH274259   6.125   5.092   0.683 -0.1460 -0.5151 -0.1597
17615TIP3    H174260   6.188   5.156   0.717 -0.6760  0.1189 -0.3556
17615TIP3    H274261   6.042   5.139   0.680 -0.4434 -1.0615 -0.7912
17616TIP3   OH274262   2.690   0.667   3.441 -0.4940 -0.4223  0.7276
17616TIP3    H174263   2.661   0.632   3.357 -0.1482 -1.3908  0.9898
17616TIP3    H274264   2.781   0.693   3.426 -1.2932  2.2663  0.0054
17617TIP3   OH274265   5.836   3.906  17.060  0.3425  0.4019 -0.2758
17617TIP3    H174266   5.832   3.976  16.995  1.1568  1.4261  0.7296
17617TIP3    H274267   5.747   3.900  17.094  0.5265  1.9196  0.5801
17618TIP3   OH274268   1.981   1.529   2.510 -0.4837 -0.3549  0.1453
17618TIP3    H174269   1.967   1.501   2.420 -1.7095  0.3884  0.0834
17618TIP3    H274270   2.074   1.512   2.527 -0.6516 -2.2352 -0.6333
17619TIP3   OH274271   6.606   2.937   4.035 -0.4591  0.1319 -0.0064
17619TIP3    H174272   6.615   2.842   4.036  0.7145  0.2367  1.0925
17619TIP3    H274273   6.695   2.970   4.038 -0.8614  1.2791 -0.0351
17620TIP3   OH274274   5.632   6.162  15.799  0.2755 -0.5145  0.0720
17620TIP3    H174275   5.673   6.075  15.805  0.6605 -0.3990 -0.7389
17620TIP3    H274276   5.547   6.146  15.758  1.1362 -0.3163 -1.9427
17621TIP3   OH274277   2.025   5.947  12.588  0.0667 -0.0742 -0.3085
17621TIP3    H174278   1.930   5.958  12.594 -0.1179 -1.9910  1.9961
17621TIP3    H274279   2.056   5.955  12.678  1.7355 -1.9121 -0.6472
17622TIP3   OH274280   6.217   6.475  11.577  0.2783 -0.3228 -0.8220
17622TIP3    H174281   6.186   6.394  11.617  0.5123 -0.7780 -1.5622
17622TIP3    H274282   6.289   6.503  11.634 -0.6650  0.0976  0.2061
17623TIP3   OH274283   0.613   3.157  14.117 -0.3291 -0.2764  0.1958
17623TIP3    H174284   0.695   3.112  14.137  0.2109 -0.9171 -2.9263
17623TIP3    H274285   0.598   3.214  14.192  2.0337 -1.4179  1.6575
17624TIP3   OH274286   4.554   5.470   1.094  0.0275 -0.5718  0.3059
17624TIP3    H174287   4.562   5.375   1.095  0.9231 -0.6302 -2.8854
17624TIP3    H274288   4.643   5.501   1.081 -0.4773  0.6099 -0.4480
17625TIP3   OH274289   3.880   3.044   5.841 -0.4423  0.0616  0.0200
17625TIP3    H174290   3.834   3.078   5.764  0.2622 -0.1851 -0.5271
17625TIP3    H274291   3.830   3.077   5.916 -0.9966  0.5146 -0.5375
17626TIP3   OH274292   0.917   4.466  16.656  0.0257  0.8227 -0.0328
17626TIP3    H174293   0.963   4.519  16.720  2.2430 -0.4503 -0.4766
17626TIP3    H274294   0.861   4.408  16.708  1.3161  0.2442  0.7596
17627TIP3   OH274295   4.699   3.281  13.396 -0.1002 -0.3464  0.2045
17627TIP3    H174296   4.745   3.197  13.400 -0.0503 -0.2790  1.5376
17627TIP3    H274297   4.705   3.307  13.304  1.2144 -1.0642  0.0543
17628TIP3   OH274298   0.762   0.091   2.933  0.3151 -0.3752  0.4222
17628TIP3    H174299   0.776   0.047   3.016  1.8526  0.5340  0.7023
17628TIP3    H274300   0.791   0.028   2.867  1.3844 -0.2456  0.7447
17629TIP3   OH274301   0.701   2.259   1.128  0.2432  0.5113 -0.3273
17629TIP3    H174302   0.680   2.348   1.102  0.3892  0.4170 -0.7604
17629TIP3    H274303   0.789   2.264   1.165 -0.0082  0.6644  0.2705
17630TIP3   OH274304   2.907   0.938   1.320 -0.3384  0.2444  0.4798
17630TIP3    H174305   2.933   0.849   1.295  1.1398  0.5192  0.9263
17630TIP3    H274306   2.877   0.978   1.239  0.3533 -0.2119 -0.0145
17631TIP3   OH274307   0.995   4.900   4.695 -0.0880 -0.4625  0.2208
17631TIP3    H174308   0.936   4.875   4.766  0.0184  0.7034  0.7372
17631TIP3    H274309   1.060   4.958   4.736  1.1203 -1.2896 -0.4431
17632TIP3   OH274310   2.011   6.492  14.387  0.5790  0.2136  0.8702
17632TIP3    H174311   1.938   6.554  14.390  1.1624  1.0156 -0.4116
17632TIP3    H274312   2.074   6.526  14.451  0.2815  0.1100  1.2217
17633TIP3   OH274313   4.979   3.507  11.838 -0.4478 -0.0783 -0.1740
17633TIP3    H174314   4.983   3.412  11.849  2.1106 -0.0457 -0.4215
17633TIP3    H274315   4.894   3.522  11.796 -1.2706 -2.1520  0.6062
17634TIP3   OH274316   5.785   5.804  14.675 -0.3533  0.7508  0.1972
17634TIP3    H174317   5.754   5.732  14.620  0.6142  0.1913  0.3597
17634TIP3    H274318   5.774   5.771  14.764  0.1637  0.7637  0.2699
17635TIP3   OH274319   1.053   2.341   0.120  0.1671  0.0784 -0.3992
17635TIP3    H174320   0.992   2.401   0.164  0.5371  0.8967 -0.9638
17635TIP3    H274321   1.000   2.265   0.097 -1.4621  1.9232 -3.4478
17636TIP3   OH274322   2.103   1.105  15.920 -0.1563 -0.2960  0.3053
17636TIP3    H174323   2.048   1.045  15.969 -2.9571  1.5091 -0.3711
17636TIP3    H274324   2.152   1.153  15.986 -0.8509 -0.6581  1.0993
17637TIP3   OH274325   5.121   5.239   1.509  0.3281  0.1750 -0.1363
17637TIP3    H174326   5.049   5.300   1.526 -0.2863 -0.2584 -1.0615
17637TIP3    H274327   5.165   5.274   1.432 -0.3735 -0.7921 -1.0256
17638TIP3   OH274328   5.412   0.715   4.566 -0.0316 -0.2550 -0.5472
17638TIP3    H174329   5.331   0.739   4.521 -0.3032 -2.0270 -1.0430
17638TIP3    H274330   5.397   0.626   4.598  0.6122  0.4634  1.9991
17639TIP3   OH274331   1.536   0.413   0.417 -0.3273  0.4845 -0.2724
17639TIP3    H174332   1.462   0.454   0.461  0.7051  0.1468  1.9482
17639TIP3    H274333   1.604   0.481   0.417  0.2472 -0.0833  0.2331
17640TIP3   OH274334   5.730   4.357  11.671 -0.2466  0.2818  0.2821
17640TIP3    H174335   5.661   4.377  11.734 -0.5908 -0.3298  0.1002
17640TIP3    H274336   5.742   4.439  11.622 -2.8998 -0.3760 -1.6779
17641TIP3   OH274337   5.943   3.415  16.533 -0.2188  0.0464 -0.2606
17641TIP3    H174338   6.037   3.432  16.530 -0.3405  0.5095 -1.9081
17641TIP3    H274339   5.937   3.320  16.545  0.4328  0.1723  1.3386
17642TIP3   OH274340   3.251   4.822   5.188 -0.2176  0.7613  0.0804
17642TIP3    H174341   3.279   4.852   5.102  2.6433 -0.9835  0.2726
17642TIP3    H274342   3.167   4.779   5.173 -0.7268  2.1931 -1.4321
17643TIP3   OH274343   3.788   1.231  13.128 -0.1112 -0.3430  0.5413
17643TIP3    H174344   3.882   1.241  13.112  0.3364 -4.1550 -0.3784
17643TIP3    H274345   3.756   1.186  13.050 -2.6558  0.4642  1.0368
17644TIP3   OH274346   4.289   2.315   5.509 -0.2235  0.5437  0.9204
17644TIP3    H174347   4.198   2.286   5.521 -0.1764 -0.3969 -0.5784
17644TIP3    H274348   4.284   2.410   5.509 -1.6001  0.5573 -1.1976
17645TIP3   OH274349   6.168   2.775  14.078  0.0445  0.1533  0.0348
17645TIP3    H174350   6.138   2.806  13.993 -0.0257  0.8487  0.3027
17645TIP3    H274351   6.251   2.732  14.060 -1.1801 -2.0251 -0.7578
17646TIP3   OH274352   3.074   3.049  15.340 -0.6188  0.3828  0.0013
17646TIP3    H174353   3.142   3.103  15.381  0.0052 -0.4239  0.0669
17646TIP3    H274354   3.087   3.061  15.246  1.0080 -1.3672 -0.0558
17647TIP3   OH274355   3.281   3.997   5.475  0.5352 -0.6450 -0.0117
17647TIP3    H174356   3.367   4.019   5.439  1.0021 -1.1372  0.7620
17647TIP3    H274357   3.289   3.905   5.501 -0.3687 -0.8224 -0.3393
17648TIP3   OH274358   3.952   5.057   4.479 -0.0738  1.2422  0.1679
17648TIP3    H174359   3.897   5.040   4.403 -0.1235 -1.6336  0.7299
17648TIP3    H274360   3.899   5.112   4.536 -1.8316 -0.1771 -0.0092
17649TIP3   OH274361   1.778   5.794  16.138  0.5468 -0.2554  0.1623
17649TIP3    H174362   1.737   5.729  16.196  0.7450 -0.6738 -0.1590
17649TIP3    H274363   1.705   5.830  16.088  0.2977  0.5300  1.0768
17650TIP3   OH274364   0.233   5.816   0.560 -0.3222  0.7128 -0.3483
17650TIP3    H174365   0.173   5.812   0.485 -0.7224  0.7824 -0.0371
17650TIP3    H274366   0.276   5.901   0.552 -1.6529  1.4933  0.4635
17651TIP3   OH274367   2.992   1.031  16.611  0.5945  0.3242 -0.0609
17651TIP3    H174368   3.057   0.998  16.549  0.7682 -1.6281  1.0877
17651TIP3    H274369   2.915   1.050  16.557  0.8723 -0.9367 -0.9287
17652TIP3   OH274370   4.559   4.013   0.581  0.0323 -0.0183  0.5732
17652TIP3    H174371   4.534   4.051   0.665  0.5007 -0.1200  0.7603
17652TIP3    H274372   4.654   4.024   0.577 -0.1980  1.9384 -0.9024
17653TIP3   OH274373   1.319   0.457   5.763  0.4114 -0.4802  0.0484
17653TIP3    H174374   1.264   0.535   5.767  2.1293  0.8472 -0.7364
17653TIP3    H274375   1.354   0.447   5.851  0.2941 -0.2843  0.1166
17654TIP3   OH274376   2.923   1.505   5.743 -0.0322  0.4394 -0.4978
17654TIP3    H174377   3.014   1.499   5.716  0.6940 -0.2728  1.8817
17654TIP3    H274378   2.884   1.421   5.715  0.4883  0.0379 -0.0287
17655TIP3   OH274379   2.957   4.641   0.610  0.2570  0.0253 -0.0929
17655TIP3    H174380   2.948   4.603   0.523 -0.1197  1.7850 -0.8786
17655TIP3    H274381   2.887   4.601   0.662 -0.0031 -0.4588 -0.8127
17656TIP3   OH274382   0.265   5.460   2.651 -0.2049 -0.0932 -0.1718
17656TIP3    H174383   0.268   5.475   2.556  1.5244 -0.2328 -0.1806
17656TIP3    H274384   0.248   5.366   2.660  0.1849 -0.1868 -0.3701
17657TIP3   OH274385   1.629   6.385  15.838  0.3692  0.0695 -0.3735
17657TIP3    H174386   1.662   6.456  15.893  1.5474 -0.1358 -0.7839
17657TIP3    H274387   1.669   6.306  15.875  2.4410  0.0868 -2.4081
17658TIP3   OH274388   3.321   6.507  16.676 -0.1481 -0.0046 -0.3224
17658TIP3    H174389   3.401   6.559  16.682 -0.9151  1.3357 -1.2115
17658TIP3    H274390   3.316   6.461  16.760  0.6982  1.1634  0.3953
17659TIP3   OH274391   5.508   3.677   3.627 -0.1658 -0.4925  0.4027
17659TIP3    H174392   5.599   3.681   3.659 -0.1489  2.4067  0.2858
17659TIP3    H274393   5.455   3.683   3.707 -0.2672 -1.5366  0.4233
17660TIP3   OH274394   3.669   3.212   3.884 -0.1482  0.1056 -0.1932
17660TIP3    H174395   3.732   3.149   3.847  0.3100  0.6786 -0.3952
17660TIP3    H274396   3.709   3.239   3.967  0.1901  0.9555 -0.6236
17661TIP3   OH274397   0.997   2.323   4.390  0.1932  0.2011 -0.0978
17661TIP3    H174398   0.982   2.402   4.339 -0.5234  0.4954  0.5471
17661TIP3    H274399   1.060   2.351   4.458  0.2108  0.1300 -0.0855
17662TIP3   OH274400   3.955   0.331   6.096  0.3821 -0.8356 -0.0878
17662TIP3    H174401   3.887   0.285   6.145  1.5545 -1.3861  1.0837
17662TIP3    H274402   3.942   0.423   6.117  0.2617 -0.9818  0.4845
17663TIP3   OH274403   1.689   2.261   4.225 -0.1683  0.5140  0.2198
17663TIP3    H174404   1.673   2.209   4.146  1.8098  0.1310  0.0133
17663TIP3    H274405   1.638   2.219   4.293  0.3257 -0.8910 -0.2459
17664TIP3   OH274406   3.628   1.796   3.113  0.5040 -0.6357  0.9846
17664TIP3    H174407   3.546   1.832   3.080  0.6812 -1.0175  0.1274
17664TIP3    H274408   3.601   1.734   3.181  0.1134 -0.4545  1.0031
17665TIP3   OH274409   1.523   0.097  14.640  0.4950 -0.4461  0.2634
17665TIP3    H174410   1.567   0.049  14.710 -0.2904 -1.1884  0.2682
17665TIP3    H274411   1.501   0.029  14.576 -0.5090 -0.0808  0.2065
17666TIP3   OH274412   4.569   4.228   5.717 -0.2149 -0.1416 -0.1343
17666TIP3    H174413   4.492   4.193   5.762  0.8713 -2.0558  0.3397
17666TIP3    H274414   4.549   4.321   5.705 -2.1979 -0.3915  0.7903
17667TIP3   OH274415   5.024   6.068   4.488  0.1259 -0.1392  0.8952
17667TIP3    H174416   5.022   6.148   4.541 -1.0442  1.5510 -1.4764
17667TIP3    H274417   4.933   6.036   4.490 -0.4268  1.0438 -1.4476
17668TIP3   OH274418   6.171   0.685   3.106 -0.2566  0.3171  0.1867
17668TIP3    H174419   6.165   0.735   3.024 -0.4584 -0.2146 -0.1346
17668TIP3    H274420   6.123   0.604   3.087  1.5974 -0.8161  0.0695
17669TIP3   OH274421   0.698   3.348   6.025 -0.1616 -0.6265  0.4320
17669TIP3    H174422   0.775   3.397   5.994  0.0801 -1.9780 -1.2626
17669TIP3    H274423   0.734   3.286   6.089 -0.0848 -0.3280  0.6859
17670TIP3   OH274424   0.481   1.271   2.478 -0.3649 -0.2196  0.2063
17670TIP3    H174425   0.511   1.357   2.447 -0.1011  0.0122  1.0687
17670TIP3    H274426   0.536   1.253   2.554 -0.3227 -1.2261 -0.0570
17671TIP3   OH274427   3.264   3.546   3.944 -0.3147 -0.4363  0.3148
17671TIP3    H174428   3.346   3.572   3.902 -0.8022 -0.5287 -0.7107
17671TIP3    H274429   3.219   3.493   3.879  0.2444 -3.2091  2.0042
17672TIP3   OH274430   4.314   5.648  11.110  0.0692 -0.8533  0.2164
17672TIP3    H174431   4.286   5.721  11.054  0.8185  0.0980  1.0463
17672TIP3    H274432   4.409   5.645  11.100 -0.0360 -2.4606 -0.6558
17673TIP3   OH274433   1.799   3.730   0.399 -0.1148 -0.0048 -0.8606
17673TIP3    H174434   1.790   3.795   0.469  0.8354  0.6790 -1.3595
17673TIP3    H274435   1.893   3.715   0.392 -0.1001  0.7494 -2.7168
17674TIP3   OH274436   1.087   1.912   2.729 -0.3958  0.1241 -0.5839
17674TIP3    H174437   1.096   1.818   2.739  0.1430 -0.0366 -2.3683
17674TIP3    H274438   1.177   1.946   2.732 -0.5123  0.4728 -0.8779
17675TIP3   OH274439   5.165   3.267  15.101 -0.3465 -0.5035 -0.4401
17675TIP3    H174440   5.214   3.348  15.087  0.9635 -1.2677 -0.4361
17675TIP3    H274441   5.153   3.263  15.196 -3.2342  1.2394 -0.6094
17676TIP3   OH274442   6.272   4.800  17.388 -0.3249 -0.4351  0.4164
17676TIP3    H174443   6.278   4.894  17.404  0.5014 -0.6214  1.2495
17676TIP3    H274444   6.178   4.782  17.388 -0.7988  0.9901 -3.5805
17677TIP3   OH274445   0.239   1.270   5.821 -0.0370  0.0727  0.0817
17677TIP3    H174446   0.328   1.260   5.855 -0.2315  1.3462  1.0300
17677TIP3    H274447   0.193   1.322   5.887 -1.4097 -0.3067 -0.5314
17678TIP3   OH274448   1.198   6.702  16.971 -0.0162  0.3196  0.1017
17678TIP3    H174449   1.273   6.761  16.979 -0.9448  1.5928 -0.2366
17678TIP3    H274450   1.228   6.620  17.010  1.7497  0.5973 -0.5610
17679TIP3   OH274451   1.461   6.463  13.258  0.5072  0.3530 -0.5599
17679TIP3    H174452   1.483   6.440  13.168 -0.9447  0.3747 -0.9564
17679TIP3    H274453   1.380   6.415  13.276  1.2488 -0.3550  1.0593
17680TIP3   OH274454   6.239   5.414  12.192  0.7108  0.6782  0.1020
17680TIP3    H174455   6.285   5.458  12.121  1.2560  0.2588  0.1822
17680TIP3    H274456   6.295   5.429  12.269  0.1857  1.0323  0.4188
17681TIP3   OH274457   1.033   1.175   4.263 -0.1321  0.0471  0.2650
17681TIP3    H174458   0.944   1.209   4.252  0.3728  1.3833  0.0549
17681TIP3    H274459   1.023   1.080   4.269 -1.4644  0.0808 -1.0061
17682TIP3   OH274460   4.452   5.651  12.247 -0.1515 -0.4516  0.1584
17682TIP3    H174461   4.445   5.569  12.296 -0.4308 -0.3662  0.2635
17682TIP3    H274462   4.363   5.686  12.247 -0.4324 -1.0454 -1.4330
17683TIP3   OH274463   6.384   0.991  13.845  0.0880  0.2768 -0.1979
17683TIP3    H174464   6.418   0.952  13.925  0.9902 -1.3300 -1.3093
17683TIP3    H274465   6.324   1.059  13.875  1.2686  0.5097  1.8303
17684TIP3   OH274466   5.844   1.250   2.627  0.2042  0.1117  0.0350
17684TIP3    H174467   5.792   1.169   2.629  0.4973 -0.0608  0.7514
17684TIP3    H274468   5.789   1.312   2.579  0.5805 -0.9158 -1.8276
17685TIP3   OH274469   1.414   4.898   2.276  0.3642 -0.1824  0.8025
17685TIP3    H174470   1.462   4.918   2.357  0.5789  2.2768  0.1411
17685TIP3    H274471   1.466   4.829   2.235  1.4597  0.0519  1.7259
17686TIP3   OH274472   3.491   1.296  13.536 -0.3685  0.4403 -0.4010
17686TIP3    H174473   3.416   1.242  13.559  1.2586 -1.7419  0.1236
17686TIP3    H274474   3.467   1.384  13.564 -3.6074  0.3271 -2.3586
17687TIP3   OH274475   1.050   3.913  16.000  0.4878 -0.3217  0.5001
17687TIP3    H174476   1.018   3.952  15.919  0.1373  1.4236  1.4357
17687TIP3    H274477   0.982   3.850  16.025 -0.1593  0.2547  0.2307
17688TIP3   OH274478   3.996   4.538   6.279  0.1762 -0.0693 -0.7434
17688TIP3    H174479   3.965   4.464   6.332  1.7911 -0.1176  0.1945
17688TIP3    H274480   3.999   4.504   6.189  1.8326 -1.4961 -0.1928
17689TIP3   OH274481   4.330   5.377  10.350 -0.3380 -0.1306  0.3769
17689TIP3    H174482   4.384   5.316  10.299 -0.8280  1.7737 -2.6876
17689TIP3    H274483   4.393   5.439  10.387 -0.1985  0.8840 -1.4652
17690TIP3   OH274484   6.644   5.917   5.624 -0.4704  0.1374 -0.0671
17690TIP3    H174485   6.567   5.961   5.658  0.1518  0.5980  0.7730
17690TIP3    H274486   6.691   5.886   5.701 -0.4283 -1.2226 -0.6006
17691TIP3   OH274487   1.478   2.721  13.031  0.7156 -0.0747  0.3062
17691TIP3    H174488   1.442   2.633  13.036  0.1333  0.1226 -0.1967
17691TIP3    H274489   1.565   2.710  12.992  0.8612 -0.4762  0.7465
17692TIP3   OH274490   4.962   3.772  10.902 -0.2854 -0.2345 -0.0073
17692TIP3    H174491   4.938   3.804  10.815 -0.7551 -0.9553 -0.1476
17692TIP3    H274492   5.024   3.701  10.886 -0.3932 -0.3847  0.2447
17693TIP3   OH274493   5.690   4.617  16.305 -0.1454 -0.6332  0.3315
17693TIP3    H174494   5.663   4.536  16.348  0.0069  0.0615  1.8029
17693TIP3    H274495   5.779   4.633  16.336  0.1163 -0.2959 -0.5618
17694TIP3   OH274496   0.842   1.286   2.034 -0.1338 -0.0475 -0.2878
17694TIP3    H174497   0.832   1.306   2.127  0.9663  2.1633 -0.5586
17694TIP3    H274498   0.902   1.353   2.002  0.7831 -1.7194 -2.2873
17695TIP3   OH274499   0.833   6.324  15.096 -0.0267  0.1387  0.2476
17695TIP3    H174500   0.919   6.321  15.053  0.9002 -0.2186  2.0521
17695TIP3    H274501   0.784   6.251  15.057  0.6070  0.1309 -0.5519
17696TIP3   OH274502   1.525   2.525  14.922  0.7889 -0.0417 -0.3625
17696TIP3    H174503   1.541   2.577  15.001  1.9924  0.3652 -0.8468
17696TIP3    H274504   1.611   2.492  14.898  0.4695  0.0090 -1.6240
17697TIP3   OH274505   1.610   4.239   2.124  0.0959 -0.9565 -0.0432
17697TIP3    H174506   1.634   4.261   2.034  2.6520 -1.1824  0.4878
17697TIP3    H274507   1.527   4.193   2.117 -0.2672 -0.0696 -2.1677
17698TIP3   OH274508   6.438   3.477  11.875 -0.0533 -0.1834  0.1392
17698TIP3    H174509   6.408   3.387  11.889  0.0409 -0.1108  0.8332
17698TIP3    H274510   6.471   3.505  11.960  4.1359 -1.0543 -0.9363
17699TIP3   OH274511   3.773   1.036   1.633  0.5063  0.6880  0.3639
17699TIP3    H174512   3.684   0.999   1.634  0.6696  0.3054  0.7751
17699TIP3    H274513   3.824   0.973   1.583  0.7172  0.5132  0.7961
17700TIP3   OH274514   2.586   2.949  15.931 -0.1050 -0.1792  0.3632
17700TIP3    H174515   2.540   2.989  15.857 -2.0490 -1.0112  1.0546
17700TIP3    H274516   2.673   2.928  15.896 -0.4295  0.8622 -1.2029
17701TIP3   OH274517   0.857   5.499   1.821 -0.0420 -0.2062  0.2202
17701TIP3    H174518   0.825   5.584   1.791 -2.6343 -1.2312 -0.1811
17701TIP3    H274519   0.949   5.498   1.795  0.3114  2.7426  0.9196
17702TIP3   OH274520   6.262   1.576   1.865  0.4260  0.2260 -0.6310
17702TIP3    H174521   6.311   1.624   1.799  0.5569  0.6091 -0.2606
17702TIP3    H274522   6.254   1.637   1.939 -1.6896  0.6700 -1.1433
17703TIP3   OH274523   2.777   0.806   5.168  0.4079 -0.4665  0.4514
17703TIP3    H174524   2.797   0.713   5.168 -2.0950 -1.0877  1.3701
17703TIP3    H274525   2.768   0.829   5.260 -0.4415  0.3097  0.1941
17704TIP3   OH274526   3.556   0.106  13.736 -0.9653  0.3337  0.0146
17704TIP3    H174527   3.626   0.046  13.760 -0.0612  1.2090 -0.3866
17704TIP3    H274528   3.492   0.051  13.691 -0.2308 -0.3553 -0.2179
17705TIP3   OH274529   6.649   5.617  13.281  0.3353 -0.3393  1.0314
17705TIP3    H174530   6.738   5.637  13.310  0.6582  2.4312 -1.3761
17705TIP3    H274531   6.593   5.672  13.335  0.6706  2.2731 -1.0761
17706TIP3   OH274532   1.892   3.546  16.272 -0.2025  0.0097 -0.0964
17706TIP3    H174533   1.901   3.627  16.221  0.1761  0.8601  1.2713
17706TIP3    H274534   1.978   3.535  16.313  0.5159 -2.3220 -1.9584
17707TIP3   OH274535   5.680   3.874   5.508  0.2250  0.4248  0.4150
17707TIP3    H174536   5.726   3.917   5.580 -1.4392  0.5066  1.4862
17707TIP3    H274537   5.602   3.927   5.494 -0.1885 -0.3872 -0.5066
17708TIP3   OH274538   4.973   4.693  12.170  0.0868 -0.0178 -0.8382
17708TIP3    H174539   4.965   4.736  12.085 -0.1390 -1.9306 -1.8339
17708TIP3    H274540   5.063   4.711  12.198  1.6207 -2.6698 -3.4694
17709TIP3   OH274541   3.024   0.680   1.184 -0.1123  0.4682 -0.5006
17709TIP3    H174542   2.976   0.711   1.108 -0.3714  1.0716 -0.1032
17709TIP3    H274543   3.069   0.601   1.154  1.1039  1.5806 -1.7286
17710TIP3   OH274544   2.124   3.162   1.394 -0.1064 -0.0292  0.3723
17710TIP3    H174545   2.214   3.192   1.402 -0.1859  0.2145  0.3775
17710TIP3    H274546   2.088   3.215   1.323 -0.2372 -0.1447  0.3525
17711TIP3   OH274547   5.364   6.461   0.978 -1.1273  0.2186 -0.2761
17711TIP3    H174548   5.278   6.494   1.005 -0.4440  1.9171 -0.1160
17711TIP3    H274549   5.361   6.465   0.882 -1.2038  0.2929 -0.2710
17712TIP3   OH274550   4.867   0.213  16.107 -0.2987 -0.0041  0.5716
17712TIP3    H174551   4.945   0.224  16.053 -0.4734 -1.3282  0.0079
17712TIP3    H274552   4.809   0.284  16.080 -0.9180 -1.3829 -1.9998
17713TIP3   OH274553   5.893   6.257   0.816  0.0905  0.1888  0.0254
17713TIP3    H174554   5.884   6.180   0.872  1.0048  0.9181  1.2318
17713TIP3    H274555   5.986   6.281   0.824 -0.4446  2.2033  0.7750
17714TIP3   OH274556   2.347   5.730   0.219 -0.1346 -0.1022  1.7021
17714TIP3    H174557   2.264   5.685   0.235  0.0583 -1.0809  0.1263
17714TIP3    H274558   2.413   5.674   0.259  0.1565 -1.5714 -0.6821
17715TIP3   OH274559   4.234   5.200   1.024  0.2191  0.0792  0.1760
17715TIP3    H174560   4.244   5.281   0.974  0.2900  0.7118  1.1892
17715TIP3    H274561   4.238   5.228   1.116  1.2152 -1.1805  0.5471
17716TIP3   OH274562   1.737   2.962   3.723 -0.1298 -0.4500 -0.0482
17716TIP3    H174563   1.714   2.890   3.781  0.3935 -2.4681 -2.1890
17716TIP3    H274564   1.660   2.974   3.668  0.8947 -1.6558 -1.8362
17717TIP3   OH274565   5.549   5.776  13.403  0.2361  0.3812 -0.2430
17717TIP3    H174566   5.526   5.860  13.364 -0.7647  0.2824  0.1067
17717TIP3    H274567   5.510   5.710  13.346  0.9679  0.1404 -0.4858
17718TIP3   OH274568   4.289   4.157   5.426 -0.1710 -0.5976  0.2673
17718TIP3    H174569   4.322   4.188   5.342 -1.0749  0.2871  0.2071
17718TIP3    H274570   4.234   4.229   5.458  1.1385 -0.3832  2.2212
17719TIP3   OH274571   5.872   1.226   7.084  0.1645 -0.0999 -0.4618
17719TIP3    H174572   5.861   1.320   7.096  0.0988 -0.3411  1.8970
17719TIP3    H274573   5.932   1.218   7.010  1.1712  1.8408  0.0719
17720TIP3   OH274574   6.333   0.756  14.298  0.6195  0.0281 -0.3679
17720TIP3    H174575   6.253   0.706  14.281  0.4656 -0.8132  2.2960
17720TIP3    H274576   6.331   0.827  14.234 -1.3764 -0.9465 -1.4787
17721TIP3   OH274577   5.571   1.041   3.581 -0.5234  0.6378 -0.2611
17721TIP3    H174578   5.618   1.087   3.511 -0.0814  1.2937  0.4541
17721TIP3    H274579   5.623   1.057   3.660 -0.4953 -0.8811  0.0700
17722TIP3   OH274580   0.123   1.970  11.034  0.2320  0.1631  0.3927
17722TIP3    H174581   0.035   1.985  11.071 -0.9812  2.1625 -2.9136
17722TIP3    H274582   0.122   1.878  11.007 -1.3832  0.4724 -0.7412
17723TIP3   OH274583   0.924   0.899  16.002  0.3237  0.0651 -0.2944
17723TIP3    H174584   0.842   0.925  16.043 -0.3042 -0.7782 -0.9842
17723TIP3    H274585   0.974   0.857  16.072 -0.4542 -0.7495 -0.2063
17724TIP3   OH274586   1.051   0.047  13.281  0.3519 -0.1503  0.2152
17724TIP3    H174587   1.132   0.068  13.235 -0.1287 -0.7288 -0.9156
17724TIP3    H274588   0.982   0.063  13.218 -0.3912 -0.1225  1.0217
17725TIP3   OH274589   2.613   1.868  16.056  0.0288  0.3774  0.2263
17725TIP3    H174590   2.573   1.954  16.068  1.0824  0.6908  1.6797
17725TIP3    H274591   2.673   1.858  16.130  1.3445 -0.8101 -0.9372
17726TIP3   OH274592   1.914   3.871  14.561  0.1346 -0.5543 -0.1279
17726TIP3    H174593   1.840   3.870  14.501 -1.5587 -0.5921  1.8330
17726TIP3    H274594   1.874   3.865  14.648  2.3131  1.5750  1.1390
17727TIP3   OH274595   0.061   4.774   1.275 -0.2695  0.8182 -0.2493
17727TIP3    H174596   0.012   4.735   1.203 -0.0278  1.5654 -0.8326
17727TIP3    H274597   0.133   4.713   1.291 -1.6246 -0.5445  0.9461
17728TIP3   OH274598   2.329   0.296  17.320 -0.0939 -0.3674 -0.2046
17728TIP3    H174599   2.398   0.360  17.334 -1.9092  1.1548  2.6330
17728TIP3    H274600   2.359   0.218  17.367  0.6516 -0.5261 -0.9131
17729TIP3   OH274601   1.469   1.934  13.000 -0.3354 -0.0873 -0.6827
17729TIP3    H174602   1.536   1.878  12.963 -0.3514  0.4393 -1.5364
17729TIP3    H274603   1.514   1.985  13.068 -0.3205 -1.0955  0.0927
17730TIP3   OH274604   1.538   2.867  14.313 -0.2808 -0.2326 -0.1139
17730TIP3    H174605   1.445   2.859  14.331 -0.1589 -2.3953 -0.1048
17730TIP3    H274606   1.544   2.933  14.244 -1.6414  1.0831  0.9881
17731TIP3   OH274607   5.950   5.769   5.851 -0.6085  0.2545  0.2252
17731TIP3    H174608   5.935   5.675   5.855  1.3602 -0.1772 -1.0766
17731TIP3    H274609   6.045   5.779   5.863 -0.4188  1.8335 -1.9447
17732TIP3   OH274610   3.762   6.014   1.210  0.2389 -0.0701  0.1621
17732TIP3    H174611   3.678   6.054   1.233  0.6395  0.0349  1.5172
17732TIP3    H274612   3.827   6.066   1.256  1.2578  0.9581 -2.2535
17733TIP3   OH274613   3.451   4.006   6.088 -0.2460 -0.0036 -0.2470
17733TIP3    H174614   3.438   4.095   6.056  1.5693 -0.2470 -1.8394
17733TIP3    H274615   3.426   4.009   6.180 -2.5754  1.5232 -0.8578
17734TIP3   OH274616   6.405   0.517  11.059 -0.2969  0.5235 -0.3251
17734TIP3    H174617   6.445   0.551  10.980 -0.1202  0.3141 -0.3255
17734TIP3    H274618   6.367   0.433  11.033 -0.4567  0.5694 -0.2472
17735TIP3   OH274619   3.785   5.355  13.472 -0.4102 -0.0439  0.3788
17735TIP3    H174620   3.700   5.350  13.427 -0.3006  0.9578  0.0402
17735TIP3    H274621   3.763   5.355  13.565 -0.9323  1.9301  0.3063
17736TIP3   OH274622   0.310   4.437  17.368  0.2018 -0.0266 -0.1446
17736TIP3    H174623   0.270   4.484  17.295  0.6126  0.6612  0.0623
17736TIP3    H274624   0.239   4.385  17.405 -0.6367  1.5112  0.5032
17737TIP3   OH274625   4.168   4.365   5.611 -0.3128 -0.5084  0.0192
17737TIP3    H174626   4.075   4.370   5.632  0.0149 -0.5858  1.6456
17737TIP3    H274627   4.203   4.302   5.673  1.2587  1.3664  1.1519
17738TIP3   OH274628   3.357   4.372  16.005 -0.8060 -0.2665  0.4230
17738TIP3    H174629   3.311   4.448  16.042 -0.3377 -0.3973  1.2998
17738TIP3    H274630   3.331   4.299  16.061 -0.0754 -0.4721  0.5052
17739TIP3   OH274631   2.303   6.633   6.671 -0.1900  0.0675 -0.1165
17739TIP3    H174632   2.305   6.551   6.621  0.6185 -1.0123  1.5713
17739TIP3    H274633   2.221   6.629   6.721 -0.0704  0.1855  0.0927
17740TIP3   OH274634   6.706   4.863  12.259  0.5295 -0.7955  0.3316
17740TIP3    H174635   6.622   4.908  12.250 -0.3846 -2.6921 -1.9153
17740TIP3    H274636   6.772   4.932  12.260 -0.9181  0.6668 -0.7092
17741TIP3   OH274637   3.869   3.704   0.625  0.4123 -0.4817 -0.3540
17741TIP3    H174638   3.930   3.630   0.635  0.6872 -0.2444 -0.2442
17741TIP3    H274639   3.827   3.690   0.541 -0.1838 -1.2416  0.0540
17742TIP3   OH274640   3.189   4.592  14.882 -0.2571  0.3168  0.1298
17742TIP3    H174641   3.248   4.527  14.843  0.1903  1.6201 -1.4725
17742TIP3    H274642   3.234   4.619  14.962  1.2334  1.0696 -0.9125
17743TIP3   OH274643   0.942   1.005  11.602  0.0344 -0.7437 -0.2349
17743TIP3    H174644   0.902   0.920  11.621  0.4021 -0.6055  1.3194
17743TIP3    H274645   0.898   1.066  11.661 -0.2429  0.1631 -1.3559
17744TIP3   OH274646   2.104   2.934  11.628 -0.0637 -0.3887  0.1070
17744TIP3    H174647   2.123   3.026  11.647 -0.4282 -0.2873 -0.0170
17744TIP3    H274648   2.179   2.903  11.578 -0.3051  0.0585 -0.5419
17745TIP3   OH274649   1.971   0.391   0.540 -0.1038 -0.1942 -0.0205
17745TIP3    H174650   2.063   0.382   0.565 -0.0480 -0.6310 -0.3620
17745TIP3    H274651   1.957   0.320   0.478 -0.1967  0.9288 -1.3275
17746TIP3   OH274652   3.772   5.408   0.701 -0.1436  0.0951  0.0405
17746TIP3    H174653   3.783   5.338   0.637 -0.0582 -0.0256  0.1880
17746TIP3    H274654   3.695   5.457   0.670 -1.6849 -1.4642  1.1984
17747TIP3   OH274655   2.019   1.822   5.246  0.1870  0.1387 -0.0389
17747TIP3    H174656   1.969   1.851   5.322 -0.6193 -1.6102  0.1509
17747TIP3    H274657   2.006   1.727   5.243  2.9073 -0.3013 -0.4413
17748TIP3   OH274658   5.423   3.727  11.696  0.6049  0.1145 -0.2120
17748TIP3    H174659   5.440   3.667  11.769  2.5753  0.3678 -0.4228
17748TIP3    H274660   5.415   3.813  11.737 -1.1801 -0.0978 -0.0261
17749TIP3   OH274661   4.216   4.234   1.362 -0.3772  0.7303  0.3489
17749TIP3    H174662   4.289   4.293   1.343 -0.3036  0.7989  0.8363
17749TIP3    H274663   4.258   4.156   1.400 -0.5191  0.5835  0.2045
17750TIP3   OH274664   4.653   2.658   1.190 -0.1738 -0.0491 -0.2334
17750TIP3    H174665   4.579   2.670   1.249  0.8584  0.0973  1.0852
17750TIP3    H274666   4.635   2.575   1.146 -0.4013 -0.8053  1.2036
17751TIP3   OH274667   2.445   6.097  16.432  0.0482  0.0386  0.2043
17751TIP3    H174668   2.512   6.162  16.410  0.2131 -0.2254 -0.0662
17751TIP3    H274669   2.453   6.086  16.527 -1.4498  2.0550  0.6344
17752TIP3   OH274670   4.771   2.651   5.999 -0.2175  0.2338 -0.6282
17752TIP3    H174671   4.691   2.602   6.020  1.2790 -1.2462  2.1542
17752TIP3    H274672   4.804   2.608   5.919 -1.0142 -0.6635 -0.4959
17753TIP3   OH274673   2.599   3.311  12.013  0.1963 -0.1844  0.1919
17753TIP3    H174674   2.639   3.226  11.994 -1.0033 -0.6843 -0.1464
17753TIP3    H274675   2.613   3.324  12.107  1.6913 -0.0494 -0.0269
17754TIP3   OH274676   3.228   2.289  12.436  0.2487  0.1508  0.0733
17754TIP3    H174677   3.230   2.380  12.466  0.3524  1.0218 -2.3341
17754TIP3    H274678   3.305   2.281  12.381 -0.8014 -0.7859 -1.3257
17755TIP3   OH274679   3.440   5.099   2.827  0.3332  0.2311  0.2065
17755TIP3    H174680   3.529   5.067   2.815  0.5123  0.6434  0.3958
17755TIP3    H274681   3.418   5.141   2.744  0.3756  0.2682  0.2140
17756TIP3   OH274682   4.218   6.187  15.925  0.2481 -0.0216 -0.1605
17756TIP3    H174683   4.253   6.120  15.984 -0.0078  0.4940  0.5966
17756TIP3    H274684   4.271   6.265  15.942 -0.6729  0.5175  0.3686
17757TIP3   OH274685   1.688   1.411   3.347  0.8208 -0.1550  0.2539
17757TIP3    H174686   1.613   1.368   3.308  0.7837  0.1617 -0.0301
17757TIP3    H274687   1.728   1.345   3.403  0.6280 -0.4789  0.0073
17758TIP3   OH274688   3.314   0.578  13.928 -0.3845  0.3040 -0.2753
17758TIP3    H174689   3.397   0.576  13.880  1.4847 -1.2117  2.7595
17758TIP3    H274690   3.268   0.500  13.898  0.5186 -0.3369 -0.0462
17759TIP3   OH274691   0.389   0.347  14.261 -0.9315 -0.5905 -0.1097
17759TIP3    H174692   0.404   0.349  14.356 -0.8974  0.2682 -0.1272
17759TIP3    H274693   0.379   0.439  14.236  0.7744 -0.6648 -1.2120
17760TIP3   OH274694   4.520   0.271   2.732  0.3336  0.0561  0.3116
17760TIP3    H174695   4.453   0.335   2.706  1.4116  1.1148  0.0473
17760TIP3    H274696   4.503   0.254   2.825  0.1457  0.8789  0.4301
17761TIP3   OH274697   2.888   6.438  15.651  0.2360  0.3002 -0.6223
17761TIP3    H174698   2.804   6.474  15.679 -0.1254  0.7947 -2.2376
17761TIP3    H274699   2.890   6.351  15.690 -1.1253  0.1935 -0.7203
17762TIP3   OH274700   3.614   2.908  16.161  0.2427  0.1834  0.0883
17762TIP3    H174701   3.698   2.954  16.164  1.2681 -1.5770 -0.5664
17762TIP3    H274702   3.553   2.967  16.206  1.7372  1.6400  0.2999
17763TIP3   OH274703   2.490   4.436  15.285  0.6428 -0.6382  0.1483
17763TIP3    H174704   2.548   4.508  15.260  0.0885  0.1503  1.0585
17763TIP3    H274705   2.512   4.365  15.224  1.2180  0.2833 -0.7525
17764TIP3   OH274706   3.650   2.556  17.325 -0.5222 -0.3155  0.3055
17764TIP3    H174707   3.580   2.599  17.375 -1.9615  0.2588 -2.0341
17764TIP3    H274708   3.604   2.509  17.255  1.4115  0.6982 -1.7707
17765TIP3   OH274709   3.947   5.776   4.821 -0.0507 -0.0959 -0.0648
17765TIP3    H174710   3.896   5.736   4.750 -0.3729  0.0115  0.1057
17765TIP3    H274711   3.882   5.820   4.876  0.1749 -0.3568  0.4145
17766TIP3   OH274712   0.589   3.461   0.814 -0.2464 -0.7623  0.5699
17766TIP3    H174713   0.499   3.481   0.840 -0.1471  1.1744 -0.3840
17766TIP3    H274714   0.623   3.544   0.778  0.8297 -2.2442 -2.1327
17767TIP3   OH274715   3.798   0.716  13.350 -0.7027  0.0821  0.6537
17767TIP3    H174716   3.892   0.703  13.350 -0.8985 -1.7073  2.1162
17767TIP3    H274717   3.783   0.783  13.283  1.6122  0.6630  0.6341
17768TIP3   OH274718   0.895   1.216  10.629  0.5171 -0.2088 -0.6910
17768TIP3    H174719   0.920   1.124  10.624  1.2478 -0.1536  1.3374
17768TIP3    H274720   0.907   1.240  10.721  0.7710  2.0378 -1.2479
17769TIP3   OH274721   0.372   2.727  12.486  0.3167  0.1450  0.5186
17769TIP3    H174722   0.360   2.811  12.528 -0.0955 -0.0872  0.8717
17769TIP3    H274723   0.286   2.685  12.490  1.0072 -1.2157  2.3503
17770TIP3   OH274724   0.862   2.840  13.923  0.1394  0.3988  0.6983
17770TIP3    H174725   0.856   2.832  14.018  1.1269 -0.0390  0.7277
17770TIP3    H274726   0.870   2.750  13.891 -0.0989  0.5473  0.2044
17771TIP3   OH274727   6.252   1.003   3.487 -0.2644 -0.6657 -0.3239
17771TIP3    H174728   6.338   1.045   3.489 -0.3470 -0.3717 -1.6226
17771TIP3    H274729   6.191   1.072   3.511  0.0015 -1.5016  3.1977
17772TIP3   OH274730   0.533   3.927   0.217 -0.5399  0.7599 -0.2013
17772TIP3    H174731   0.532   3.876   0.136 -0.4955  0.8487 -0.2583
17772TIP3    H274732   0.582   3.873   0.279 -2.1731 -0.1713  0.3450
17773TIP3   OH274733   1.608   5.564   6.849 -0.2858  0.0885 -0.1068
17773TIP3    H174734   1.619   5.471   6.871  1.1949 -0.0009 -1.0665
17773TIP3    H274735   1.549   5.564   6.774  1.5166 -0.3042 -1.5886
17774TIP3   OH274736   0.168   3.528  13.837 -0.6738  0.2745 -0.4424
17774TIP3    H174737   0.261   3.540  13.856 -0.7943  1.5603 -0.5432
17774TIP3    H274738   0.125   3.539  13.921 -0.7887  0.4476 -0.5231
17775TIP3   OH274739   1.960   0.808  16.925 -0.0006  0.1126 -0.1843
17775TIP3    H174740   1.956   0.851  17.010 -0.7946 -2.5410  1.2280
17775TIP3    H274741   1.886   0.747  16.925  2.9572 -3.9484 -0.3950
17776TIP3   OH274742   3.768   4.859  13.408  0.7736  0.4562  0.2499
17776TIP3    H174743   3.780   4.792  13.475  0.6886  0.6333  0.4396
17776TIP3    H274744   3.848   4.854  13.355  2.1784  2.2723  2.0741
17777TIP3   OH274745   3.408   5.058   0.746  0.0772 -0.1800 -0.1253
17777TIP3    H174746   3.353   5.075   0.823  0.0866 -2.4638  0.4611
17777TIP3    H274747   3.348   5.020   0.682  0.5051 -0.4145 -0.3905
17778TIP3   OH274748   6.480   6.114   3.391  0.0250  0.3127 -0.0573
17778TIP3    H174749   6.467   6.155   3.306 -0.1436 -0.0056 -0.1867
17778TIP3    H274750   6.421   6.161   3.450 -0.4715 -0.0195 -0.2910
17779TIP3   OH274751   5.321   5.068   4.817  0.1991  0.3957 -0.1937
17779TIP3    H174752   5.345   5.003   4.883  0.6665  0.4277 -0.3277
17779TIP3    H274753   5.227   5.058   4.807  0.0042  0.8814  0.9970
17780TIP3   OH274754   4.954   5.041  14.349  0.3354  0.9547 -0.7727
17780TIP3    H174755   4.974   4.994  14.430  0.6355  0.5973 -1.0537
17780TIP3    H274756   4.927   5.128  14.378  2.9140  1.7090 -0.3909
17781TIP3   OH274757   3.888   4.426  14.055 -0.3102  0.6978 -0.0278
17781TIP3    H174758   3.969   4.386  14.023  0.6719  1.2950  1.5623
17781TIP3    H274759   3.840   4.353  14.094  0.1402  0.5557  0.2803
17782TIP3   OH274760   5.238   3.650  16.008 -0.9992 -0.2559 -0.5469
17782TIP3    H174761   5.184   3.667  16.085 -0.1243 -0.9351  0.2354
17782TIP3    H274762   5.328   3.663  16.037 -0.7180  2.0355 -2.1344
17783TIP3   OH274763   3.434   5.882   3.940  0.4461  0.3284  0.0208
17783TIP3    H174764   3.449   5.823   4.014  1.0032  0.2092 -0.1885
17783TIP3    H274765   3.367   5.838   3.887  0.3467  0.2204  0.2338
17784TIP3   OH274766   0.374   0.394   5.561  0.8171  0.0156 -0.2790
17784TIP3    H174767   0.424   0.350   5.493  0.5198  0.6954 -0.9518
17784TIP3    H274768   0.352   0.479   5.523  2.1804  1.1433  1.3233
17785TIP3   OH274769   1.835   3.224  13.859 -0.4082 -0.1309  0.2796
17785TIP3    H174770   1.755   3.196  13.904  0.3605 -3.9958 -0.3726
17785TIP3    H274771   1.814   3.216  13.766  0.6659 -1.2395  0.0976
17786TIP3   OH274772   3.622   5.645  14.700  0.5829 -0.5646  0.5989
17786TIP3    H174773   3.538   5.601  14.712  0.6364 -0.3276  1.9245
17786TIP3    H274774   3.616   5.684  14.612 -0.7418 -0.4582  0.7201
17787TIP3   OH274775   0.527   1.036   2.223 -0.0113 -0.0452 -0.2540
17787TIP3    H174776   0.499   0.949   2.253  0.7224  0.2792  1.4828
17787TIP3    H274777   0.446   1.084   2.210 -0.4188 -0.9026 -0.9900
17788TIP3   OH274778   3.517   6.549  16.394  0.0074  0.6998 -0.4467
17788TIP3    H174779   3.456   6.617  16.424 -0.9347 -1.0185  1.8686
17788TIP3    H274780   3.478   6.517  16.313 -2.3148 -0.3621  0.9772
17789TIP3   OH274781   4.260   3.771  14.345  0.1517 -0.3181 -0.2497
17789TIP3    H174782   4.270   3.679  14.369 -1.8500 -0.2044  1.1763
17789TIP3    H274783   4.291   3.819  14.422  1.1456  0.2477 -0.9710
17790TIP3   OH274784   4.085   3.284   5.814 -0.2150  0.4072  0.5629
17790TIP3    H174785   4.066   3.191   5.825 -1.7475  0.6911  0.5270
17790TIP3    H274786   4.124   3.290   5.727  2.7382 -0.5483  1.6717
17791TIP3   OH274787   1.883   4.116   2.938  0.6992 -0.5626 -0.5300
17791TIP3    H174788   1.949   4.135   2.872  2.0688  0.4024  1.0477
17791TIP3    H274789   1.932   4.104   3.019 -0.9444 -1.4672  0.3909
17792TIP3   OH274790   6.134   4.702   5.343 -0.1359 -0.8896 -0.0987
17792TIP3    H174791   6.103   4.657   5.264  0.5805 -1.1441 -0.2369
17792TIP3    H274792   6.085   4.784   5.344 -1.6969 -1.7814  0.3218
17793TIP3   OH274793   2.525   0.740   5.982  0.3068  0.3610  0.1004
17793TIP3    H174794   2.433   0.734   6.007  0.4243  1.6017  0.9147
17793TIP3    H274795   2.522   0.757   5.887 -0.1991 -2.0123 -0.3742
17794TIP3   OH274796   0.733   1.527   1.726  0.2979  0.5545 -0.1185
17794TIP3    H174797   0.824   1.550   1.704  0.8849 -0.0849  1.5266
17794TIP3    H274798   0.726   1.542   1.820  0.4462 -4.7218  1.0342
17795TIP3   OH274799   2.371   4.505   5.642  0.3939 -0.3570 -0.1316
17795TIP3    H174800   2.330   4.528   5.725  2.5943 -2.2168  1.5988
17795TIP3    H274801   2.340   4.417   5.622 -1.2504  0.5837 -2.1554
17796TIP3   OH274802   2.013   2.812   5.766 -0.6161  0.1682 -1.1309
17796TIP3    H174803   2.093   2.854   5.734  0.1438 -1.1661 -1.0566
17796TIP3    H274804   2.010   2.728   5.719 -0.5556 -0.9539  0.7687
17797TIP3   OH274805   3.422   2.601  12.765  0.2812  0.0619  0.1307
17797TIP3    H174806   3.503   2.637  12.802  1.0075 -2.5984  1.4539
17797TIP3    H274807   3.452   2.536  12.702 -0.9271  1.0704 -1.5455
17798TIP3   OH274808   6.188   4.706  11.562  0.1680 -0.1580  0.5629
17798TIP3    H174809   6.187   4.700  11.658 -0.6795 -2.4418  0.4655
17798TIP3    H274810   6.201   4.799  11.544  1.0722  0.2378  2.8834
17799TIP3   OH274811   4.681   0.337  13.311 -0.1871 -0.2833 -0.0312
17799TIP3    H174812   4.679   0.381  13.225 -2.1442 -0.7923 -0.2980
17799TIP3    H274813   4.662   0.407  13.373 -0.7258 -0.2683 -0.2077
17800TIP3   OH274814   0.056   1.475  17.097 -0.5135 -0.0831  0.2611
17800TIP3    H174815   0.076   1.528  17.174  0.2834  0.9420 -0.6153
17800TIP3    H274816  -0.021   1.424  17.122 -0.2332  0.1720  1.7468
17801TIP3   OH274817   6.183   1.113  17.001  0.5975  0.3118  0.3744
17801TIP3    H174818   6.211   1.154  17.082  1.5375  1.7972 -0.6469
17801TIP3    H274819   6.233   1.158  16.933  1.0251 -1.9509 -0.9127
17802TIP3   OH274820   0.609   0.561  14.424  0.3817 -0.3688 -0.3391
17802TIP3    H174821   0.518   0.541  14.444  0.7854 -2.3387 -0.2552
17802TIP3    H274822   0.641   0.605  14.503  0.5080 -3.2497  1.3900
17803TIP3   OH274823   2.960   3.516  15.556 -0.6080  0.2023  0.3029
17803TIP3    H174824   2.968   3.571  15.478 -1.5995 -2.3987 -1.7813
17803TIP3    H274825   2.950   3.427  15.522 -1.8472 -0.9802  3.3840
17804TIP3   OH274826   3.640   0.856  16.364 -0.6003  0.1201  0.2606
17804TIP3    H174827   3.581   0.923  16.399 -0.6947  1.7882 -2.8009
17804TIP3    H274828   3.584   0.802  16.309  0.4091  1.0251 -1.7540
17805TIP3   OH274829   4.058   4.634   6.716  0.4845 -0.1682 -0.3649
17805TIP3    H174830   4.000   4.558   6.709  0.7197 -0.5626  1.4745
17805TIP3    H274831   4.009   4.697   6.768  0.3505  0.9081 -1.7613
17806TIP3   OH274832   4.532   4.569   0.269  0.0132 -0.3808  0.3065
17806TIP3    H174833   4.534   4.663   0.250  0.3073 -0.4276  0.0981
17806TIP3    H274834   4.478   4.532   0.199  0.0314 -0.3855  0.2948
17807TIP3   OH274835   6.095   0.174   2.179 -0.0504  0.3016 -0.3198
17807TIP3    H174836   6.053   0.214   2.255  0.5753  0.4934 -0.0727
17807TIP3    H274837   6.178   0.139   2.212  0.2361  0.4046 -0.9133
17808TIP3   OH274838   3.719   2.063  12.723 -0.2380  0.4352 -0.1870
17808TIP3    H174839   3.759   2.148  12.704 -0.2559  0.3812 -0.4791
17808TIP3    H274840   3.625   2.079  12.714 -0.1769 -0.0718 -2.2767
17809TIP3   OH274841   1.837   1.615  15.851  0.1915  0.1152  0.3838
17809TIP3    H174842   1.763   1.672  15.870  0.3047 -0.4430  2.8147
17809TIP3    H274843   1.909   1.675  15.831 -0.9104  0.6582 -2.4582
17810TIP3   OH274844   5.588   3.011  13.039 -0.4483 -0.1893 -0.5688
17810TIP3    H174845   5.592   2.932  13.092 -2.3120  0.7650  1.1271
17810TIP3    H274846   5.599   2.980  12.949 -1.6517 -2.4440 -0.0091
17811TIP3   OH274847   0.015   1.181  11.886 -0.6716 -0.5484  0.2689
17811TIP3    H174848   0.023   1.156  11.979 -0.5041 -3.1129 -0.3507
17811TIP3    H274849   0.038   1.101  11.838  0.0566  0.9476 -2.0236
17812TIP3   OH274850   3.078   4.377  12.938 -0.2293 -0.3057 -0.4221
17812TIP3    H174851   3.047   4.463  12.909 -0.9240  0.2630  1.7373
17812TIP3    H274852   3.100   4.331  12.858 -0.3632  1.6910 -1.6902
17813TIP3   OH274853   3.123   5.223   6.086 -0.0913 -0.3459  0.1394
17813TIP3    H174854   3.195   5.171   6.122  1.5311  1.1146 -0.9045
17813TIP3    H274855   3.115   5.297   6.146  0.9642  0.7824 -1.0483
17814TIP3   OH274856   1.658   5.785  14.104  0.2526 -0.3784  0.1657
17814TIP3    H174857   1.725   5.721  14.079 -1.6824 -2.6677  0.3774
17814TIP3    H274858   1.630   5.824  14.021  0.7614 -0.5669 -0.0989
17815TIP3   OH274859   1.797   6.647  14.516 -0.2097 -0.3841  0.4136
17815TIP3    H174860   1.740   6.689  14.452  1.7096 -0.5432 -1.5038
17815TIP3    H274861   1.833   6.719  14.568 -1.0054 -0.1692  0.6827
17816TIP3   OH274862   2.425   2.618   1.807  0.2266 -0.3182 -1.2348
17816TIP3    H174863   2.419   2.678   1.881 -1.0101 -2.2208  0.3121
17816TIP3    H274864   2.518   2.596   1.802  0.1401 -1.5887  1.0587
17817TIP3   OH274865   3.944   5.362  12.582 -0.2744 -0.2040 -0.6453
17817TIP3    H174866   4.033   5.394  12.596  0.1970 -1.1560 -1.3331
17817TIP3    H274867   3.890   5.415  12.640  0.7084  0.5510 -0.3914
17818TIP3   OH274868   6.179   1.282   5.227  0.4256 -0.6482 -0.1970
17818TIP3    H174869   6.182   1.324   5.141 -1.7534  1.1274  0.5156
17818TIP3    H274870   6.270   1.285   5.258  0.6369  2.2576 -0.8242
17819TIP3   OH274871   0.667   4.250  11.839 -0.6386  0.2168 -0.5067
17819TIP3    H174872   0.610   4.225  11.912 -0.5238  2.3164  0.3670
17819TIP3    H274873   0.607   4.278  11.770 -0.7301 -1.3694 -1.1303
17820TIP3   OH274874   0.540   2.548   2.338 -0.5041 -0.0732  0.1624
17820TIP3    H174875   0.604   2.505   2.280  1.9973  1.6557  1.4316
17820TIP3    H274876   0.495   2.611   2.282 -0.0377 -0.2978 -0.4749
17821TIP3   OH274877   3.091   0.769  12.036  0.0664  0.3940 -0.0968
17821TIP3    H174878   3.176   0.736  12.067  0.9409  1.9428 -0.7348
17821TIP3    H274879   3.080   0.729  11.950 -0.3348 -0.5479  0.3700
17822TIP3   OH274880   4.333   1.621  12.994 -0.3088  0.6336  0.6762
17822TIP3    H174881   4.406   1.594  12.938 -0.9633 -2.3725  1.1402
17822TIP3    H274882   4.273   1.666  12.935 -0.4231 -1.4232 -0.8750
17823TIP3   OH274883   4.297   0.439   1.733  0.0474 -0.4236 -0.4056
17823TIP3    H174884   4.317   0.381   1.659  0.3353 -1.4359  0.4410
17823TIP3    H274885   4.325   0.525   1.704 -3.2017  0.0042 -2.9442
17824TIP3   OH274886   1.982   0.093  16.733  0.4543 -0.0293  0.4782
17824TIP3    H174887   2.038   0.057  16.664  1.1821  1.1406  0.4251
17824TIP3    H274888   1.893   0.082  16.700  0.8056  0.8145 -0.8354
17825TIP3   OH274889   1.201   3.622  10.648 -0.0664  0.2322  0.5711
17825TIP3    H174890   1.106   3.608  10.642 -0.1852  1.2008 -0.0208
17825TIP3    H274891   1.239   3.541  10.614 -0.7008  0.3683 -0.4990
17826TIP3   OH274892   1.296   2.653  15.762  0.1664  0.2363 -0.2948
17826TIP3    H174893   1.368   2.589  15.763 -1.6304 -1.9021  0.9448
17826TIP3    H274894   1.228   2.611  15.710 -1.3725  0.7307  1.2453
17827TIP3   OH274895   2.390   6.006  16.838  0.0989  0.2744 -0.6331
17827TIP3    H174896   2.397   6.021  16.932 -0.9706  2.2276 -0.8174
17827TIP3    H274897   2.480   6.009  16.806  0.8024 -3.1010  0.5971
17828TIP3   OH274898   0.130   1.219   3.905  0.2606  0.0969 -0.7728
17828TIP3    H174899   0.204   1.268   3.870  0.6738  0.3718  0.4433
17828TIP3    H274900   0.169   1.140   3.942 -0.1479 -0.1038 -0.7692
17829TIP3   OH274901   4.320   2.710   2.577  0.0187 -0.2643  0.0262
17829TIP3    H174902   4.394   2.740   2.524 -0.2192 -1.9342 -1.3566
17829TIP3    H274903   4.247   2.766   2.550  0.2240 -0.1991 -0.4017
17830TIP3   OH274904   0.428   1.953   3.156  0.4347 -0.2480  0.2240
17830TIP3    H174905   0.508   1.901   3.166  2.0378  1.7631 -1.3591
17830TIP3    H274906   0.410   1.987   3.244 -0.1985 -2.6932  1.1311
17831TIP3   OH274907   2.887   3.884   0.454 -0.5115 -0.1108  0.4105
17831TIP3    H174908   2.882   3.979   0.450  2.0329  0.0859  0.2174
17831TIP3    H274909   2.829   3.859   0.525 -0.5021  1.6640  1.0798
17832TIP3   OH274910   6.222   2.544   0.466 -0.2220 -0.5080  0.1319
17832TIP3    H174911   6.176   2.461   0.455 -2.0613  0.7358 -2.4363
17832TIP3    H274912   6.176   2.586   0.539 -1.4644 -0.4089 -0.6760
17833TIP3   OH274913   2.312   3.087  12.576 -0.2134 -0.1959 -0.1014
17833TIP3    H174914   2.310   3.020  12.507  2.0090 -0.2934 -0.1373
17833TIP3    H274915   2.241   3.147  12.553  0.3160 -0.3583 -2.3597
17834TIP3   OH274916   2.614   1.119  14.192 -0.9805  0.4938 -0.0168
17834TIP3    H174917   2.688   1.167  14.228 -0.1026 -0.0363 -1.0822
17834TIP3    H274918   2.600   1.046  14.254 -0.3335  0.3445 -0.0441
17835TIP3   OH274919   3.313   4.410  16.967 -0.2965  0.0772  0.1514
17835TIP3    H174920   3.362   4.487  16.937 -0.2265  0.5792  1.4770
17835TIP3    H274921   3.238   4.405  16.908  0.5835  0.1394 -1.0110
17836TIP3   OH274922   5.525   5.321   3.691  0.7879  0.0164  0.2579
17836TIP3    H174923   5.616   5.334   3.717  0.9080  1.2498 -0.7262
17836TIP3    H274924   5.485   5.408   3.698 -0.7290 -0.7464  2.1101
17837TIP3   OH274925   1.584   1.521  12.452  0.7027 -0.0598  0.0316
17837TIP3    H174926   1.618   1.548  12.367  0.4998  0.3538  0.0785
17837TIP3    H274927   1.539   1.438  12.436 -0.2165  0.5142 -0.4676
17838TIP3   OH274928   1.817   1.215  11.337 -0.5959  0.4537  0.6006
17838TIP3    H174929   1.730   1.175  11.338 -1.4889  2.2643  1.9790
17838TIP3    H274930   1.800   1.309  11.344  1.4571  0.9659 -0.4906
17839TIP3   OH274931   0.282   3.677  17.104  0.5086  0.2276  0.0962
17839TIP3    H174932   0.233   3.665  17.186 -1.1773 -1.7441 -1.1122
17839TIP3    H274933   0.373   3.689  17.133 -0.1407  0.3859  2.2852
17840TIP3   OH274934   2.802   2.916   1.895 -0.3994  0.9689 -0.0210
17840TIP3    H174935   2.850   2.959   1.966  1.0962  0.9585 -0.9843
17840TIP3    H274936   2.823   2.968   1.817 -1.4623  0.5744 -0.5840
17841TIP3   OH274937   3.329   1.490  12.736 -0.1101  0.4379  0.5290
17841TIP3    H174938   3.376   1.551  12.793  0.4071  1.3027 -0.7583
17841TIP3    H274939   3.395   1.428  12.707 -0.4418 -0.2006  1.1268
17842TIP3   OH274940   5.639   3.800  11.243  0.0484 -0.5053 -0.2036
17842TIP3    H174941   5.687   3.718  11.241  0.5928 -0.2036  0.3792
17842TIP3    H274942   5.619   3.818  11.151 -2.9271 -2.9080 -0.1896
17843TIP3   OH274943   6.590   3.769  14.759 -0.3117  0.4288 -0.2168
17843TIP3    H174944   6.672   3.733  14.724 -0.8719  0.3127 -1.4453
17843TIP3    H274945   6.618   3.831  14.826  0.7545 -0.2269 -0.0245
17844TIP3   OH274946   3.198   4.288   1.812  0.0579 -0.5734 -0.4076
17844TIP3    H174947   3.124   4.298   1.872  0.2037  1.4897 -0.4873
17844TIP3    H274948   3.266   4.245   1.865 -0.0878  0.4991  0.7050
17845TIP3   OH274949   5.048   2.985   5.263  0.0641  0.1995 -0.1528
17845TIP3    H174950   4.957   3.003   5.288 -0.1925  0.2954 -1.0949
17845TIP3    H274951   5.061   2.893   5.288 -1.3107 -0.7930 -2.6928
17846TIP3   OH274952   4.040   5.041   3.476  0.3858 -0.1533 -0.1780
17846TIP3    H174953   4.032   5.002   3.563 -1.5922  1.9659  0.7205
17846TIP3    H274954   3.973   4.996   3.424  0.3529 -0.2125 -0.0857
17847TIP3   OH274955   1.366   5.176   0.275  0.0222 -0.0951  0.3249
17847TIP3    H174956   1.310   5.178   0.352  0.9085 -0.2607  0.9909
17847TIP3    H274957   1.337   5.250   0.222  0.3016  0.8642  1.4713
17848TIP3   OH274958   5.237   1.724  13.815 -0.5951 -0.2064 -0.5535
17848TIP3    H174959   5.261   1.730  13.908  1.4338  2.4551 -1.1425
17848TIP3    H274960   5.296   1.657  13.780 -0.2619 -0.0966 -0.2119
17849TIP3   OH274961   6.127   3.628  11.567  0.2698  0.5664  0.1078
17849TIP3    H174962   6.166   3.610  11.482  0.4579 -0.3548  0.3723
17849TIP3    H274963   6.033   3.614  11.555  0.0467  2.2837 -0.4023
17850TIP3   OH274964   1.043   2.746  11.905 -0.5369 -0.2691  0.0939
17850TIP3    H174965   1.088   2.810  11.849 -0.0787 -1.0458 -0.4540
17850TIP3    H274966   1.104   2.730  11.977 -0.4954 -0.3588  0.0385
17851TIP3   OH274967   4.516   3.192  11.166 -0.1869  0.6281 -0.1071
17851TIP3    H174968   4.545   3.117  11.218  2.9153 -0.6299 -3.2737
17851TIP3    H274969   4.449   3.156  11.108 -1.8259  1.4577  1.1572
17852TIP3   OH274970   3.682   2.372  11.184 -0.9960  0.2696  0.0297
17852TIP3    H174971   3.736   2.388  11.106 -1.2213 -2.0598 -0.6681
17852TIP3    H274972   3.691   2.452  11.236  1.1916  0.8887 -1.1854
17853TIP3   OH274973   1.402   3.818   4.993 -0.8050 -0.4152 -0.5318
17853TIP3    H174974   1.390   3.910   4.966  0.0991 -0.3569 -0.7505
17853TIP3    H274975   1.459   3.781   4.926  0.9510 -0.4549  0.8997
17854TIP3   OH274976   5.245   2.936  12.734  0.1063 -0.6070 -0.2148
17854TIP3    H174977   5.331   2.941  12.693 -0.2000 -0.3668 -0.8495
17854TIP3    H274978   5.200   2.865  12.688 -0.5636  0.2654 -0.9510
17855TIP3   OH274979   1.869   6.147  16.789 -0.4906  0.0386 -0.6441
17855TIP3    H174980   1.816   6.112  16.718 -1.6337  0.7901 -0.1953
17855TIP3    H274981   1.807   6.193  16.846  0.6167  0.8368 -0.0146
17856TIP3   OH274982   0.639   1.106  16.364 -0.8164 -0.0846 -0.8485
17856TIP3    H174983   0.563   1.048  16.354  0.0705 -1.5460  0.5316
17856TIP3    H274984   0.642   1.126  16.457  0.3296  0.1816 -0.9253
17857TIP3   OH274985   4.273   6.128   4.291 -0.1884 -0.0914 -0.3260
17857TIP3    H174986   4.367   6.137   4.306 -0.2015 -1.3880  0.7009
17857TIP3    H274987   4.236   6.213   4.316  0.7682  0.6596 -1.4091
17858TIP3   OH274988   2.434   5.959   1.094  0.1242 -0.0411 -0.4378
17858TIP3    H174989   2.375   5.913   1.035  1.3033 -0.3797 -1.3938
17858TIP3    H274990   2.490   6.010   1.036  0.3574  0.7816  0.4878
17859TIP3   OH274991   3.413   2.948   6.319 -0.3034  0.1341 -0.1762
17859TIP3    H174992   3.473   2.961   6.393 -0.1872  0.7937 -0.3830
17859TIP3    H274993   3.381   2.859   6.331  1.1384 -0.4421 -0.3673
17860TIP3   OH274994   2.965   2.745   4.309  0.0398  0.2127  0.0045
17860TIP3    H174995   2.979   2.662   4.265  0.8677 -0.1190  0.8526
17860TIP3    H274996   2.873   2.765   4.294 -0.2275 -0.9657 -0.0329
17861TIP3   OH274997   3.214   1.338   3.795 -0.1463 -0.1183 -0.1575
17861TIP3    H174998   3.279   1.380   3.851 -1.5209 -0.8760  2.1560
17861TIP3    H274999   3.230   1.244   3.807 -1.3873 -0.3058  0.1463
17862TIP3   OH275000   0.936   3.232  13.682  0.5091  0.3360  0.4409
17862TIP3    H175001   0.901   3.167  13.742  3.1583 -1.3513  0.3056
17862TIP3    H275002   0.919   3.316  13.725 -0.4377 -0.6023  1.9902
17863TIP3   OH275003   5.296   4.872  15.807  0.1539 -0.0595  0.1104
17863TIP3    H175004   5.223   4.877  15.745 -1.2607  3.1081  1.7932
17863TIP3    H275005   5.256   4.844  15.889  1.4696 -1.3474  0.3554
17864TIP3   OH275006   4.158   0.395  11.545  0.2387  0.4347 -0.4652
17864TIP3    H175007   4.223   0.359  11.484  0.3867 -0.1699  0.0406
17864TIP3    H275008   4.184   0.359  11.630  0.3041  1.6333  0.0290
17865TIP3   OH275009   1.227   2.926  15.578 -0.3195  0.2914 -0.9175
17865TIP3    H175010   1.233   2.857  15.644  0.6206  1.1077 -0.1320
17865TIP3    H275011   1.217   2.878  15.495  0.5623 -0.7981 -0.4213
17866TIP3   OH275012   3.158   1.742  14.422 -0.6217  0.2990  0.3000
17866TIP3    H175013   3.137   1.758  14.330  2.0716  1.2484 -0.2179
17866TIP3    H275014   3.170   1.829  14.460  0.6413 -0.1384  0.9420
17867TIP3   OH275015   3.601   4.015  12.688  0.1807 -0.1756 -0.0685
17867TIP3    H175016   3.665   3.973  12.631  0.6162  0.1122  0.2025
17867TIP3    H275017   3.529   3.952  12.695  0.3466 -0.4161 -0.5348
17868TIP3   OH275018   6.642   5.723  14.848 -0.3311  0.6174  0.1339
17868TIP3    H175019   6.598   5.803  14.820 -0.7534  0.1464 -0.5870
17868TIP3    H275020   6.735   5.740  14.832 -0.2960  1.3764  1.0656
17869TIP3   OH275021   5.697   1.916  14.989 -0.1278  0.2002 -0.1256
17869TIP3    H175022   5.631   1.979  14.959 -0.4829 -0.2256 -0.2492
17869TIP3    H275023   5.780   1.961  14.975 -0.4053  0.8620  0.3152
17870TIP3   OH275024   5.102   4.752   4.425 -0.2567  0.1018  0.1868
17870TIP3    H175025   5.051   4.672   4.437  0.6776 -0.7584 -1.2051
17870TIP3    H275026   5.039   4.816   4.392 -0.8836 -0.2592  0.6599
17871TIP3   OH275027   4.925   3.431   3.470  0.2762  0.0357  0.2900
17871TIP3    H175028   4.927   3.336   3.473 -0.3776  0.0037 -0.1687
17871TIP3    H275029   4.952   3.452   3.380 -1.2099  0.2158 -0.1421
17872TIP3   OH275030   1.349   3.653  12.726  0.1070 -0.4067 -0.5051
17872TIP3    H175031   1.363   3.747  12.714 -1.7272  0.0619  0.7001
17872TIP3    H275032   1.401   3.612  12.656  1.7995  1.4235 -0.3944
17873TIP3   OH275033   5.605   0.718  12.939  0.3114  0.1903 -0.1151
17873TIP3    H175034   5.579   0.628  12.922 -1.7213  0.4941  1.0179
17873TIP3    H275035   5.651   0.713  13.023 -0.8736  0.3192  0.5702
17874TIP3   OH275036   2.710   3.436  11.782 -0.0190 -0.7634  0.7070
17874TIP3    H175037   2.677   3.393  11.861 -2.3234  0.7692  0.6571
17874TIP3    H275038   2.633   3.476  11.742  1.6470  1.4875 -0.4416
17875TIP3   OH275039   5.468   1.784  15.984  0.1387  0.3724  0.2142
17875TIP3    H175040   5.389   1.737  15.957  1.0221  0.6662 -3.3001
17875TIP3    H275041   5.447   1.877  15.970  1.2061  0.4269 -1.2393
17876TIP3   OH275042   0.195   2.119  14.470  0.1367 -0.5329  0.0031
17876TIP3    H175043   0.286   2.092  14.466  0.5254  0.7354 -0.1417
17876TIP3    H275044   0.193   2.205  14.428 -1.0081 -0.2610  0.5648
17877TIP3   OH275045   6.089   3.508  15.537 -0.0921  0.3038  0.0125
17877TIP3    H175046   6.100   3.603  15.534 -0.5997  0.4137  1.2732
17877TIP3    H275047   5.995   3.494  15.535 -0.0843 -0.0875  1.2944
17878TIP3   OH275048   4.149   4.163   3.919 -0.3996 -0.4879  0.7017
17878TIP3    H175049   4.223   4.105   3.940 -0.0414  0.4328  2.1559
17878TIP3    H275050   4.148   4.167   3.824 -0.9608 -3.5117  0.5016
17879TIP3   OH275051   0.258   6.311   0.747  0.5300 -0.6569  0.2019
17879TIP3    H175052   0.192   6.275   0.806  0.0741 -0.9329 -0.4594
17879TIP3    H275053   0.286   6.236   0.694 -0.4506 -0.0565 -1.2180
17880TIP3   OH275054   0.843   4.745  13.199 -0.0622  0.6346  0.5825
17880TIP3    H175055   0.896   4.739  13.278 -0.5841 -0.1222  0.8917
17880TIP3    H275056   0.756   4.771  13.230  0.2971  2.7609 -0.0024
17881TIP3   OH275057   3.142   3.678  12.645 -0.2262  0.0852 -0.1261
17881TIP3    H175058   3.173   3.762  12.613  0.6480  0.9997  2.8004
17881TIP3    H275059   3.046   3.687  12.649 -0.4361 -0.2399 -2.6346
17882TIP3   OH275060   1.805   4.136  14.332 -0.2905  0.3595 -0.1417
17882TIP3    H175061   1.875   4.200  14.341 -0.8250  1.1595 -1.3813
17882TIP3    H275062   1.849   4.051  14.341  0.2856  0.8528  2.4384
17883TIP3   OH275063   4.617   6.314  16.914 -0.3218 -0.4347  0.1119
17883TIP3    H175064   4.522   6.321  16.913 -0.2283  1.2639  0.3153
17883TIP3    H275065   4.640   6.281  16.827 -1.0120  0.6568 -0.4962
17884TIP3   OH275066   6.736   1.415   3.001  0.2271 -0.1563 -0.3617
17884TIP3    H175067   6.821   1.393   3.039  0.4830  2.1392  0.5666
17884TIP3    H275068   6.754   1.491   2.945 -1.1384  0.1175 -0.4602
17885TIP3   OH275069   0.274   1.250   1.008  0.2628 -0.1049  0.2208
17885TIP3    H175070   0.184   1.229   0.980  0.7915 -1.9736 -0.2403
17885TIP3    H275071   0.263   1.321   1.071 -1.2540  2.0413 -2.2391
17886TIP3   OH275072   3.479   1.477  16.083 -0.2115  0.1946 -0.1457
17886TIP3    H175073   3.519   1.403  16.129  2.0867  1.6047  0.3049
17886TIP3    H275074   3.512   1.469  15.993 -0.9997 -0.0288 -0.4172
17887TIP3   OH275075   5.978   4.907  17.284  0.2634 -0.5542 -0.0812
17887TIP3    H175076   6.026   4.873  17.208  0.3154 -0.0107 -0.2954
17887TIP3    H275077   5.927   4.832  17.316 -0.5528 -0.5281 -1.2713
17888TIP3   OH275078   1.559   0.396   3.668  0.0463  0.0633  0.4640
17888TIP3    H175079   1.648   0.393   3.703 -0.5261 -0.0565  1.9635
17888TIP3    H275080   1.526   0.308   3.680  0.7310 -0.8024 -2.9828
17889TIP3   OH275081   1.346   0.747   1.153 -0.1130  0.5813  0.5185
17889TIP3    H175082   1.413   0.697   1.200 -0.1188 -1.0773 -1.1639
17889TIP3    H275083   1.265   0.727   1.199  0.2582  1.1905  1.4725
17890TIP3   OH275084   0.657   3.042   4.031 -0.2122  0.2303 -0.5645
17890TIP3    H175085   0.631   2.987   3.957 -2.0073  0.2559  0.0073
17890TIP3    H275086   0.587   3.032   4.095 -0.2723  2.6463 -0.1495
17891TIP3   OH275087   0.329   5.225   0.488  0.6735  0.4527 -0.3341
17891TIP3    H175088   0.425   5.225   0.497  0.8023 -1.1552 -1.2908
17891TIP3    H275089   0.311   5.152   0.429 -0.9225  2.9537 -3.1702
17892TIP3   OH275090   5.787   4.455   1.915  0.6080 -0.3100  0.0091
17892TIP3    H175091   5.788   4.501   1.999  3.8933  1.4103 -0.8203
17892TIP3    H275092   5.723   4.504   1.863 -1.6779 -1.5611  1.4373
17893TIP3   OH275093   5.978   2.667   5.286 -0.2646  0.2046 -0.1678
17893TIP3    H175094   5.891   2.697   5.313 -0.3694 -1.4157  1.5719
17893TIP3    H275095   6.029   2.746   5.273 -0.5038  1.2869  4.0902
17894TIP3   OH275096   1.095   6.033   5.271 -0.3787 -0.1217  0.3100
17894TIP3    H175097   1.148   6.099   5.315 -0.9563  1.9263 -1.8608
17894TIP3    H275098   1.009   6.073   5.263 -1.4484 -2.1224  0.9583
17895TIP3   OH275099   4.395   2.042  16.228  0.2214 -0.1269 -0.1417
17895TIP3    H175100   4.398   1.997  16.312  0.8163 -1.9290 -1.0535
17895TIP3    H275101   4.466   2.105  16.231  1.1265 -1.1398  0.2302
17896TIP3   OH275102   6.665   2.470  14.448  0.4744  0.2583 -0.3789
17896TIP3    H175103   6.716   2.513  14.379  0.6422  2.1962  0.8725
17896TIP3    H275104   6.671   2.377  14.428  1.1101  0.7060 -2.5606
17897TIP3   OH275105   3.872   4.846  16.276  0.5056 -0.0198 -0.0178
17897TIP3    H175106   3.852   4.890  16.194 -0.5948 -0.7910 -0.1891
17897TIP3    H275107   3.821   4.894  16.342 -0.3089 -0.7106 -0.1306
17898TIP3   OH275108   4.870   6.166  16.740 -0.2055 -0.1839 -0.7815
17898TIP3    H175109   4.897   6.102  16.674 -0.7193 -1.7798  0.4859
17898TIP3    H275110   4.775   6.163  16.739 -0.2676  1.2704 -1.3278
17899TIP3   OH275111   6.570   2.227  14.589 -0.5301 -0.4144 -0.0311
17899TIP3    H175112   6.571   2.294  14.658 -0.0127  0.0722 -0.5003
17899TIP3    H275113   6.478   2.205  14.580 -0.8334  0.9408 -0.5206
17900TIP3   OH275114   3.229   2.289  16.299 -0.3743  0.2188  0.1751
17900TIP3    H175115   3.162   2.353  16.323 -3.1209 -3.0932  2.2936
17900TIP3    H275116   3.202   2.256  16.213  0.1621  0.7794 -0.2171
17901TIP3   OH275117   0.129   3.193  16.011  0.0889 -0.1350 -0.3042
17901TIP3    H175118   0.092   3.267  16.058  1.4288  0.4797 -0.1624
17901TIP3    H275119   0.063   3.124  16.019 -1.3176  1.1250 -0.7177
17902TIP3   OH275120   1.629   5.229  15.906  0.4167 -0.1249  0.5461
17902TIP3    H175121   1.649   5.200  15.995  0.9871 -1.9149 -0.1117
17902TIP3    H275122   1.593   5.151  15.863 -2.0248  1.2811 -0.1878
17903TIP3   OH275123   1.566   6.455  12.382 -0.4160  0.0816  0.7344
17903TIP3    H175124   1.549   6.361  12.373  2.2765 -0.3722 -0.6924
17903TIP3    H275125   1.621   6.461  12.460 -0.3149  0.4427  0.6350
17904TIP3   OH275126   6.305   3.183   6.287 -0.3197  0.4939  0.1793
17904TIP3    H175127   6.223   3.168   6.240  0.3256  1.0490 -1.1861
17904TIP3    H275128   6.278   3.226   6.368 -1.5046 -0.9345  0.5742
17905TIP3   OH275129   5.662   1.480   2.983  0.2757  0.0085 -0.1482
17905TIP3    H175130   5.754   1.454   2.991 -0.1275 -1.3730  0.3639
17905TIP3    H275131   5.629   1.429   2.910 -0.3002 -0.1983  0.2473
17906TIP3   OH275132   5.636   2.570   1.700  0.3187 -0.3645 -0.2947
17906TIP3    H175133   5.651   2.550   1.608 -0.6269 -0.4918 -0.4334
17906TIP3    H275134   5.640   2.485   1.744 -0.9600 -0.5452 -0.4852
17907TIP3   OH275135   4.700   2.475  11.241 -0.5593  0.1648  0.3911
17907TIP3    H175136   4.778   2.514  11.281 -0.2561  0.0693 -0.0936
17907TIP3    H275137   4.649   2.549  11.210  0.2708  0.1951 -1.0032
17908TIP3   OH275138   5.383   0.897   0.024 -0.2008 -0.4728  0.1015
17908TIP3    H175139   5.414   0.839  -0.045  0.8057 -0.5537  0.6008
17908TIP3    H275140   5.430   0.868   0.102  0.8026  1.3818  0.2407
17909TIP3   OH275141   6.091   4.715   2.631  0.3956  0.3078 -0.0698
17909TIP3    H175142   6.166   4.741   2.685  0.3202 -1.0523  0.7319
17909TIP3    H275143   6.021   4.697   2.695  0.0549 -0.5470 -0.6702
17910TIP3   OH275144   4.605   1.047  15.662 -0.0856 -0.2904 -0.4145
17910TIP3    H175145   4.574   0.979  15.722 -0.3910  0.6058  0.4498
17910TIP3    H275146   4.565   1.128  15.693  0.6132  0.3743 -1.1819
17911TIP3   OH275147   6.267   5.534   4.789  0.2145 -0.3102  0.2373
17911TIP3    H175148   6.236   5.496   4.871 -0.2310  0.2988  0.3628
17911TIP3    H275149   6.315   5.612   4.816  0.1937 -0.1888 -0.0730
17912TIP3   OH275150   0.931   0.994  13.742 -0.2588 -0.2448  0.3982
17912TIP3    H175151   0.871   1.021  13.811  2.1112  1.4200  1.9763
17912TIP3    H275152   0.986   1.071  13.727  0.3237 -1.0989 -2.2540
17913TIP3   OH275153   1.788   5.591   2.150  0.6990  0.4355 -0.0372
17913TIP3    H175154   1.833   5.659   2.200 -1.3964  1.4636  0.5445
17913TIP3    H275155   1.697   5.598   2.176  0.2037 -1.7759 -0.9383
17914TIP3   OH275156   5.297   2.906  15.369  0.1032 -0.2194  0.3190
17914TIP3    H175157   5.375   2.902  15.424 -0.2487 -3.5652  0.8266
17914TIP3    H275158   5.306   2.832  15.309 -1.9005  0.2980 -0.7316
17915TIP3   OH275159   0.631   4.709   5.635 -0.2497  0.7647 -0.3013
17915TIP3    H175160   0.540   4.739   5.639 -0.2392  0.7344  0.3894
17915TIP3    H275161   0.674   4.772   5.578 -0.6787  0.8495 -0.5383
17916TIP3   OH275162   4.107   5.585   4.551  0.3262 -0.0307 -0.2282
17916TIP3    H175163   4.090   5.634   4.471 -1.5100 -1.8864 -1.0844
17916TIP3    H275164   4.198   5.604   4.573  0.3727  1.8174 -1.8103
17917TIP3   OH275165   2.822   6.573   4.941 -0.1919 -0.2446 -0.1618
17917TIP3    H175166   2.807   6.632   4.868 -1.5751 -0.2249  0.1047
17917TIP3    H275167   2.797   6.487   4.908 -2.4373 -0.0040  0.7142
17918TIP3   OH275168   5.731   6.375  11.954 -0.1835 -0.1550 -0.6198
17918TIP3    H175169   5.702   6.466  11.962  1.3399  0.3104 -0.0473
17918TIP3    H275170   5.760   6.367  11.863 -0.5740 -0.1455 -0.7441
17919TIP3   OH275171   5.046   5.577  13.791 -0.1020 -0.0577  0.9859
17919TIP3    H175172   5.115   5.638  13.819  0.5168 -0.5824  0.6173
17919TIP3    H275173   4.975   5.591  13.854  0.7997 -0.3617  2.0944
17920TIP3   OH275174   6.538   4.821   1.644 -0.3669 -0.3737  0.4496
17920TIP3    H175175   6.633   4.818   1.650 -0.4177 -1.1491  1.0239
17920TIP3    H275176   6.513   4.735   1.608 -0.7362  0.5382 -1.6044
17921TIP3   OH275177   2.705   2.414   4.974  0.7623 -0.2061 -0.7268
17921TIP3    H175178   2.728   2.322   4.962 -2.1732 -1.3251  1.0440
17921TIP3    H275179   2.704   2.427   5.069  1.8044  1.9107 -0.9395
17922TIP3   OH275180   1.654   2.127   3.264 -0.1879 -0.1168  0.2775
17922TIP3    H175181   1.619   2.081   3.188  1.5409 -1.1935  0.0746
17922TIP3    H275182   1.728   2.178   3.230 -1.4851  2.1729  0.6729
17923TIP3   OH275183   5.810   2.248   5.450 -0.4565  0.6454 -0.4858
17923TIP3    H175184   5.840   2.314   5.387 -1.0803  1.0151 -0.4063
17923TIP3    H275185   5.890   2.214   5.489 -0.1517  2.2129  0.3437
17924TIP3   OH275186   5.001   0.433   2.851  0.2589 -0.3483 -0.2484
17924TIP3    H175187   5.092   0.419   2.877  0.2104  0.3200  0.3294
17924TIP3    H275188   4.963   0.345   2.848  1.0196 -0.6629 -0.8937
17925TIP3   OH275189   6.235   4.988  15.082 -0.0670 -0.2518 -0.3849
17925TIP3    H175190   6.212   5.080  15.070  0.9045 -0.1210 -1.4051
17925TIP3    H275191   6.257   4.957  14.994  0.7232 -1.1527  0.1122
17926TIP3   OH275192   1.954   3.350   2.485 -0.5102 -0.2953  0.2280
17926TIP3    H175193   1.948   3.394   2.400 -0.5009 -0.5649  0.0871
17926TIP3    H275194   1.893   3.277   2.479 -0.2689 -0.5076  0.3379
17927TIP3   OH275195   0.960   3.026   1.303 -0.2415 -0.4411 -0.5300
17927TIP3    H175196   0.981   3.115   1.277  2.5840 -1.0446 -0.6253
17927TIP3    H275197   0.953   2.978   1.220 -3.8570 -0.0390 -0.6251
17928TIP3   OH275198   4.561   1.614  12.806 -0.8950 -0.1730 -0.1838
17928TIP3    H175199   4.596   1.696  12.770  0.4327 -0.9684 -0.7546
17928TIP3    H275200   4.526   1.567  12.731  0.1951 -1.0177 -0.1851
17929TIP3   OH275201   6.551   0.173   3.950  0.0146  0.3893  0.8723
17929TIP3    H175202   6.559   0.081   3.976  0.7069 -0.0572 -0.8157
17929TIP3    H275203   6.457   0.187   3.940 -0.1347  0.0419  1.6617
17930TIP3   OH275204   2.264   5.753  16.155  0.4103  0.3189  0.0315
17930TIP3    H175205   2.299   5.696  16.222  1.3278  0.2371 -0.5105
17930TIP3    H275206   2.341   5.792  16.113 -0.1383  3.1697  1.3918
17931TIP3   OH275207   3.414   3.957  16.053  0.1187  0.2521  0.3428
17931TIP3    H175208   3.394   3.925  15.965 -0.7251  0.6474  0.3743
17931TIP3    H275209   3.490   4.013  16.042  0.8765 -0.7969  0.0987
17932TIP3   OH275210   4.276   2.542  17.070  0.0515  0.4523  0.4502
17932TIP3    H175211   4.365   2.555  17.105  0.8577 -0.8608 -1.0086
17932TIP3    H275212   4.253   2.453  17.097 -0.3089  0.3279 -0.2549
17933TIP3   OH275213   1.949   4.637   2.454 -0.4201 -0.1685  0.0527
17933TIP3    H175214   1.991   4.695   2.390 -0.2439  1.4426  1.5614
17933TIP3    H275215   2.023   4.595   2.499 -0.5261 -0.3925  0.0205
17934TIP3   OH275216   6.494   1.733   5.932 -0.0647  0.3612  0.7351
17934TIP3    H175217   6.401   1.755   5.939 -0.5602 -1.6903  1.5871
17934TIP3    H275218   6.521   1.718   6.023  0.5982 -0.8292  0.3586
17935TIP3   OH275219   5.151   3.173   3.791 -0.0145 -0.3513 -0.4550
17935TIP3    H175220   5.109   3.255   3.818 -1.2264 -1.6403  1.8853
17935TIP3    H275221   5.090   3.134   3.729 -0.1061 -0.1481 -0.4949
17936TIP3   OH275222   2.750   1.730  15.471  0.1130  0.0803  0.1923
17936TIP3    H175223   2.723   1.803  15.415 -0.1810 -0.0329  0.1854
17936TIP3    H275224   2.844   1.722  15.456  0.0011 -0.0909 -0.4588
17937TIP3   OH275225   5.526   5.419   4.067 -0.1483  0.7797 -0.0376
17937TIP3    H175226   5.481   5.404   4.150 -0.8754 -2.1393 -0.8087
17937TIP3    H275227   5.561   5.332   4.044  1.6202  1.9063 -1.8984
17938TIP3   OH275228   3.061   1.916   3.809  0.3573  0.0682 -0.7821
17938TIP3    H175229   2.985   1.963   3.775  0.8454  0.7594 -0.9344
17938TIP3    H275230   3.129   1.983   3.820  0.8002 -0.4572 -0.2054
17939TIP3   OH275231   2.795   5.479   4.831 -0.4097  0.3154  0.2310
17939TIP3    H175232   2.859   5.548   4.811 -0.6499  0.8034  1.1346
17939TIP3    H275233   2.755   5.458   4.746  0.4680  0.4740 -0.2359
17940TIP3   OH275234   5.339   5.723   2.914 -0.0217  0.1633  0.1640
17940TIP3    H175235   5.248   5.693   2.919  0.2799 -1.1583 -1.2064
17940TIP3    H275236   5.375   5.708   3.001 -1.0883  0.6214  0.6913
17941TIP3   OH275237   2.319   2.660   3.785  0.0998  0.6812 -0.2557
17941TIP3    H175238   2.241   2.708   3.756  1.4664  2.3018 -1.3698
17941TIP3    H275239   2.289   2.612   3.863 -1.8153  1.8511 -0.2015
17942TIP3   OH275240   3.907   1.371  15.271 -0.4055 -0.5774  0.6378
17942TIP3    H175241   3.942   1.444  15.324  0.5054 -0.5277 -0.0079
17942TIP3    H275242   3.863   1.414  15.198 -2.0867 -0.6339  1.5637
17943TIP3   OH275243   5.197   0.131   4.121  0.1482 -0.1212 -0.2804
17943TIP3    H175244   5.253   0.147   4.045  0.0692 -0.0740 -0.3289
17943TIP3    H275245   5.125   0.077   4.087 -0.0724  0.1883 -0.3179
17944TIP3   OH275246   4.414   5.594  15.490  0.0294  0.4623 -0.3115
17944TIP3    H175247   4.354   5.547  15.431  0.1560 -0.2454  0.1026
17944TIP3    H275248   4.407   5.685  15.463 -1.4177  0.4367 -0.1215
17945TIP3   OH275249   5.677   4.313  13.347  0.1929  0.0541 -0.6273
17945TIP3    H175250   5.652   4.220  13.349 -0.4821  0.2472  0.4344
17945TIP3    H275251   5.735   4.320  13.271  1.3763 -1.5115  0.0628
17946TIP3   OH275252   2.028   2.790  14.130 -0.2322  0.2475  0.2352
17946TIP3    H175253   1.963   2.776  14.199  1.8176 -2.2457  1.8303
17946TIP3    H275254   2.089   2.853  14.168 -0.7993  1.3609 -0.6384
17947TIP3   OH275255   0.885   3.347  12.929 -0.0564  0.1999 -0.7306
17947TIP3    H175256   0.955   3.365  12.992  1.4070 -1.9372 -1.6295
17947TIP3    H275257   0.817   3.304  12.982  0.4369 -0.0558 -0.2872
17948TIP3   OH275258   3.967   4.513   5.258 -0.3395  0.8949 -0.4409
17948TIP3    H175259   3.963   4.568   5.180  1.3956 -1.1286 -2.1006
17948TIP3    H275260   4.043   4.457   5.244  0.0334  0.4024  2.7413
17949TIP3   OH275261   1.456   0.509  10.870 -0.3741  0.0785 -0.8598
17949TIP3    H175262   1.514   0.519  10.945  0.0645 -2.5264 -0.7448
17949TIP3    H275263   1.372   0.545  10.900  0.0818  0.0627  0.5118
17950TIP3   OH275264   3.060   0.832  13.540 -0.2439 -0.7341  0.0195
17950TIP3    H175265   3.131   0.894  13.551  1.3508 -1.9743 -2.3948
17950TIP3    H275266   3.028   0.846  13.451 -2.7359 -0.5663  0.8618
17951TIP3   OH275267   1.697   6.047   5.085 -0.1845  0.0202 -0.1968
17951TIP3    H175268   1.780   6.013   5.119 -0.0392  0.6462  0.0808
17951TIP3    H275269   1.652   6.082   5.162 -1.1803 -1.2596 -0.1622
17952TIP3   OH275270   0.292   6.404   3.098 -0.0071 -0.0452 -0.2185
17952TIP3    H175271   0.201   6.419   3.123 -0.2896  1.1487 -1.8289
17952TIP3    H275272   0.334   6.489   3.109  1.1099 -0.7254  1.1129
17953TIP3   OH275273   4.781   4.400  13.975  0.4784 -0.1123  0.6221
17953TIP3    H175274   4.842   4.326  13.976 -1.3760 -1.7330  1.1658
17953TIP3    H275275   4.789   4.437  13.888  2.0515 -0.4015  0.6082
17954TIP3   OH275276   1.189   2.836  13.310  0.3029 -0.2575  0.5608
17954TIP3    H175277   1.144   2.846  13.394 -0.1268 -0.1642  0.3191
17954TIP3    H275278   1.123   2.859  13.244 -0.0623 -2.4818  0.0761
17955TIP3   OH275279   1.034   5.498  16.045 -0.1702 -0.8716  0.3854
17955TIP3    H175280   1.089   5.453  15.981  1.8577  1.0923  0.6569
17955TIP3    H275281   0.969   5.544  15.992  1.7076  1.0330 -0.4073
17956TIP3   OH275282   2.022   3.640   3.503  0.7273  0.1039 -0.1031
17956TIP3    H175283   1.939   3.632   3.549 -0.4916  2.0104 -1.8341
17956TIP3    H275284   2.088   3.623   3.571 -1.0034 -0.3366  1.5726
17957TIP3   OH275285   5.112   5.296  14.998  0.5111 -0.2890 -0.0979
17957TIP3    H175286   5.166   5.364  14.958  0.2876  0.6371  1.1348
17957TIP3    H275287   5.108   5.319  15.090 -0.1764 -1.5806  0.2233
17958TIP3   OH275288   1.437   0.965   1.293 -0.0997 -0.3825  0.4494
17958TIP3    H175289   1.449   1.060   1.282 -1.6398 -0.2206  0.0534
17958TIP3    H275290   1.366   0.942   1.234 -0.2076 -1.6816  1.0510
17959TIP3   OH275291   5.577   6.112   4.681  0.5373 -0.0580 -0.2795
17959TIP3    H175292   5.624   6.168   4.743  0.8751 -0.8441  0.1902
17959TIP3    H275293   5.643   6.085   4.618  0.2649  0.4678 -0.8066
17960TIP3   OH275294   0.035   5.446  14.367  0.2561  0.3742 -0.5178
17960TIP3    H175295  -0.059   5.427  14.369  0.1200  0.5378 -2.6554
17960TIP3    H275296   0.045   5.524  14.422 -1.1036  1.1597 -1.3163
17961TIP3   OH275297   4.381   5.706  16.106 -0.1139  0.4366  0.3131
17961TIP3    H175298   4.430   5.626  16.125  0.5002  1.1729  1.9849
17961TIP3    H275299   4.406   5.768  16.175 -2.7271  1.1567  0.7490
17962TIP3   OH275300   0.880   1.113  11.358  0.1382 -0.2463  0.3258
17962TIP3    H175301   0.928   1.102  11.440  0.7636 -0.9300 -0.1133
17962TIP3    H275302   0.908   1.038  11.304  1.9986  1.7161 -1.6233
17963TIP3   OH275303   5.394   0.195   3.537  0.1791  0.7360  0.4578
17963TIP3    H175304   5.388   0.108   3.498  1.4766 -0.6178  3.0078
17963TIP3    H275305   5.320   0.243   3.499  0.9401 -0.5311 -3.0538
17964TIP3   OH275306   4.522   5.811  10.935 -0.4334  0.4104  0.0257
17964TIP3    H175307   4.546   5.893  10.891  0.4916  0.2244  0.1614
17964TIP3    H275308   4.512   5.748  10.863  0.0686  0.3543 -0.0025
17965TIP3   OH275309   4.687   2.368  15.712  0.2864 -0.0496  0.0701
17965TIP3    H175310   4.680   2.374  15.617 -0.3128 -1.2206  0.0239
17965TIP3    H275311   4.691   2.459  15.742 -0.6887  0.3539 -0.9811
17966TIP3   OH275312   3.594   0.727   4.250  0.2429  0.4088  0.2697
17966TIP3    H175313   3.674   0.751   4.298  0.3444 -0.4852  0.5662
17966TIP3    H275314   3.592   0.632   4.254 -0.4742  0.3936 -0.3479
17967TIP3   OH275315   6.283   0.655  17.263 -0.0212 -0.0400 -0.1514
17967TIP3    H175316   6.225   0.637  17.337  0.4380 -1.1264 -0.0309
17967TIP3    H275317   6.303   0.569  17.226 -1.1371  0.5447 -2.2763
17968TIP3   OH275318   6.040   6.232   4.393  0.5115  0.1791 -0.3314
17968TIP3    H175319   5.945   6.228   4.383  0.5991  0.5581 -1.3620
17968TIP3    H275320   6.054   6.311   4.445  0.1444 -1.1421  1.9566
17969TIP3   OH275321   1.240   1.471  12.107  0.7026 -0.9757  0.8446
17969TIP3    H175322   1.234   1.516  12.023 -2.0968 -0.0886  1.4180
17969TIP3    H275323   1.300   1.524  12.159  2.3859 -1.4795 -0.4812
17970TIP3   OH275324   1.582   2.286  11.983 -0.2546  0.2145 -0.5124
17970TIP3    H175325   1.589   2.249  12.071  0.6683  0.0689 -0.6431
17970TIP3    H275326   1.609   2.215  11.924 -3.6173 -0.7098 -1.1709
17971TIP3   OH275327   4.831   0.945   1.704  0.1853 -0.7133  0.0327
17971TIP3    H175328   4.820   1.040   1.708  1.9168 -0.4754 -0.1315
17971TIP3    H275329   4.822   0.916   1.795  0.3637 -0.2913  0.1899
17972TIP3   OH275330   4.379   6.135   1.819 -0.4276  0.1893  0.0411
17972TIP3    H175331   4.399   6.063   1.879  1.3807  0.2399 -0.4260
17972TIP3    H275332   4.327   6.197   1.870  0.7023  0.0260  1.4340
17973TIP3   OH275333   5.026   4.610  10.647  0.6842 -0.1593  0.0669
17973TIP3    H175334   4.973   4.612  10.727  0.4393 -0.3520 -0.0895
17973TIP3    H275335   4.992   4.682  10.594  1.6157  0.7122  0.6179
17974TIP3   OH275336   2.271   4.007  11.575 -0.5136 -0.0742  0.2940
17974TIP3    H175337   2.322   3.926  11.585  0.0261 -0.0612 -1.7466
17974TIP3    H275338   2.335   4.077  11.584 -0.1875 -0.0424 -1.7848
17975TIP3   OH275339   3.368   0.268  13.236 -0.5175  0.0388  0.3564
17975TIP3    H175340   3.307   0.259  13.163 -3.1309  0.3332  2.3738
17975TIP3    H275341   3.355   0.189  13.288  1.4409 -0.2617  0.4615
17976TIP3   OH275342   5.292   4.984   5.831  0.7013 -0.3756 -0.4112
17976TIP3    H175343   5.274   5.069   5.870 -0.4922  0.3637 -2.4179
17976TIP3    H275344   5.247   4.921   5.888  0.0596  0.5142  0.0925
17977TIP3   OH275345   5.953   3.149  15.747  0.1082  0.4733 -0.5720
17977TIP3    H175346   6.040   3.177  15.775 -0.5086  0.8409  1.0788
17977TIP3    H275347   5.893   3.209  15.792 -1.0554 -0.7113 -0.4902
17978TIP3   OH275348   2.440   5.394   5.192 -0.2665 -0.3219 -0.1819
17978TIP3    H175349   2.445   5.327   5.260  0.0500 -0.8921 -0.7541
17978TIP3    H275350   2.532   5.412   5.170 -0.2553  1.4599  1.0618
17979TIP3   OH275351   1.081   4.596   1.913 -0.5626 -0.0215 -0.1010
17979TIP3    H175352   1.170   4.618   1.940 -0.2886 -1.6095  0.3758
17979TIP3    H275353   1.091   4.518   1.858 -1.6628 -0.2006 -0.0750
17980TIP3   OH275354   2.571   1.271   5.236 -0.0609 -0.5574  0.2606
17980TIP3    H175355   2.496   1.296   5.182  1.3262  0.5111 -1.2933
17980TIP3    H275356   2.645   1.319   5.198  1.5581 -2.1224  1.2454
17981TIP3   OH275357   5.746   3.785  11.755  0.0843  0.2546 -0.5370
17981TIP3    H175358   5.747   3.841  11.832 -2.6333  3.0243 -2.2627
17981TIP3    H275359   5.655   3.757  11.747  0.8221 -2.1243 -1.3747
17982TIP3   OH275360   2.576   1.297  12.607  0.4810 -0.0511 -0.1034
17982TIP3    H175361   2.628   1.334  12.536  1.2733 -1.4707 -0.2870
17982TIP3    H275362   2.586   1.202  12.598 -1.7143 -0.3610  0.1756
17983TIP3   OH275363   5.480   2.644   0.667  0.3244 -0.0710 -0.3650
17983TIP3    H175364   5.514   2.719   0.617 -0.8671  0.1472 -0.8831
17983TIP3    H275365   5.385   2.649   0.655 -0.3533  1.4055  3.8014
17984TIP3   OH275366   2.827   3.709  17.137  0.0832 -0.2061 -0.7129
17984TIP3    H175367   2.766   3.752  17.077  0.3772  1.4304  0.1023
17984TIP3    H275368   2.879   3.780  17.173  1.4140 -1.4038 -0.1907
17985TIP3   OH275369   6.043   6.483   3.859  0.2370 -0.0214 -0.0444
17985TIP3    H175370   6.101   6.466   3.933  1.2256  3.4435  0.1508
17985TIP3    H275371   6.101   6.519   3.791 -1.2259  0.7059 -0.9579
17986TIP3   OH275372   2.595   4.240  15.126  0.3878  0.4461 -0.0849
17986TIP3    H175373   2.679   4.224  15.082 -0.3226  0.2620 -1.4312
17986TIP3    H275374   2.542   4.163  15.106  0.1849  0.1409  1.5150
17987TIP3   OH275375   2.733   1.432   0.183 -0.0289 -0.0060 -0.3884
17987TIP3    H175376   2.749   1.397   0.270 -0.3335 -1.2804 -0.8069
17987TIP3    H275377   2.795   1.385   0.126  0.2972  0.9416 -0.8321
17988TIP3   OH275378   4.518   1.308  16.078 -0.3772 -0.0377  0.2542
17988TIP3    H175379   4.583   1.266  16.134 -1.0308  1.4891  2.3072
17988TIP3    H275380   4.438   1.309  16.131 -1.4520  0.2077 -1.2988
17989TIP3   OH275381   0.826   4.515   5.939  0.1273 -0.3867  0.0991
17989TIP3    H175382   0.866   4.583   5.884 -0.0400  0.5604  1.1015
17989TIP3    H275383   0.871   4.524   6.023 -0.0015 -1.4446  0.2889
17990TIP3   OH275384   4.547   5.290  11.644 -0.3020  0.0325  0.0991
17990TIP3    H175385   4.541   5.218  11.706  1.9641  0.6983  1.2194
17990TIP3    H275386   4.641   5.298  11.625 -0.6266  1.8012 -1.0542
17991TIP3   OH275387   1.328   0.661   1.737 -0.6191 -0.2429  0.3671
17991TIP3    H175388   1.344   0.729   1.672 -1.9133  0.1806  0.4775
17991TIP3    H275389   1.368   0.695   1.817  0.8761 -0.7164 -0.1401
17992TIP3   OH275390   5.312   5.665   0.976 -0.7893 -0.5132 -0.2724
17992TIP3    H175391   5.298   5.687   0.884 -0.2741  0.5801 -0.1037
17992TIP3    H275392   5.229   5.626   1.004 -2.1931  2.2315 -0.3167
17993TIP3   OH275393   4.754   0.931   4.212  0.4017  0.0446  0.0128
17993TIP3    H175394   4.762   0.980   4.294  1.3647  0.5117 -0.3420
17993TIP3    H275395   4.843   0.932   4.175  0.5092 -2.1315  0.0746
17994TIP3   OH275396   5.539   4.473   5.479 -0.1226 -0.4163 -0.0042
17994TIP3    H175397   5.582   4.388   5.470 -1.2510 -1.4712  3.2555
17994TIP3    H275398   5.466   4.470   5.417  1.6263 -0.4732 -2.1778
17995TIP3   OH275399   4.127   2.996   3.343 -0.4809 -0.7041 -0.2926
17995TIP3    H175400   4.198   2.995   3.279 -0.0834  2.0562 -0.0197
17995TIP3    H275401   4.047   2.997   3.291 -0.2915 -2.1580 -0.6375
17996TIP3   OH275402   3.696   2.042   4.241 -0.0288 -0.0402  0.1414
17996TIP3    H175403   3.653   1.971   4.194 -0.5732 -0.2966  0.9977
17996TIP3    H275404   3.650   2.121   4.211 -2.0750 -0.4223  2.0000
17997TIP3   OH275405   5.290   3.900   4.546  0.1281  0.0237  0.0525
17997TIP3    H175406   5.202   3.898   4.509  0.8980  0.6742 -1.9456
17997TIP3    H275407   5.276   3.910   4.640 -1.9155  0.4349 -0.2393
17998TIP3   OH275408   2.470   1.532  15.718 -0.1260 -0.5018  0.2539
17998TIP3    H175409   2.444   1.440  15.726 -0.7555 -0.2185  1.7800
17998TIP3    H275410   2.416   1.566  15.647  0.2066 -1.3298 -0.4175
17999TIP3   OH275411   3.870   4.068   0.373  0.9262 -0.1356 -0.1614
17999TIP3    H175412   3.924   4.091   0.449  0.5260 -1.8985  0.7138
17999TIP3    H275413   3.932   4.065   0.300  1.6570 -0.2442  0.4509
18000TIP3   OH275414   3.587   5.306   1.780  0.0593 -0.0730  0.2514
18000TIP3    H175415   3.537   5.379   1.816 -1.6558 -1.0352 -0.0907
18000TIP3    H275416   3.555   5.229   1.827 -0.7387 -1.0736 -1.7870
18001TIP3   OH275417   1.249   3.842   3.358  0.1402 -0.1606  0.6114
18001TIP3    H175418   1.246   3.825   3.452 -1.2535  2.4064  1.1056
18001TIP3    H275419   1.241   3.937   3.350  0.4298 -0.2863 -2.1202
18002TIP3   OH275420   3.051   3.913   1.744 -0.1797  0.1273  0.4835
18002TIP3    H175421   2.960   3.940   1.754  0.1527  0.9947  1.3193
18002TIP3    H275422   3.079   3.890   1.833 -0.0673 -1.8277 -0.0053
18003TIP3   OH275423   3.912   5.091   0.568 -0.2938 -0.0154  0.2889
18003TIP3    H175424   3.968   5.064   0.641  0.6981 -3.5327 -1.5688
18003TIP3    H275425   3.824   5.089   0.605  0.2657 -0.4833  1.6890
18004TIP3   OH275426   1.873   4.047   4.827 -0.0322  0.9829  0.2495
18004TIP3    H175427   1.830   4.000   4.898 -2.0784 -0.9381 -2.0860
18004TIP3    H275428   1.843   4.137   4.836  0.2158  0.9187  2.1042
18005TIP3   OH275429   3.475   1.585   4.627 -0.9899  0.6918  0.3519
18005TIP3    H175430   3.472   1.678   4.607 -0.1463  0.8131  0.7513
18005TIP3    H275431   3.395   1.549   4.587 -1.7452  1.7181  0.8857
18006TIP3   OH275432   4.704   2.109   2.364  0.2544 -0.0013  0.0582
18006TIP3    H175433   4.664   2.133   2.447  1.6608  1.7210  0.2909
18006TIP3    H275434   4.639   2.135   2.298 -0.1152  0.3193  0.5398
18007TIP3   OH275435   0.105   5.755   4.294  0.3488 -0.8433  0.3791
18007TIP3    H175436   0.038   5.715   4.351 -2.9804  2.0767 -1.1131
18007TIP3    H275437   0.089   5.717   4.208  0.6847 -0.2227  0.0339
18008TIP3   OH275438   5.204   5.339  13.815  0.2508 -0.2627  0.6211
18008TIP3    H175439   5.144   5.412  13.796 -0.0128 -0.4910  0.5739
18008TIP3    H275440   5.213   5.340  13.910 -0.1583 -0.4860  0.6655
18009TIP3   OH275441   0.050   5.648   4.028 -0.0844  0.2987 -0.6191
18009TIP3    H175442  -0.002   5.698   3.966  0.0495 -0.4050 -1.3075
18009TIP3    H275443   0.105   5.592   3.974  0.1974 -0.1577  0.1274
18010TIP3   OH275444   4.806   0.693  12.371  0.6822  0.2453 -0.2105
18010TIP3    H175445   4.765   0.629  12.312  0.9377 -2.5612  2.4081
18010TIP3    H275446   4.883   0.724  12.323  1.1280 -2.2257 -1.2303
18011TIP3   OH275447   3.789   0.922   5.544 -0.0658 -0.2876  0.3627
18011TIP3    H175448   3.851   0.871   5.493 -0.1892 -0.4241  0.3478
18011TIP3    H275449   3.820   1.012   5.538  0.6672 -0.4705  1.1244
18012TIP3   OH275450   4.840   5.562   3.138  0.0641 -0.3616  0.2521
18012TIP3    H175451   4.835   5.470   3.161  1.9588 -0.2313  1.4133
18012TIP3    H275452   4.761   5.601   3.176 -0.8060 -1.4912 -0.3430
18013TIP3   OH275453   3.547   3.798   0.145 -0.2753 -0.5217  0.0839
18013TIP3    H175454   3.490   3.864   0.104 -1.0081 -2.4153 -2.1307
18013TIP3    H275455   3.583   3.843   0.222  0.7543  3.1408 -2.2396
18014TIP3   OH275456   1.667   4.286  13.622 -0.5194  0.4987  0.2660
18014TIP3    H175457   1.619   4.250  13.696  0.4403  0.7006  0.9960
18014TIP3    H275458   1.699   4.210  13.574  0.2190  0.3566  0.9630
18015TIP3   OH275459   3.312   3.665   1.353  0.1466  0.4710  0.2258
18015TIP3    H175460   3.343   3.641   1.441 -0.4792  1.2260  0.6564
18015TIP3    H275461   3.305   3.581   1.307 -1.2638 -0.1463  1.4713
18016TIP3   OH275462   2.994   2.778   3.109  0.0709 -0.1014  0.2796
18016TIP3    H175463   2.951   2.810   3.188 -2.1552  0.4603 -1.0791
18016TIP3    H275464   2.958   2.690   3.096  1.7796 -0.9213  0.8173
18017TIP3   OH275465   0.642   2.690  16.421  0.6342  0.3494 -0.1805
18017TIP3    H175466   0.549   2.674  16.438  0.4048  0.2966 -1.3649
18017TIP3    H275467   0.668   2.755  16.486 -0.1150  0.0248  0.4515
18018TIP3   OH275468   2.204   4.358   3.564  0.3252  0.1462  0.3730
18018TIP3    H175469   2.158   4.287   3.609  1.3689 -1.3628 -0.8421
18018TIP3    H275470   2.284   4.318   3.531 -0.0225  1.3419 -2.1553
18019TIP3   OH275471   0.201   2.352   1.007 -0.1497 -0.2303 -0.1484
18019TIP3    H175472   0.171   2.312   0.925 -2.4894  2.0590 -0.5301
18019TIP3    H275473   0.186   2.284   1.073 -0.8614 -1.1541 -1.2107
18020TIP3   OH275474   2.637   1.553   5.939  0.4480  0.2762  0.4826
18020TIP3    H175475   2.712   1.605   5.967  0.7833 -0.7531  1.6220
18020TIP3    H275476   2.561   1.599   5.974  0.4177  1.8950 -1.5721
18021TIP3   OH275477   1.492   2.882   2.853  0.1334 -0.4710  0.3799
18021TIP3    H175478   1.578   2.841   2.850 -0.7812 -2.4488 -0.8089
18021TIP3    H275479   1.440   2.824   2.908  0.4562  2.8193  4.6552
18022TIP3   OH275480   0.822   5.703  14.586 -0.6470  0.2054  0.3039
18022TIP3    H175481   0.743   5.675  14.539 -0.9387  2.3381 -0.6001
18022TIP3    H275482   0.892   5.697  14.521 -1.0279  3.0301 -0.5023
18023TIP3   OH275483   0.611   4.844   3.066 -0.1023 -0.6746 -0.0706
18023TIP3    H175484   0.568   4.760   3.049  0.9091 -1.1819 -0.2289
18023TIP3    H275485   0.560   4.884   3.137 -0.7441 -1.3033 -0.1658
18024TIP3   OH275486   0.703   1.887   0.479 -0.1417  0.1867 -0.5203
18024TIP3    H175487   0.738   1.973   0.500 -1.7202  1.1397 -1.6087
18024TIP3    H275488   0.616   1.885   0.521 -0.5179 -0.4916 -1.2925
18025TIP3   OH275489   6.304   1.570  11.981 -0.0602  0.3013  0.3274
18025TIP3    H175490   6.357   1.529  12.049 -1.3411 -0.8972  0.6661
18025TIP3    H275491   6.359   1.639  11.945  2.1561 -1.5510 -0.0964
18026TIP3   OH275492   2.546   5.117  14.115  0.5374  0.1675 -0.1199
18026TIP3    H175493   2.518   5.182  14.180 -1.3079 -1.1309  0.4963
18026TIP3    H275494   2.520   5.155  14.031 -1.0687  0.0245  0.2758
18027TIP3   OH275495   2.719   0.840  16.061  0.4380  0.1873  0.1818
18027TIP3    H175496   2.668   0.917  16.089 -0.6035 -0.0446 -0.9468
18027TIP3    H275497   2.754   0.804  16.142 -0.3089  0.9967  0.8999
18028TIP3   OH275498   3.007   0.415  16.204  0.1565  0.4098  0.2247
18028TIP3    H175499   2.970   0.343  16.255  0.0397  1.6042  1.8841
18028TIP3    H275500   3.054   0.371  16.132 -0.2978 -1.2948  0.9149
18029TIP3   OH275501   3.424   5.229   5.507 -0.2671 -0.0015 -0.1400
18029TIP3    H175502   3.340   5.274   5.513 -0.0047  0.4391  0.3611
18029TIP3    H275503   3.411   5.146   5.554 -0.8713 -0.6474 -1.4123
18030TIP3   OH275504   2.920   3.937  13.005  0.0040 -0.1955  0.4273
18030TIP3    H175505   2.998   3.936  13.060  1.1467  1.1671 -1.0728
18030TIP3    H275506   2.869   4.012  13.035  0.5983  0.5124 -0.3067
18031TIP3   OH275507   4.205   3.878   0.311  0.9952  0.2116 -0.0539
18031TIP3    H175508   4.252   3.829   0.243  0.3284  0.9882 -1.1233
18031TIP3    H275509   4.136   3.925   0.263  0.3894  0.6557  1.1965
18032TIP3   OH275510   0.830   3.887  15.073 -0.0860  0.4481 -0.3785
18032TIP3    H175511   0.882   3.964  15.049 -0.5608  0.4003 -1.6295
18032TIP3    H275512   0.753   3.922  15.117  1.4534  0.4779  2.5839
18033TIP3   OH275513   1.394   6.370  11.453 -0.1861  0.1672  0.1800
18033TIP3    H175514   1.455   6.324  11.395 -1.9768 -0.7339 -1.0939
18033TIP3    H275515   1.389   6.317  11.532 -0.3122 -0.4759 -0.2553
18034TIP3   OH275516   6.277   2.943  12.773 -0.1482 -0.3888  0.1411
18034TIP3    H175517   6.219   2.898  12.712 -0.9026  1.6914 -0.7683
18034TIP3    H275518   6.330   3.001  12.717 -0.0362  0.7018  1.3344
18035TIP3   OH275519   0.275   2.235  13.314  0.2443 -0.1448 -0.4210
18035TIP3    H175520   0.230   2.218  13.397  0.3567  1.2747 -0.0424
18035TIP3    H275521   0.241   2.169  13.254 -1.8598  0.4343  0.0432
18036TIP3   OH275522   4.027   4.461  16.412  0.1368  0.0023 -0.9714
18036TIP3    H175523   4.114   4.491  16.386 -0.0412  0.6592 -0.8173
18036TIP3    H275524   4.038   4.432  16.503  0.9927 -3.2189 -1.9517
18037TIP3   OH275525   6.625   6.525   5.349 -0.0413 -0.7157 -0.0105
18037TIP3    H175526   6.588   6.445   5.386 -0.9599 -1.1394 -1.7081
18037TIP3    H275527   6.553   6.588   5.350 -0.7291 -1.3329 -2.7133
18038TIP3   OH275528   1.858   2.308  13.047 -0.2855  0.3352 -0.2553
18038TIP3    H175529   1.788   2.312  12.982 -1.3843 -1.7312  0.7208
18038TIP3    H275530   1.859   2.396  13.086 -0.6992  1.1073 -1.8855
18039TIP3   OH275531   3.379   2.942  11.988  0.1960  0.8562  0.1943
18039TIP3    H175532   3.286   2.920  11.999  0.4971 -1.8549 -1.6388
18039TIP3    H275533   3.380   3.037  11.975 -1.8885  1.4942  3.6323
18040TIP3   OH275534   2.117   0.576  13.816 -0.5608 -0.0444  0.0025
18040TIP3    H175535   2.118   0.481  13.805  1.5960 -0.0784 -0.0492
18040TIP3    H275536   2.030   0.604  13.787 -0.5385 -1.7847 -1.9401
18041TIP3   OH275537   2.426   2.195  11.201  0.4239  0.3316 -0.2128
18041TIP3    H175538   2.343   2.150  11.184  0.1402  0.9921 -0.5952
18041TIP3    H275539   2.463   2.213  11.115  1.9854 -1.7529 -0.0625
18042TIP3   OH275540   0.011   5.762   0.398 -0.3024 -0.2151 -0.2214
18042TIP3    H175541  -0.029   5.845   0.372  0.2726 -0.0625 -0.6540
18042TIP3    H275542  -0.056   5.717   0.449 -0.1010  1.1814  1.3475
18043TIP3   OH275543   5.234   6.058   4.804 -0.0017 -0.7065  0.0272
18043TIP3    H175544   5.142   6.073   4.826  0.4486  0.4326  1.2865
18043TIP3    H275545   5.259   6.134   4.751  0.9114  0.4740  2.0344
18044TIP3   OH275546   3.749   1.020  11.269  0.1090 -0.2108 -0.1139
18044TIP3    H175547   3.812   1.091  11.254  1.1114 -1.2066 -0.7609
18044TIP3    H275548   3.716   1.036  11.357  1.2984  0.3197  0.2577
18045TIP3   OH275549   3.520   4.117   0.368 -0.3505 -0.5802 -0.2226
18045TIP3    H175550   3.521   4.023   0.383 -0.4828 -0.6902 -0.8789
18045TIP3    H275551   3.428   4.138   0.353 -0.3025 -0.3659 -0.2178
18046TIP3   OH275552   6.592   0.103  15.448  0.2573 -0.2412  0.1334
18046TIP3    H175553   6.578   0.070  15.360 -0.4495  1.2098 -0.3222
18046TIP3    H275554   6.576   0.027  15.505  1.4796 -1.3864 -0.9903
18047TIP3   OH275555   3.722   5.506  16.201  0.7708 -0.2550  0.0786
18047TIP3    H175556   3.680   5.539  16.281  2.3728 -3.1967  2.3282
18047TIP3    H275557   3.650   5.480  16.145 -0.4575  3.3235 -0.2811
18048TIP3   OH275558   4.325   2.378   0.064 -0.5886  0.2782  0.2929
18048TIP3    H175559   4.374   2.438   0.120  0.4538 -0.0200 -0.2788
18048TIP3    H275560   4.392   2.336   0.010 -1.5521  0.5403 -1.1524
18049TIP3   OH275561   6.274   3.862   5.093  0.2252 -0.3104  0.9480
18049TIP3    H175562   6.193   3.816   5.072 -1.1579  2.8228 -1.5110
18049TIP3    H275563   6.340   3.793   5.104 -2.0627 -2.8540 -0.3063
18050TIP3   OH275564   1.688   0.566   0.944  0.0452 -0.5087  0.3140
18050TIP3    H175565   1.715   0.601   0.859 -1.0654  0.0649  0.1786
18050TIP3    H275566   1.680   0.643   1.000  2.0963 -1.0042  1.3553
18051TIP3   OH275567   4.628   0.406  12.904 -0.1088  0.1426  0.5311
18051TIP3    H175568   4.532   0.398  12.903 -0.0827 -1.0402  2.4575
18051TIP3    H275569   4.659   0.329  12.857 -0.0877  0.6033 -0.2222
18052TIP3   OH275570   0.009   6.641   0.438  0.1553 -0.2493 -0.4032
18052TIP3    H175571  -0.008   6.616   0.529  1.4742 -0.4115 -0.1707
18052TIP3    H275572  -0.061   6.703   0.416  0.1156  0.2014  0.9015
18053TIP3   OH275573   6.124   6.162   3.126  0.4795 -0.5589 -0.2094
18053TIP3    H175574   6.138   6.231   3.061 -0.3687 -0.2399 -0.0756
18053TIP3    H275575   6.074   6.095   3.080  0.1128 -0.4542  0.0236
18054TIP3   OH275576   0.749   0.291   2.243 -0.2680  0.0339 -0.7270
18054TIP3    H175577   0.795   0.264   2.324 -0.9189  1.3948  0.1206
18054TIP3    H275578   0.797   0.246   2.173  1.4447  0.2216  0.2549
18055TIP3   OH275579   1.660   1.758  14.884  0.5386 -0.4606  0.3933
18055TIP3    H175580   1.744   1.713  14.895  0.6538  0.0947  2.0338
18055TIP3    H275581   1.644   1.800  14.968 -1.8062 -1.2105  0.3731
18056TIP3   OH275582   6.024   4.904  13.276 -0.3043 -0.0260 -0.1220
18056TIP3    H175583   6.041   4.916  13.183  0.2150  0.8384  0.0682
18056TIP3    H275584   6.111   4.894  13.316 -0.4395  0.7150  0.3947
18057TIP3   OH275585   1.855   3.850   2.872  1.0078 -0.2575 -0.8177
18057TIP3    H175586   1.932   3.809   2.914 -0.4346 -0.0380  2.3497
18057TIP3    H275587   1.855   3.939   2.906  0.9339  0.6837 -3.1604
18058TIP3   OH275588   1.392   5.365   5.888  0.3854  0.4597 -0.2082
18058TIP3    H175589   1.437   5.305   5.947  0.5016  0.1395 -0.6183
18058TIP3    H275590   1.440   5.447   5.895  1.2609  0.0228 -0.9081
18059TIP3   OH275591   5.700   5.608  11.922  0.0615  0.4857  0.0619
18059TIP3    H175592   5.644   5.555  11.977  0.7976  0.2211  0.5715
18059TIP3    H275593   5.687   5.698  11.953 -0.0250  0.4154  0.2272
18060TIP3   OH275594   6.605   4.271  13.802 -0.3648  0.2039 -0.5631
18060TIP3    H175595   6.565   4.185  13.787 -0.9492  0.7068 -1.9786
18060TIP3    H275596   6.694   4.250  13.830 -0.7879 -0.8727  0.0693
18061TIP3   OH275597   3.204   2.382   6.213  0.4135 -0.2227  0.4627
18061TIP3    H175598   3.109   2.371   6.212  0.1853  1.4913 -1.3371
18061TIP3    H275599   3.221   2.431   6.293 -0.4637  1.0747 -0.1087
18062TIP3   OH275600   1.224   4.398  14.944  0.2832  0.3722  0.3325
18062TIP3    H175601   1.187   4.386  15.031 -0.1969 -0.5594  0.0229
18062TIP3    H275602   1.228   4.492  14.931  1.9486  0.5794  2.0234
18063TIP3   OH275603   4.110   2.872   0.831  0.3628 -0.1830 -0.0747
18063TIP3    H175604   4.035   2.845   0.778  0.7958 -2.1107  0.2244
18063TIP3    H275605   4.096   2.966   0.845  0.6727  0.6936 -4.2621
18064TIP3   OH275606   0.212   0.026  11.927  0.2110 -0.6417  0.3329
18064TIP3    H175607   0.244   0.111  11.899  1.1452 -1.3757 -0.9049
18064TIP3    H275608   0.117   0.036  11.932  0.3187  0.4725  0.2275
18065TIP3   OH275609   3.895   1.100   2.126  0.1642 -0.7841  0.1579
18065TIP3    H175610   3.927   1.181   2.086 -1.0295  0.1933  1.0846
18065TIP3    H275611   3.922   1.107   2.218 -1.3959 -0.6001  0.6341
18066TIP3   OH275612   1.672   4.808   2.382 -0.0144 -0.0107 -0.6956
18066TIP3    H175613   1.734   4.824   2.453 -0.6156 -0.6091 -0.0092
18066TIP3    H275614   1.722   4.823   2.302  0.9415 -0.2565 -0.1587
18067TIP3   OH275615   3.990   2.204   2.828 -0.2540  0.8480 -0.3124
18067TIP3    H175616   4.072   2.175   2.869 -1.0028  0.4419  0.9705
18067TIP3    H275617   3.930   2.218   2.902 -1.4080  0.9278 -1.2310
18068TIP3   OH275618   3.375   5.212  15.664  0.4368 -0.1061  0.4792
18068TIP3    H175619   3.386   5.205  15.569  1.5627  1.1407  0.4908
18068TIP3    H275620   3.307   5.147  15.685 -2.2871  1.8350 -1.6086
18069TIP3   OH275621   6.534   3.544   4.116 -0.4114  0.0565  0.4519
18069TIP3    H175622   6.615   3.594   4.109 -0.6091  0.3704  0.4067
18069TIP3    H275623   6.509   3.527   4.025 -0.1546 -0.4419  0.4658
18070TIP3   OH275624   0.855   4.884  16.891 -0.1608  0.0553  0.3136
18070TIP3    H175625   0.808   4.891  16.974 -1.1291 -0.1451 -0.2008
18070TIP3    H275626   0.905   4.965  16.885  0.8144 -0.4150  1.6078
18071TIP3   OH275627   0.636   2.739   5.882 -0.2280 -0.0514  0.5040
18071TIP3    H175628   0.656   2.832   5.896 -1.7061  0.1561  1.3747
18071TIP3    H275629   0.543   2.737   5.861 -0.1250 -1.3168  0.0801
18072TIP3   OH275630   2.717   4.003   3.311 -0.2129  0.0564  0.3634
18072TIP3    H175631   2.805   4.036   3.290 -0.2327  0.2913  0.6431
18072TIP3    H275632   2.712   3.919   3.266  0.0916  0.1236  0.2000
18073TIP3   OH275633   6.172   3.240  14.623 -0.1804 -0.1507  0.2436
18073TIP3    H175634   6.258   3.227  14.584 -0.0756  3.5910 -1.2069
18073TIP3    H275635   6.112   3.246  14.549 -1.3525 -0.5750  1.1149
18074TIP3   OH275636   4.125   4.419  12.681  0.1691  0.1571 -0.1365
18074TIP3    H175637   4.210   4.379  12.664 -0.2693  0.2223 -3.0219
18074TIP3    H275638   4.145   4.511  12.701  0.9070 -0.4943  2.4261
18075TIP3   OH275639   2.083   1.919   4.539  0.1006  0.8012  0.6034
18075TIP3    H175640   2.132   1.924   4.457  0.3043  0.3059  0.6921
18075TIP3    H275641   2.004   1.971   4.524  0.0311  0.5252  0.0208
18076TIP3   OH275642   5.268   6.676  13.217 -0.1184 -1.0300  0.0738
18076TIP3    H175643   5.251   6.768  13.195  1.2011 -1.0963 -1.4134
18076TIP3    H275644   5.359   6.661  13.191 -0.4105 -2.8595 -0.0496
18077TIP3   OH275645   2.278   2.539  17.023  0.0761 -0.1028 -0.3978
18077TIP3    H175646   2.352   2.479  17.021  0.5396  0.2782  1.9573
18077TIP3    H275647   2.283   2.580  17.110 -0.3005  3.1988 -1.7680
18078TIP3   OH275648   1.857   1.152   0.585 -0.4096  0.8735 -0.4952
18078TIP3    H175649   1.866   1.063   0.551 -0.5833 -0.4488  2.6063
18078TIP3    H275650   1.943   1.173   0.621 -1.2289  0.5150  1.8218
18079TIP3   OH275651   2.838   6.317  11.395  0.0835 -0.1513  0.0657
18079TIP3    H175652   2.765   6.358  11.349 -1.1243 -1.8239  0.3544
18079TIP3    H275653   2.907   6.383  11.397 -1.2719  1.3370 -0.6050
18080TIP3   OH275654   4.946   6.334   1.371 -0.1548  0.2896 -0.3262
18080TIP3    H175655   4.914   6.286   1.294 -0.0592 -0.0063 -0.1825
18080TIP3    H275656   5.027   6.375   1.342 -0.5919  0.9466 -0.6580
18081TIP3   OH275657   6.084   1.062  16.543 -0.4192  0.5960 -0.1450
18081TIP3    H175658   6.018   1.090  16.606 -0.5389 -1.4327  0.7122
18081TIP3    H275659   6.033   1.023  16.471 -0.2148  0.9717 -0.4955
18082TIP3   OH275660   5.416   5.883   1.458 -0.0114 -0.1672 -0.1919
18082TIP3    H175661   5.457   5.812   1.409 -1.6481 -0.0081 -1.9026
18082TIP3    H275662   5.489   5.941   1.481  1.2391 -1.9688  0.5621
18083TIP3   OH275663   2.890   3.299   0.901  0.2376 -0.0662 -0.0797
18083TIP3    H175664   2.931   3.264   0.822 -0.9119  1.9861 -1.6936
18083TIP3    H275665   2.963   3.319   0.959  1.1286 -1.3234 -0.7243
18084TIP3   OH275666   1.465   6.157   3.762  0.0237 -0.6291 -0.2377
18084TIP3    H175667   1.549   6.134   3.724 -0.3511 -1.1797 -0.7389
18084TIP3    H275668   1.401   6.111   3.709 -0.4675 -2.3436  1.7349
18085TIP3   OH275669   6.193   2.281  12.094  0.4319  0.2407  0.3471
18085TIP3    H175670   6.263   2.307  12.034  0.0458  1.0396  0.2298
18085TIP3    H275671   6.182   2.188  12.078  0.2206  0.4646 -0.9699
18086TIP3   OH275672   1.244   0.956   0.077 -0.0653  0.8524 -0.2020
18086TIP3    H175673   1.184   1.031   0.080 -0.1235  0.7694  1.5983
18086TIP3    H275674   1.205   0.892   0.136  1.1183  0.2855 -0.0155
18087TIP3   OH275675   4.551   6.684   4.153 -0.5288  0.5811  0.2223
18087TIP3    H175676   4.606   6.677   4.231 -4.8934  0.4774  3.6712
18087TIP3    H275677   4.546   6.778   4.136 -0.2245  0.6716  0.6165
18088TIP3   OH275678   3.012   3.792   3.393 -0.0663  0.8708  0.1873
18088TIP3    H175679   3.074   3.815   3.462  0.3239  0.3102  0.0292
18088TIP3    H275680   3.028   3.856   3.323  0.8737  0.2536 -0.1724
18089TIP3   OH275681   3.517   2.777   2.989 -0.0087 -0.7157  0.8326
18089TIP3    H175682   3.561   2.805   3.069 -1.5916  1.1752  1.1327
18089TIP3    H275683   3.426   2.807   3.000 -0.5721 -1.5151 -1.1360
18090TIP3   OH275684   3.804   5.966   2.999  0.2531  0.1899 -0.3201
18090TIP3    H175685   3.823   5.879   3.034 -2.2455 -1.0238 -1.7205
18090TIP3    H275686   3.846   5.967   2.913 -1.4396 -0.5228 -1.2082
18091TIP3   OH275687   1.861   4.421  15.842 -0.0735 -0.2545  0.6050
18091TIP3    H175688   1.783   4.474  15.826  1.2637  1.2845 -1.3161
18091TIP3    H275689   1.924   4.452  15.778  0.9573 -3.9780 -0.4256
18092TIP3   OH275690   6.412   6.358   5.944  0.2072 -0.6165  0.1009
18092TIP3    H175691   6.484   6.323   5.996 -0.6159 -0.9654  1.0328
18092TIP3    H275692   6.342   6.294   5.952 -0.1447 -0.4055 -0.9927
18093TIP3   OH275693   5.335   2.896  14.303  0.4232 -0.0435  0.5348
18093TIP3    H175694   5.397   2.953  14.349  0.1043  0.3695  0.4549
18093TIP3    H275695   5.357   2.808  14.334  0.7644  0.1427  0.8374
18094TIP3   OH275696   2.512   5.581   0.925  0.2917 -0.7568 -0.3997
18094TIP3    H175697   2.501   5.536   0.841 -0.3453 -1.7187  0.1756
18094TIP3    H275698   2.597   5.625   0.917 -1.0232  1.7362 -2.6711
18095TIP3   OH275699   1.612   3.117  12.794  0.2506  0.0620 -0.1223
18095TIP3    H175700   1.561   3.059  12.851 -0.6396  0.5388 -0.4090
18095TIP3    H275701   1.549   3.182  12.764  1.3058  1.4132  0.4892
18096TIP3   OH275702   0.141   5.087  14.753 -0.4379 -0.1616 -0.0053
18096TIP3    H175703   0.052   5.066  14.727 -0.0436 -0.4303 -1.1897
18096TIP3    H275704   0.178   5.136  14.679  0.5017 -0.3447  0.3212
18097TIP3   OH275705   6.690   6.662  13.617  0.2412  0.1647  0.4685
18097TIP3    H175706   6.669   6.572  13.643  1.8801 -0.9007 -1.5752
18097TIP3    H275707   6.646   6.674  13.533  2.1550  0.2450 -0.5907
18098TIP3   OH275708   2.974   0.326   4.717 -0.5872 -0.1303 -0.0677
18098TIP3    H175709   2.977   0.292   4.627 -0.4355 -0.0870 -0.0789
18098TIP3    H275710   3.003   0.252   4.771  2.2587  0.7071 -0.2868
18099TIP3   OH275711   3.471   6.183  16.638  0.5434 -0.5218  0.3563
18099TIP3    H175712   3.431   6.242  16.702  2.0086 -0.3364  1.1515
18099TIP3    H275713   3.487   6.103  16.687  2.1490 -0.2036  0.4130
18100TIP3   OH275714   5.538   0.974   1.872 -0.4041  0.0781 -0.5275
18100TIP3    H175715   5.633   0.987   1.874  0.2181 -2.9912  3.2908
18100TIP3    H275716   5.504   1.040   1.932 -0.7899  1.2521 -1.9825
18101TIP3   OH275717   5.065   0.157   4.474 -0.0453  0.0144 -0.0062
18101TIP3    H175718   4.991   0.215   4.456 -0.5912 -0.7126 -0.1371
18101TIP3    H275719   5.139   0.216   4.485 -0.0272  0.6689 -2.8316
18102TIP3   OH275720   4.609   2.835   0.552  0.3017  0.0747  0.0526
18102TIP3    H175721   4.688   2.888   0.544  0.5016  0.1949  2.1156
18102TIP3    H275722   4.558   2.880   0.620 -0.2381 -1.5339  0.7578
18103TIP3   OH275723   0.374   5.668  13.259  0.2318  0.0495 -0.1173
18103TIP3    H175724   0.440   5.717  13.211  0.8620 -0.9762 -0.3337
18103TIP3    H275725   0.382   5.698  13.349  1.3836 -0.4510 -0.0382
18104TIP3   OH275726   4.846   0.734   0.900 -0.1468  0.0675  0.2342
18104TIP3    H175727   4.794   0.667   0.855  0.7574 -1.4906  1.3939
18104TIP3    H275728   4.931   0.692   0.915  1.4709  2.4754 -1.4749
18105TIP3   OH275729   2.640   4.308   1.979  0.1605 -0.1731  0.8180
18105TIP3    H175730   2.606   4.394   1.953 -0.0486 -0.6606 -0.5746
18105TIP3    H275731   2.734   4.323   1.991  0.1270  0.2424  0.5874
18106TIP3   OH275732   3.181   4.377   2.431 -0.0784 -0.1937  0.6952
18106TIP3    H175733   3.252   4.372   2.495  1.0014 -0.8106 -0.4903
18106TIP3    H275734   3.221   4.419   2.355 -0.9222 -0.7532 -0.0717
18107TIP3   OH275735   2.078   4.735   3.642  0.4943 -0.0794  0.0413
18107TIP3    H175736   2.138   4.696   3.706 -1.3951 -1.9890  0.7501
18107TIP3    H275737   2.113   4.707   3.557 -0.3321 -2.7751  0.4981
18108TIP3   OH275738   6.346   1.909  15.011 -0.6944 -0.5438  0.0822
18108TIP3    H175739   6.372   1.897  15.102 -0.1913 -0.6705 -0.0754
18108TIP3    H275740   6.423   1.947  14.969 -1.2429  0.4123 -0.0873
18109TIP3   OH275741   0.579   4.605  13.358  0.2320  0.4853 -0.5876
18109TIP3    H175742   0.586   4.700  13.355  1.1764  0.4521  0.0707
18109TIP3    H275743   0.626   4.575  13.280  1.2350  0.5162 -0.0049
18110TIP3   OH275744   4.741   3.803   5.183 -0.2697  0.4956 -0.0073
18110TIP3    H175745   4.764   3.871   5.119  0.5525  1.1472  0.9495
18110TIP3    H275746   4.704   3.732   5.130 -0.2630  1.2958 -1.1285
18111TIP3   OH275747   1.082   6.033   3.107  0.1709 -0.2515 -0.0699
18111TIP3    H175748   1.164   6.057   3.150  1.0060 -1.7908 -0.6957
18111TIP3    H275749   1.035   5.981   3.173 -0.0938  0.2328  0.1266
18112TIP3   OH275750   3.092   2.937   0.567 -0.1991  0.3145 -0.2211
18112TIP3    H175751   3.163   2.945   0.504 -0.3263 -0.8279 -0.5326
18112TIP3    H275752   3.040   2.863   0.536  0.3433 -1.0030  1.7759
18113TIP3   OH275753   6.572   6.336  13.032 -0.0324  0.1244  0.1056
18113TIP3    H175754   6.636   6.275  13.070 -0.1203 -0.3905 -0.5604
18113TIP3    H275755   6.582   6.325  12.937 -0.5844  0.5894 -0.0090
18114TIP3   OH275756   3.165   3.411  13.941  0.1851 -0.4452 -0.3064
18114TIP3    H175757   3.200   3.490  13.983 -0.9758 -0.8450  1.5413
18114TIP3    H275758   3.213   3.404  13.858  2.8876  0.1938  1.1069
18115TIP3   OH275759   4.461   5.760   4.366  0.5545 -0.1127  0.0437
18115TIP3    H175760   4.552   5.735   4.351  1.0161  1.8948 -0.8513
18115TIP3    H275761   4.445   5.829   4.302 -1.5592 -0.2824  0.3243
18116TIP3   OH275762   2.225   6.066   3.038 -0.6050 -0.2046 -0.1733
18116TIP3    H175763   2.137   6.101   3.051 -0.2022  1.6623 -1.8656
18116TIP3    H275764   2.273   6.090   3.117 -0.8793  1.4006 -0.4625
18117TIP3   OH275765   4.980   1.731   1.653 -0.5760 -0.6687  0.0602
18117TIP3    H175766   4.937   1.650   1.682 -0.3142 -1.4115 -1.4858
18117TIP3    H275767   4.922   1.766   1.585  0.4543 -0.8718 -0.9729
18118TIP3   OH275768   5.767   4.192  16.239 -0.1910  0.0558 -0.0366
18118TIP3    H175769   5.807   4.259  16.294 -2.7629  0.4186  1.5982
18118TIP3    H275770   5.811   4.111  16.264  0.8645  0.6904  0.2037
18119TIP3   OH275771   0.812   2.593   4.300 -0.3940 -0.4319 -0.0575
18119TIP3    H175772   0.811   2.632   4.213 -0.0385 -1.8106 -0.7084
18119TIP3    H275773   0.882   2.640   4.346 -0.9089  0.6345 -0.3368
18120TIP3   OH275774   1.995   3.839  11.597 -0.3634 -0.5654  0.1722
18120TIP3    H175775   2.009   3.820  11.690  1.3979  0.7335  0.2272
18120TIP3    H275776   2.048   3.772  11.552 -1.7196 -1.5935  0.0462
18121TIP3   OH275777   0.090   5.866   3.094  0.1699 -0.1906  0.5363
18121TIP3    H175778   0.049   5.829   3.172  0.2747 -0.3691  0.5066
18121TIP3    H275779   0.161   5.806   3.073 -0.6761 -0.8755 -0.4744
18122TIP3   OH275780   0.560   2.981  16.813  0.4819  0.1012 -0.3592
18122TIP3    H175781   0.600   3.049  16.760  0.6310  0.9832  0.8403
18122TIP3    H275782   0.608   2.901  16.789 -0.8217 -0.0020 -3.0235
18123TIP3   OH275783   0.763   5.180  13.475 -0.4439  0.2743 -0.2630
18123TIP3    H175784   0.766   5.172  13.379 -0.2940 -0.2353 -0.2177
18123TIP3    H275785   0.752   5.090  13.506 -1.3717  0.5318  0.1689
18124TIP3   OH275786   6.092   1.489   7.001 -0.1568 -0.1535 -0.2965
18124TIP3    H175787   6.056   1.515   7.086 -1.2482  1.2139 -1.1507
18124TIP3    H275788   6.167   1.546   6.988 -0.1086 -0.2292 -0.3532
18125TIP3   OH275789   3.998   3.469   1.687 -0.1658 -0.3777  0.1297
18125TIP3    H175790   4.049   3.438   1.761  0.9118  2.9573  0.9511
18125TIP3    H275791   3.908   3.469   1.718 -0.1527 -1.9346  0.2726
18126TIP3   OH275792   6.668   4.659   0.446  0.0920 -0.0407 -0.0385
18126TIP3    H175793   6.690   4.609   0.368  0.3587  0.4969 -0.3189
18126TIP3    H275794   6.600   4.720   0.418  0.3780  0.3375  0.0752
18127TIP3   OH275795   1.242   5.403  15.898 -0.0030 -0.7274  0.0233
18127TIP3    H175796   1.306   5.376  15.964  2.2850  1.9349 -0.9147
18127TIP3    H275797   1.260   5.347  15.823 -0.3202 -1.4591  0.4720
18128TIP3   OH275798   3.759   3.587  11.911  0.4792 -0.3281  0.4076
18128TIP3    H175799   3.692   3.557  11.973 -1.7159  1.3838 -0.9427
18128TIP3    H275800   3.792   3.508  11.870 -1.3311 -1.2154  0.5853
18129TIP3   OH275801   0.633   6.631   0.144 -0.4898  0.2872  0.0621
18129TIP3    H175802   0.607   6.723   0.149  1.2355  0.8854 -0.9208
18129TIP3    H275803   0.598   6.600   0.061  0.3194  0.5659 -0.3972
18130TIP3   OH275804   5.125   6.604   0.889  0.0465 -0.3727  0.1218
18130TIP3    H175805   5.117   6.636   0.799 -1.1902 -0.2814  0.2438
18130TIP3    H275806   5.043   6.557   0.904 -0.0551  0.1925  1.4244
18131TIP3   OH275807   4.885   4.325  16.855 -0.0251  0.0497  0.8209
18131TIP3    H175808   4.952   4.265  16.823 -2.1442 -2.0575  0.0627
18131TIP3    H275809   4.841   4.278  16.925 -0.8212  1.3130  1.2180
18132TIP3   OH275810   5.725   6.320   2.516  0.6889  0.3404 -0.5650
18132TIP3    H175811   5.685   6.386   2.574 -0.5670 -1.2153  0.4386
18132TIP3    H275812   5.719   6.358   2.429  0.2777  1.6748  0.0110
18133TIP3   OH275813   5.214   4.978  13.069  0.3918  0.3456 -0.0709
18133TIP3    H175814   5.154   5.041  13.106 -0.6363 -0.8422  0.3650
18133TIP3    H275815   5.170   4.945  12.991 -0.0893 -1.3346  0.8437
18134TIP3   OH275816   2.591   6.058  15.683  0.1095 -0.3242 -0.5660
18134TIP3    H175817   2.497   6.075  15.685  0.3104  0.9003 -0.2105
18134TIP3    H275818   2.601   5.970  15.720 -0.8612 -0.3132 -0.2475
18135TIP3   OH275819   3.617   5.378  14.420  0.1887 -0.0530  0.7732
18135TIP3    H175820   3.691   5.383  14.358 -0.6373  1.1909 -0.1627
18135TIP3    H275821   3.581   5.291  14.405  0.0617  0.1824 -0.4761
18136TIP3   OH275822   4.269   0.318   3.726  0.4125 -0.4769  0.1514
18136TIP3    H175823   4.306   0.263   3.656 -0.8250 -1.2055  0.0432
18136TIP3    H275824   4.337   0.320   3.793  1.8128  0.5880 -1.2154
18137TIP3   OH275825   4.903   2.695   3.324 -0.6259 -0.4819 -0.4201
18137TIP3    H175826   4.944   2.764   3.376 -1.3972 -1.0126  0.9560
18137TIP3    H275827   4.937   2.613   3.360 -1.5924 -0.8767 -0.3637
18138TIP3   OH275828   2.166   4.139  14.517  0.4653 -0.6999  0.4175
18138TIP3    H175829   2.172   4.056  14.564 -0.5197 -0.5823  0.7784
18138TIP3    H275830   2.079   4.139  14.478  0.5401  0.0584  0.2236
18139TIP3   OH275831   3.306   0.165  12.003 -0.4619  0.3795 -0.1864
18139TIP3    H175832   3.290   0.073  12.021  0.2365  0.4905  1.1583
18139TIP3    H275833   3.221   0.199  11.974 -0.5074 -0.8511 -1.5978
18140TIP3   OH275834   3.410   4.710  12.032  0.4905 -0.2037  0.8763
18140TIP3    H175835   3.455   4.644  12.084 -1.4224 -2.3394 -0.0300
18140TIP3    H275836   3.410   4.675  11.943 -0.0211  1.3500  0.2283
18141TIP3   OH275837   0.432   5.945   6.816 -0.3862  0.4678  0.5068
18141TIP3    H175838   0.519   5.936   6.777 -0.5540  2.2986 -0.3895
18141TIP3    H275839   0.449   5.966   6.908  0.0365 -1.6619  0.9865
18142TIP3   OH275840   1.967   4.090   4.379  0.2241 -0.3493 -0.6637
18142TIP3    H175841   1.914   4.123   4.452 -0.1492  0.3131 -1.2128
18142TIP3    H275842   2.021   4.021   4.417  0.1350  0.0762  0.2690
18143TIP3   OH275843   3.278   5.706   6.417 -0.5406  0.0558 -0.0733
18143TIP3    H175844   3.273   5.666   6.330 -0.1823 -0.7656  0.2652
18143TIP3    H275845   3.230   5.788   6.409  0.7247  0.7088 -1.4326
18144TIP3   OH275846   0.923   3.594   5.053 -0.6780 -0.0109  0.2998
18144TIP3    H175847   0.937   3.614   4.960 -2.0554  0.0556  0.0832
18144TIP3    H275848   0.991   3.531   5.075 -0.0375  0.3321 -0.6269
18145TIP3   OH275849   1.557   2.171   4.922 -0.4252  0.3080 -0.6304
18145TIP3    H175850   1.551   2.248   4.978  0.6658 -1.0906  1.5581
18145TIP3    H275851   1.643   2.177   4.881 -1.4806  1.6768 -2.8435
18146TIP3   OH275852   2.008   6.159  16.483  0.0070 -0.3586 -0.0511
18146TIP3    H175853   2.052   6.161  16.568 -1.2993  1.6622  0.6415
18146TIP3    H275854   2.070   6.115  16.425  2.3316  1.0862  1.2016
18147TIP3   OH275855   1.831   6.174   1.457  0.3675  0.5135 -0.4822
18147TIP3    H175856   1.761   6.137   1.403  0.6990 -1.6956  0.4617
18147TIP3    H275857   1.859   6.253   1.411 -0.4189 -0.4203 -2.6918
18148TIP3   OH275858   3.814   6.617   0.772 -0.2400  0.0343 -0.0208
18148TIP3    H175859   3.778   6.595   0.686 -1.6676 -1.7304  0.9494
18148TIP3    H275860   3.791   6.542   0.827  0.6814  1.0902  1.8941
18149TIP3   OH275861   5.568   3.557  14.889 -0.3972  0.2741  0.0049
18149TIP3    H175862   5.495   3.512  14.847 -0.3446 -0.3858  0.5967
18149TIP3    H275863   5.530   3.639  14.921 -0.5216  0.6211 -0.9851
18150TIP3   OH275864   0.680   5.100  16.364  0.0073  0.4845  1.1652
18150TIP3    H175865   0.730   5.036  16.314 -2.2207 -1.4005  1.1711
18150TIP3    H275866   0.673   5.061  16.452  0.5113  1.8407  1.8294
18151TIP3   OH275867   0.987   3.635  12.101 -0.4584 -0.1391  0.0850
18151TIP3    H175868   0.990   3.723  12.063  0.5735 -0.2307 -0.0791
18151TIP3    H275869   0.906   3.597  12.066 -0.3962  0.3891 -0.6617
18152TIP3   OH275870   0.870   3.750  15.686 -0.0000 -0.1588  0.2384
18152TIP3    H175871   0.874   3.707  15.601 -1.6413  1.1833 -0.5735
18152TIP3    H275872   0.952   3.726  15.728  1.4241  0.0946 -2.1901
18153TIP3   OH275873   2.970   5.264  14.778 -0.2542  0.3134 -0.0083
18153TIP3    H175874   3.054   5.256  14.732 -1.3597  0.0676 -2.1118
18153TIP3    H275875   2.971   5.354  14.812  0.5819  0.5659 -0.6415
18154TIP3   OH275876   3.998   5.804  15.200  0.0559  0.4353 -0.5956
18154TIP3    H175877   3.948   5.736  15.246 -0.0274  1.2577  0.5818
18154TIP3    H275878   3.948   5.821  15.120  0.8915 -1.9637 -1.7440
18155TIP3   OH275879   2.054   0.551   0.819  0.5449 -0.4611 -0.1504
18155TIP3    H175880   2.093   0.583   0.900 -2.6872 -0.8085  1.7167
18155TIP3    H275881   2.036   0.630   0.768  2.0241 -0.1997 -0.3357
18156TIP3   OH275882   4.327   1.087  13.779  0.0110 -0.0506 -0.4357
18156TIP3    H175883   4.291   1.051  13.860  3.1623  0.0549  1.1472
18156TIP3    H275884   4.266   1.058  13.711 -1.2092 -2.6588  1.5867
18157TIP3   OH275885   1.407   0.876  12.880 -0.1398 -0.2095 -0.5490
18157TIP3    H175886   1.496   0.879  12.917 -0.7600  1.0683  0.9571
18157TIP3    H275887   1.376   0.966  12.884 -1.4096 -0.5903 -1.3193
18158TIP3   OH275888   5.198   6.430  12.179 -0.2781 -0.4738  0.0080
18158TIP3    H175889   5.127   6.372  12.152 -1.3529  1.1625 -0.8305
18158TIP3    H275890   5.263   6.371  12.217 -1.9486 -2.0599  0.5645
18159TIP3   OH275891   5.532   2.424   4.659 -0.1285  0.1622 -0.4490
18159TIP3    H175892   5.514   2.494   4.597  0.4591  1.2421  0.5753
18159TIP3    H275893   5.609   2.379   4.623 -0.0215  0.5429 -0.6909
18160TIP3   OH275894   3.859   2.401   3.634  0.1398 -0.1889  0.3132
18160TIP3    H175895   3.830   2.310   3.631  0.9699 -0.4369 -1.4782
18160TIP3    H275896   3.779   2.451   3.650 -0.1383 -1.2662  2.6773
18161TIP3   OH275897   4.144   2.775  17.042  0.4361  0.3166 -0.0312
18161TIP3    H175898   4.053   2.747  17.053  0.5626  0.0506  0.3667
18161TIP3    H275899   4.195   2.707  17.086  0.8624  0.1945 -0.6991
18162TIP3   OH275900   3.919   3.807  14.030 -0.1034  0.3300 -0.0513
18162TIP3    H175901   3.904   3.774  14.119 -0.5087  1.0864  0.1733
18162TIP3    H275902   4.012   3.791  14.013 -0.0476  0.0885  0.4735
18163TIP3   OH275903   1.185   1.923   0.519  0.4932 -0.2411  0.1554
18163TIP3    H175904   1.104   1.890   0.558 -0.0413 -1.7970 -2.0755
18163TIP3    H275905   1.180   2.017   0.530  0.1010 -0.5294  3.1671
18164TIP3   OH275906   5.377   5.564   3.691  0.2334  0.0602 -0.2407
18164TIP3    H175907   5.335   5.564   3.777  1.5194 -1.1861  0.4163
18164TIP3    H275908   5.305   5.552   3.630 -0.6260  0.2893  0.6900
18165TIP3   OH275909   0.176   5.427   6.068  0.4733  0.2315  0.0698
18165TIP3    H175910   0.160   5.340   6.032 -0.2786  0.7143 -0.7839
18165TIP3    H275911   0.103   5.441   6.128 -0.5405  1.0662 -1.3026
18166TIP3   OH275912   6.635   1.918   2.842  0.0343 -0.0514  0.2815
18166TIP3    H175913   6.712   1.869   2.869  0.4442  0.7821  0.6690
18166TIP3    H275914   6.663   1.965   2.763 -1.0104 -2.1045 -1.4260
18167TIP3   OH275915   1.426   2.214  13.121 -0.1424  0.0771 -0.5389
18167TIP3    H175916   1.492   2.171  13.175 -1.7700  0.3137  1.7837
18167TIP3    H275917   1.358   2.147  13.108 -0.3329  0.3999 -1.2703
18168TIP3   OH275918   5.950   6.228  15.209  0.4337 -0.3015 -0.0922
18168TIP3    H175919   6.031   6.240  15.159  1.2516 -2.1835  0.6776
18168TIP3    H275920   5.970   6.262  15.296 -1.1451  3.4256 -1.0279
18169TIP3   OH275921   0.769   6.084  14.983 -0.1040 -0.3827 -0.1167
18169TIP3    H175922   0.695   6.102  14.924  1.0357  2.9345 -0.7177
18169TIP3    H275923   0.829   6.031  14.930 -0.1612  0.5619 -1.1766
18170TIP3   OH275924   2.158   1.440  15.838 -0.1932  0.0743 -0.1782
18170TIP3    H175925   2.228   1.501  15.861 -0.0006 -0.3586  0.4212
18170TIP3    H275926   2.200   1.376  15.780 -0.7299  1.2890 -1.9811
18171TIP3   OH275927   3.883   4.515  13.150  0.0009  0.3445  0.0425
18171TIP3    H175928   3.919   4.539  13.235 -0.8373  0.1483  0.4571
18171TIP3    H275929   3.863   4.422  13.158 -0.0200  0.3113 -0.3922
18172TIP3   OH275930   5.381   1.445   0.977 -0.1911 -0.4557 -0.2148
18172TIP3    H175931   5.446   1.414   0.914  2.2105 -2.8491  3.1151
18172TIP3    H275932   5.409   1.535   0.997  0.5059 -0.5508 -0.7136
18173TIP3   OH275933   3.428   4.096   5.055 -0.1112 -0.6659 -0.1038
18173TIP3    H175934   3.432   4.026   4.989 -0.8712  0.6354 -1.5821
18173TIP3    H275935   3.335   4.114   5.065  0.0655 -0.0601  0.4770
18174TIP3   OH275936   5.224   5.491   2.050 -0.3759  0.6110  0.1103
18174TIP3    H175937   5.147   5.456   2.003 -0.3847  1.0633 -0.2232
18174TIP3    H275938   5.261   5.555   1.990  2.2847 -1.9401 -1.2500
18175TIP3   OH275939   6.737   0.896  14.849 -0.5092  0.2682 -0.6300
18175TIP3    H175940   6.813   0.908  14.792 -1.2065 -0.6658 -1.7852
18175TIP3    H275941   6.734   0.976  14.902  0.7769  0.6833 -1.1587
18176TIP3   OH275942   5.707   1.672  13.822 -0.2745 -0.1520  0.5261
18176TIP3    H175943   5.736   1.753  13.780 -0.6808 -0.3365 -0.1091
18176TIP3    H275944   5.718   1.689  13.916  0.5626  0.2841  0.3562
18177TIP3   OH275945   4.170   2.049   2.553  0.2484  0.0898 -0.0835
18177TIP3    H175946   4.196   1.957   2.543 -1.0945 -0.2990 -0.2219
18177TIP3    H275947   4.183   2.067   2.646  0.5447 -0.2465 -0.0576
18178TIP3   OH275948   4.254   1.228  16.210 -0.0980  0.0061 -0.2164
18178TIP3    H175949   4.193   1.177  16.263 -1.2352  2.1485  0.6348
18178TIP3    H275950   4.201   1.260  16.137  1.0959 -1.6598 -1.9150
18179TIP3   OH275951   4.120   1.821   5.648  0.1041 -0.4547  0.0682
18179TIP3    H175952   4.088   1.863   5.727 -0.4802 -2.6727  1.0887
18179TIP3    H275953   4.078   1.870   5.576  0.4678  1.4426  1.0912
18180TIP3   OH275954   0.299   4.262   1.679  0.3469 -0.3356 -0.4125
18180TIP3    H175955   0.242   4.301   1.744 -1.8435 -0.4817 -2.1209
18180TIP3    H275956   0.385   4.303   1.694 -0.4341  0.7247  1.5312
18181TIP3   OH275957   1.942   2.529   2.414 -0.0892 -0.5209 -0.4005
18181TIP3    H175958   1.994   2.609   2.416  1.3698 -1.3785 -1.5445
18181TIP3    H275959   1.983   2.473   2.481 -0.8938 -0.4507  0.1663
18182TIP3   OH275960   4.476   1.127  11.132 -0.7138  0.1527  0.5061
18182TIP3    H175961   4.571   1.136  11.137 -0.7830  0.5930  1.0823
18182TIP3    H275962   4.461   1.085  11.047 -0.1650  2.3071 -0.7140
18183TIP3   OH275963   0.941   4.122   4.010 -0.2316 -0.0248 -0.5707
18183TIP3    H175964   0.927   4.197   4.068  1.0717 -0.7685  0.7940
18183TIP3    H275965   0.982   4.056   4.067 -1.3421 -1.7769 -1.7126
18184TIP3   OH275966   3.510   3.021   5.480 -0.0690 -0.3841  0.5160
18184TIP3    H175967   3.591   2.993   5.522  0.2261 -0.6683 -0.2194
18184TIP3    H275968   3.515   3.116   5.479 -1.0596 -0.2417  2.9987
18185TIP3   OH275969   1.287   4.872  15.084 -0.0831  0.6882 -0.1614
18185TIP3    H175970   1.272   4.803  15.149 -0.4186  2.0382  1.2569
18185TIP3    H275971   1.220   4.937  15.102 -0.9776  0.5988 -2.6864
18186TIP3   OH275972   1.401   3.399  17.146 -0.4084  0.4628  0.0382
18186TIP3    H175973   1.430   3.460  17.214 -0.4953  2.4842 -1.6116
18186TIP3    H275974   1.312   3.427  17.125 -0.1063  0.4022 -1.4234
18187TIP3   OH275975   2.994   2.623   0.011  0.4453 -0.5585 -0.3508
18187TIP3    H175976   3.000   2.632  -0.084  0.9975 -1.0581 -0.3697
18187TIP3    H275977   2.987   2.713   0.043  2.2717 -0.2334 -0.7431
18188TIP3   OH275978   2.432   6.376  14.593 -0.4027 -0.3060  0.3386
18188TIP3    H175979   2.523   6.346  14.584 -0.6331 -0.9190 -0.0767
18188TIP3    H275980   2.436   6.447  14.656  0.4492  0.0614 -0.1168
18189TIP3   OH275981   0.954   1.527  12.647  0.1160  0.0987 -0.5067
18189TIP3    H175982   0.928   1.437  12.670 -2.1011  0.3296 -1.8660
18189TIP3    H275983   0.974   1.523  12.554  3.3019  0.4080  0.0244
18190TIP3   OH275984   0.908   4.575   5.660  0.3302  0.1128  0.6727
18190TIP3    H175985   0.886   4.495   5.613  2.7053  0.1525 -0.6804
18190TIP3    H275986   0.827   4.626   5.658 -0.0888 -0.4341 -2.3359
18191TIP3   OH275987   1.315   4.865   5.419 -0.2965 -0.1865 -0.5779
18191TIP3    H175988   1.354   4.952   5.419  0.0123 -0.3134  0.3647
18191TIP3    H275989   1.242   4.871   5.358  1.0456  0.1260 -2.2452
18192TIP3   OH275990   6.575   2.221   5.922  0.2558 -0.7285 -0.5160
18192TIP3    H175991   6.521   2.182   5.853 -1.1473  0.9475 -0.4247
18192TIP3    H275992   6.547   2.177   6.003 -0.7989 -0.0732 -0.5117
18193TIP3   OH275993   1.094   1.833   5.105 -0.4074  0.0140  0.2561
18193TIP3    H175994   1.158   1.769   5.136 -0.6239 -0.0909  0.4938
18193TIP3    H275995   1.010   1.787   5.108 -0.3995 -0.0869 -0.7589
18194TIP3   OH275996   6.552   0.098  15.802 -0.7463 -0.0399 -0.1357
18194TIP3    H175997   6.639   0.072  15.833 -0.7809 -0.4386 -0.3586
18194TIP3    H275998   6.494   0.031  15.837 -0.6112 -1.2856 -2.1418
18195TIP3   OH275999   4.483   2.290  17.232  0.3541  0.4510  0.4012
18195TIP3    H176000   4.566   2.246  17.212 -0.4639 -0.2519 -1.7491
18195TIP3    H276001   4.416   2.222  17.220 -0.5924  1.0794  1.8011
18196TIP3   OH276002   2.767   4.248   2.243  0.1744  0.0880  0.2915
18196TIP3    H176003   2.728   4.166   2.213 -0.5990  0.2401  0.8376
18196TIP3    H276004   2.722   4.316   2.193 -0.7199  0.3052  1.3289
18197TIP3   OH276005   3.699   4.205  16.818 -0.0002 -0.0327 -0.5006
18197TIP3    H176006   3.744   4.195  16.902  0.3910 -0.1440 -0.7235
18197TIP3    H276007   3.760   4.256  16.764 -1.1419  1.9497 -0.0094
18198TIP3   OH276008   4.094   5.808  13.002  0.3530  0.5562  0.7383
18198TIP3    H176009   4.050   5.877  12.952 -0.7707 -0.0630  0.8484
18198TIP3    H276010   4.185   5.812  12.972  0.2624  1.9287  0.5796
18199TIP3   OH276011   2.627   3.739  17.333 -0.8813 -0.1161  0.0622
18199TIP3    H176012   2.700   3.731  17.272 -2.5565  3.0502 -2.7109
18199TIP3    H276013   2.667   3.764  17.416  1.2641  2.2849 -1.5572
18200TIP3   OH276014   0.486   3.664  13.840 -0.7283  0.8626  0.1433
18200TIP3    H176015   0.554   3.597  13.833 -0.0332  1.5273  0.4078
18200TIP3    H276016   0.468   3.690  13.750 -0.5853  0.7252  0.0753
18201TIP3   OH276017   2.072   3.326  12.778  0.0599 -0.0662 -0.1560
18201TIP3    H176018   2.138   3.304  12.843 -0.0098  2.5280  0.8873
18201TIP3    H276019   1.990   3.326  12.826 -0.1575  0.6992 -0.5095
18202TIP3   OH276020   0.285   1.863   4.442  0.1342 -0.0097  0.4061
18202TIP3    H176021   0.328   1.790   4.397 -0.4360 -0.1840  0.1337
18202TIP3    H276022   0.256   1.826   4.526  0.1350 -0.0130  0.4048
18203TIP3   OH276023   3.607   0.614   3.141 -0.5784 -0.1484  0.2018
18203TIP3    H176024   3.554   0.647   3.069 -2.7035  0.2235  1.8519
18203TIP3    H276025   3.634   0.692   3.189  0.2292 -0.4348  0.2287
18204TIP3   OH276026   3.694   4.684  14.870 -0.2972 -0.3584 -0.2585
18204TIP3    H176027   3.729   4.704  14.783 -0.3493 -2.2687 -0.7672
18204TIP3    H276028   3.684   4.588  14.870  1.6033 -0.6581  2.5758
18205TIP3   OH276029   1.961   5.862   3.599 -0.2159 -0.2224 -0.0219
18205TIP3    H176030   1.994   5.924   3.533  0.4588 -0.8399 -0.2765
18205TIP3    H276031   1.978   5.776   3.562 -0.2510 -0.5762  0.7587
18206TIP3   OH276032   0.364   6.653   0.427 -0.5308  0.2540 -0.0349
18206TIP3    H176033   0.288   6.704   0.399 -0.5651  0.0119 -0.3899
18206TIP3    H276034   0.342   6.624   0.516 -2.3833 -2.6695 -1.2804
18207TIP3   OH276035   5.086   4.445  17.150  0.3218  0.3178 -0.7194
18207TIP3    H176036   5.148   4.405  17.089  2.7040  2.2980  0.2013
18207TIP3    H276037   5.051   4.372  17.201  0.9756 -0.9890 -2.0763
18208TIP3   OH276038   4.415   1.817  15.269  0.1813  0.6117  0.4957
18208TIP3    H176039   4.395   1.884  15.204 -1.3733 -0.6687 -0.4278
18208TIP3    H276040   4.344   1.823  15.333 -1.3753 -1.5806 -0.8487
18209TIP3   OH276041   4.358   5.983  16.448  0.0185 -0.4358 -0.2286
18209TIP3    H176042   4.402   6.063  16.421 -1.5383  0.3432 -0.6009
18209TIP3    H276043   4.421   5.938  16.504  1.5459  0.2299 -1.3517
18210TIP3   OH276044   3.616   5.103  13.495  0.3942  0.9206 -0.1517
18210TIP3    H176045   3.586   5.163  13.426  0.3666  1.4375  0.3020
18210TIP3    H276046   3.684   5.050  13.453 -0.0279  0.8334 -0.7376
18211TIP3   OH276047   4.237   3.029   5.649  0.1835  0.1993 -0.2392
18211TIP3    H176048   4.288   2.949   5.659  0.2518  0.5092  2.7574
18211TIP3    H276049   4.272   3.070   5.570  4.8412  0.5045  1.6541
18212TIP3   OH276050   5.656   4.264  15.998 -0.1066 -0.0106 -0.3480
18212TIP3    H176051   5.708   4.334  15.959 -0.0852  1.4931  2.1915
18212TIP3    H276052   5.707   4.236  16.074 -0.8748 -1.7361 -0.4228
18213TIP3   OH276053   2.958   1.729  13.340  0.2604  0.4680  0.6989
18213TIP3    H176054   2.980   1.718  13.433  0.6499 -0.7233  0.4824
18213TIP3    H276055   2.941   1.640  13.309 -0.3798  0.9035 -0.2587
18214TIP3   OH276056   5.927   1.714  15.502  0.1356 -0.3879  0.4055
18214TIP3    H176057   5.926   1.656  15.579 -1.7867 -0.4042  0.4213
18214TIP3    H276058   5.900   1.799  15.536  1.0332  0.0611  0.0336
18215TIP3   OH276059   3.241   5.845  14.072  0.7795  0.2221 -0.1650
18215TIP3    H176060   3.172   5.845  14.139  2.6754 -0.3978  1.9397
18215TIP3    H276061   3.248   5.753  14.045 -0.0153  0.4777 -1.3101
18216TIP3   OH276062   2.774   3.147  16.675 -0.6662  0.2109 -0.3041
18216TIP3    H176063   2.823   3.165  16.756 -0.9972  0.0700 -0.0715
18216TIP3    H276064   2.841   3.144  16.607 -0.3866  0.3579 -0.0387
18217TIP3   OH276065   6.360   1.195  15.874 -0.6162  0.4646  0.3737
18217TIP3    H176066   6.269   1.172  15.891 -0.3998 -0.4090  0.4061
18217TIP3    H276067   6.403   1.111  15.855  0.0518  0.9339 -0.2393
18218TIP3   OH276068   3.399   3.168  15.791 -0.2610 -0.3521  0.0476
18218TIP3    H176069   3.321   3.205  15.749 -0.2079 -0.6719 -0.3370
18218TIP3    H276070   3.426   3.098  15.733 -0.2152 -0.8395  0.6505
18219TIP3   OH276071   3.781   5.399   1.061  0.1608  0.4648 -0.4532
18219TIP3    H176072   3.718   5.330   1.084  0.3301  0.2573 -0.6062
18219TIP3    H276073   3.787   5.453   1.140 -0.3285  0.5803 -0.4883
18220TIP3   OH276074   5.950   5.496  15.661 -0.1307  0.0859 -0.4022
18220TIP3    H176075   5.882   5.432  15.680  0.8529 -1.4952 -1.9906
18220TIP3    H276076   6.026   5.467  15.712 -0.0161  0.6928 -0.2099
18221TIP3   OH276077   3.022   6.665   3.614 -0.2594  0.0003 -0.0120
18221TIP3    H176078   3.103   6.659   3.563 -2.2815 -0.1795 -3.5296
18221TIP3    H276079   2.986   6.576   3.612 -0.7852  0.1707  1.1231
18222TIP3   OH276080   0.803   5.417   2.323 -0.6690 -0.1297 -0.2678
18222TIP3    H176081   0.896   5.410   2.343 -0.6060 -1.5445 -0.9604
18222TIP3    H276082   0.798   5.415   2.228 -1.3679  0.7053 -0.2610
18223TIP3   OH276083   2.021   5.206   1.389  0.1542 -0.0626 -0.3379
18223TIP3    H176084   1.962   5.132   1.377  0.7043 -0.2598 -2.0563
18223TIP3    H276085   2.059   5.221   1.303  2.8133 -0.1045  0.7336
18224TIP3   OH276086   5.043   4.119  16.501 -0.0736 -0.1214  0.0145
18224TIP3    H176087   5.132   4.131  16.466  0.6071  0.4760  1.8634
18224TIP3    H276088   4.991   4.186  16.456  0.2412 -0.8543 -1.5176
18225TIP3   OH276089   0.970   4.818  13.454 -0.3289 -0.3900  0.1624
18225TIP3    H176090   1.051   4.853  13.488 -0.1746 -1.5150  1.0207
18225TIP3    H276091   0.903   4.847  13.515 -0.0968 -2.1344  1.3207
18226TIP3   OH276092   5.887   1.338  16.916 -0.1726  0.4068 -0.2849
18226TIP3    H176093   5.869   1.396  16.990  0.0016 -0.7013  0.6737
18226TIP3    H276094   5.849   1.254  16.942  2.3131 -0.7977 -0.1639
18227TIP3   OH276095   5.391   1.373   2.324 -0.3585 -0.9310 -0.1999
18227TIP3    H176096   5.395   1.377   2.228  0.1204  0.2066 -0.1400
18227TIP3    H276097   5.391   1.464   2.352 -2.1236 -1.1897  0.8358
18228TIP3   OH276098   6.091   1.383   2.137 -0.4929 -0.8481  0.2998
18228TIP3    H176099   6.110   1.336   2.218 -1.5358 -2.5427 -0.3966
18228TIP3    H276100   6.122   1.472   2.154  1.7974 -1.7957  1.5814
18229TIP3   OH276101   6.150   4.131  15.852  0.3675 -0.3131  0.5521
18229TIP3    H176102   6.128   4.223  15.838  2.3784  0.2213  0.6349
18229TIP3    H276103   6.132   4.117  15.945 -0.3069 -0.1266  0.4571
18230TIP3   OH276104   1.041   4.141   3.193 -0.3757 -0.1710 -0.6749
18230TIP3    H176105   1.094   4.080   3.142 -0.3738  0.2863 -1.2299
18230TIP3    H276106   1.086   4.147   3.277  0.5602  0.3269 -1.1862
18231TIP3   OH276107   1.141   1.547  14.600 -0.2871  0.1736 -0.0851
18231TIP3    H176108   1.066   1.521  14.654  0.5504 -0.6074  0.7523
18231TIP3    H276109   1.109   1.621  14.548 -1.5557  0.0133  0.4268
18232TIP3   OH276110   1.677   3.247   0.616  0.8452 -0.2631  0.1264
18232TIP3    H176111   1.660   3.316   0.552 -2.4318 -0.3784  0.6881
18232TIP3    H276112   1.726   3.180   0.568  1.6940  1.2276 -1.1797
18233TIP3   OH276113   0.303   4.833   1.683 -0.2277 -0.4603  0.1276
18233TIP3    H176114   0.246   4.854   1.609 -1.6664 -2.3749  0.5969
18233TIP3    H276115   0.368   4.902   1.684 -0.2816 -0.2461 -2.7981
18234TIP3   OH276116   1.859   4.132   1.561  0.0434  0.5834 -0.4655
18234TIP3    H176117   1.870   4.209   1.506 -0.0721  0.5092 -0.5933
18234TIP3    H276118   1.835   4.166   1.647 -1.4047  0.6409 -0.8715
18235TIP3   OH276119   4.686   0.517  13.893  0.1309  0.4954  0.5393
18235TIP3    H176120   4.685   0.456  13.820  1.7190  0.1705  0.7413
18235TIP3    H276121   4.681   0.462  13.971  5.0249  0.0766  0.9067
18236TIP3   OH276122   0.796   3.330  14.586  0.1758  0.0381 -0.1592
18236TIP3    H176123   0.733   3.402  14.583 -0.7323 -0.7744 -2.1795
18236TIP3    H276124   0.859   3.350  14.517 -0.5690 -1.4714 -1.3314
18237TIP3   OH276125   0.126   4.131  11.428 -0.2141 -0.1539  0.5252
18237TIP3    H176126   0.067   4.200  11.457 -2.4354 -1.2352 -1.1461
18237TIP3    H276127   0.180   4.174  11.360 -1.0063  0.1576  0.0809
18238TIP3   OH276128   0.153   0.760  11.187  0.3581 -0.0799  0.4218
18238TIP3    H176129   0.114   0.812  11.117  1.4075  0.4915  0.2327
18238TIP3    H276130   0.122   0.671  11.171  2.0169 -0.3326 -1.9118
18239TIP3   OH276131   5.222   1.802   2.132 -0.2901  0.0965  0.0008
18239TIP3    H176132   5.177   1.833   2.053 -0.5926 -0.3521 -0.0061
18239TIP3    H276133   5.154   1.760   2.184  0.1728 -0.8889 -0.1664
18240TIP3   OH276134   3.635   0.742  16.876 -0.2169  0.7249  0.6403
18240TIP3    H176135   3.613   0.815  16.819  0.8299  0.7618  0.2683
18240TIP3    H276136   3.551   0.713  16.912 -0.7365  1.5229  0.0868
18241TIP3   OH276137   5.457   3.380   5.563 -0.4022 -0.2249 -0.1407
18241TIP3    H176138   5.439   3.338   5.648  1.9864  2.5065  1.8933
18241TIP3    H276139   5.425   3.469   5.573  1.8380  0.7865 -1.2693
18242TIP3   OH276140   4.623   0.790   1.063  0.6520 -0.4037  0.2109
18242TIP3    H176141   4.661   0.743   1.137  1.6742  0.4236  0.2243
18242TIP3    H276142   4.694   0.796   0.998  0.6021  1.2264  0.2703
18243TIP3   OH276143   1.470   3.986   5.452  0.6187  0.4912  0.1266
18243TIP3    H176144   1.547   3.973   5.396  0.1256  1.2224 -0.7514
18243TIP3    H276145   1.506   4.016   5.535  1.2965  0.8294 -0.2743
18244TIP3   OH276146   0.215   5.785  17.240 -0.2834  0.4455  0.4168
18244TIP3    H176147   0.137   5.765  17.188  0.4322  0.5940 -0.7392
18244TIP3    H276148   0.185   5.780  17.331 -1.1603 -1.4953  0.0703
18245TIP3   OH276149   5.647   0.291  13.366 -0.2952 -0.6280  0.1305
18245TIP3    H176150   5.591   0.365  13.341 -1.3140 -1.9181 -1.6201
18245TIP3    H276151   5.732   0.331  13.386 -1.0763  1.0944  0.1856
18246TIP3   OH276152   2.984   3.173   6.682 -0.3541 -0.2893 -0.5142
18246TIP3    H176153   3.034   3.137   6.609  0.1830 -0.2223 -0.1882
18246TIP3    H276154   3.050   3.193   6.748 -0.6930  0.7657 -0.4681
18247TIP3   OH276155   2.430   1.035  12.555 -0.4749 -0.0339 -0.8650
18247TIP3    H176156   2.495   0.969  12.582 -1.3029 -0.5256 -0.0004
18247TIP3    H276157   2.445   1.046  12.462 -1.0906 -2.3806 -1.3224
18248TIP3   OH276158   0.765   6.232   0.645  0.7955 -0.7472  0.4402
18248TIP3    H176159   0.747   6.175   0.720 -1.1216 -2.0467 -0.8829
18248TIP3    H276160   0.737   6.180   0.569  0.1236  1.4942 -0.9460
18249TIP3   OH276161   4.631   6.744  15.232  0.1823 -0.9548  0.1450
18249TIP3    H176162   4.701   6.799  15.196  0.1430 -1.0922 -0.1449
18249TIP3    H276163   4.591   6.798  15.300 -0.7322 -0.0705 -1.0247
18250TIP3   OH276164   6.564   4.162  11.828 -0.0779 -0.2841 -0.5311
18250TIP3    H176165   6.659   4.175  11.820 -0.2127  0.3957 -1.1092
18250TIP3    H276166   6.543   4.192  11.916 -0.2563  2.9429 -1.5326
18251TIP3   OH276167   4.501   1.833  14.431 -0.7443 -0.0063 -0.0568
18251TIP3    H176168   4.472   1.781  14.356  1.1303  0.4053 -1.1386
18251TIP3    H276169   4.519   1.769  14.500  0.8869 -0.7906 -1.1461
18252TIP3   OH276170   1.707   1.928   4.736 -0.2908  0.2677  0.5497
18252TIP3    H176171   1.709   1.851   4.679 -0.9299 -0.3117  1.2839
18252TIP3    H276172   1.732   1.895   4.822  0.7628  1.1508  0.6035
18253TIP3   OH276173   4.521   1.033  16.811 -0.1283  0.2791 -0.0790
18253TIP3    H176174   4.593   1.090  16.838 -1.0347  2.6975 -2.2741
18253TIP3    H276175   4.446   1.064  16.862 -0.6122  1.1272 -1.2498
18254TIP3   OH276176   5.998   0.176  15.520  0.1611  0.1900 -0.3220
18254TIP3    H176177   6.031   0.092  15.489 -0.1952  0.3629 -1.2266
18254TIP3    H276178   6.073   0.217  15.564  0.2449 -0.7161  0.3989
18255TIP3   OH276179   0.964   4.231   3.590  0.8717 -0.3926 -0.4095
18255TIP3    H176180   0.997   4.161   3.647  0.5837 -2.9747 -3.1948
18255TIP3    H276181   0.869   4.229   3.603  0.7954 -1.0572 -1.0127
18256TIP3   OH276182   1.294   4.422  11.707 -0.2270 -0.0189  0.9127
18256TIP3    H176183   1.254   4.501  11.669 -0.9009  0.7744  3.0921
18256TIP3    H276184   1.387   4.441  11.708 -0.4163  0.9290  1.7530
18257TIP3   OH276185   5.734   2.626  13.710 -0.3805  0.5056 -0.1787
18257TIP3    H176186   5.731   2.714  13.748 -1.2959  0.8745 -1.0611
18257TIP3    H276187   5.647   2.590  13.727  0.4652 -0.8692  1.5763
18258TIP3   OH276188   4.971   4.626   5.742  0.3346  0.3110 -0.3189
18258TIP3    H176189   4.984   4.719   5.728  0.8084  0.1517 -0.9762
18258TIP3    H276190   4.880   4.619   5.772  0.8880  1.1680  1.6997
18259TIP3   OH276191   5.977   3.461  12.944 -0.1903  0.5194 -0.7306
18259TIP3    H176192   6.027   3.516  13.005 -0.6653 -2.3608  2.5982
18259TIP3    H276193   5.900   3.514  12.922  1.0008  2.4387 -0.4921
18260TIP3   OH276194   6.753   4.459   4.681 -0.7532  0.0210  0.6609
18260TIP3    H176195   6.760   4.411   4.764 -3.0048  0.1574  1.0060
18260TIP3    H276196   6.710   4.541   4.705 -1.7814 -0.0929 -0.6592
18261TIP3   OH276197   4.822   5.293  11.576 -0.5332 -0.5640  0.2443
18261TIP3    H176198   4.821   5.201  11.550  2.8325 -0.2174 -1.7582
18261TIP3    H276199   4.896   5.300  11.636 -1.1686  0.7451  0.9163
18262TIP3   OH276200   5.780   1.424  15.299  0.4555  0.0083  0.5485
18262TIP3    H176201   5.783   1.429  15.395 -0.0758  0.0360  0.5647
18262TIP3    H276202   5.803   1.512  15.270  0.1722  0.1203  0.6597
18263TIP3   OH276203   4.442   1.898   0.607 -0.2230  0.4451 -0.2581
18263TIP3    H176204   4.415   1.979   0.563  0.3658  0.5707 -0.4122
18263TIP3    H276205   4.525   1.922   0.650 -0.5740  0.2073  0.5726
18264TIP3   OH276206   4.907   1.808   3.105  0.0654  0.3315 -0.0062
18264TIP3    H176207   4.842   1.859   3.154 -2.5176 -2.6422  0.0127
18264TIP3    H276208   4.985   1.810   3.160 -0.2758  3.1623  0.5310
18265TIP3   OH276209   4.426   3.345  11.481 -0.6511 -0.4511  0.1975
18265TIP3    H176210   4.425   3.427  11.531 -0.6082  1.1212 -2.2148
18265TIP3    H276211   4.470   3.282  11.539  1.2148  1.7666  1.3661
18266TIP3   OH276212   3.760   3.958  16.705  0.5900 -0.2554 -0.3033
18266TIP3    H176213   3.666   3.949  16.690  0.4449  0.6275  0.0452
18266TIP3    H276214   3.769   4.042  16.749  1.4004 -0.9674  0.9349
18267TIP3   OH276215   3.465   2.857   4.925 -0.8675 -0.2492  0.6053
18267TIP3    H176216   3.376   2.869   4.889 -0.0020  0.8403 -1.3441
18267TIP3    H276217   3.452   2.852   5.019 -2.9734  0.4035  0.4110
18268TIP3   OH276218   2.098   5.566   0.765  0.1400 -0.3962 -0.8993
18268TIP3    H176219   2.143   5.572   0.850  0.4429  2.3761 -1.1507
18268TIP3    H276220   2.139   5.634   0.712 -1.4651 -0.6729 -2.5903
18269TIP3   OH276221   3.266   0.192  16.625  0.7166  0.2663  0.3289
18269TIP3    H176222   3.294   0.246  16.551 -0.1419 -0.4316 -0.5326
18269TIP3    H276223   3.171   0.208  16.632  0.5345 -0.7570  0.3539
18270TIP3   OH276224   5.076   6.402   1.087  0.6493  0.0735 -0.1242
18270TIP3    H176225   5.109   6.326   1.134  0.4119  0.1860  0.2265
18270TIP3    H276226   5.008   6.368   1.029  0.1661  0.0946  0.4258
18271TIP3   OH276227   2.427   2.432  17.342  0.1717 -0.0187  0.4908
18271TIP3    H176228   2.349   2.392  17.303  0.3066  0.2801 -0.1096
18271TIP3    H276229   2.399   2.521  17.365 -0.1805 -0.5071  1.9963
18272TIP3   OH276230   1.541   4.684   3.915  0.1809 -1.0534  0.3764
18272TIP3    H176231   1.596   4.621   3.961  2.0507 -0.1012 -0.4437
18272TIP3    H276232   1.598   4.723   3.849 -1.5405 -0.1200 -0.6553
18273TIP3   OH276233   6.398   3.644   3.450  0.4582 -0.9073  0.3389
18273TIP3    H176234   6.321   3.700   3.438  2.4090  1.8018 -0.6352
18273TIP3    H276235   6.396   3.584   3.375 -0.0537 -0.0208 -0.3833
18274TIP3   OH276236   2.470   6.178   2.112 -0.0655 -0.1101 -0.5933
18274TIP3    H176237   2.378   6.152   2.109 -0.3276  0.7298 -0.2288
18274TIP3    H276238   2.471   6.255   2.170  0.8388 -0.0089 -0.7288
18275TIP3   OH276239   2.851   2.997   1.042  0.5610 -0.6003 -0.5767
18275TIP3    H176240   2.879   3.087   1.025 -0.5810  0.0317  0.7101
18275TIP3    H276241   2.849   2.990   1.137 -0.8493 -1.4883 -0.6511
18276TIP3   OH276242   1.925   1.196   2.163  0.1619  0.2470  0.3489
18276TIP3    H176243   1.969   1.119   2.198  0.0550  0.1985  0.3748
18276TIP3    H276244   1.905   1.173   2.072  0.9452  0.5815  0.0862
18277TIP3   OH276245   4.362   0.023  14.181 -0.9363  0.1743  0.0315
18277TIP3    H176246   4.429  -0.032  14.141 -1.1417 -0.7679  0.9564
18277TIP3    H276247   4.280  -0.011  14.146 -1.2145 -1.4273  2.0389
18278TIP3   OH276248   1.737   6.090  16.571  0.0387 -0.1831  0.0890
18278TIP3    H176249   1.688   6.008  16.579 -1.0007  0.5732  2.7670
18278TIP3    H276250   1.802   6.073  16.504  0.3415 -3.4627  1.0452
18279TIP3   OH276251   4.298   2.436  10.970 -0.3205 -0.1465 -0.0593
18279TIP3    H176252   4.375   2.413  11.022 -0.0330 -1.6657 -1.1063
18279TIP3    H276253   4.245   2.357  10.968 -0.2596 -0.1878 -2.1516
18280TIP3   OH276254   3.319   2.613  13.291  0.9222 -0.5294 -0.4090
18280TIP3    H176255   3.224   2.622  13.305  0.7556 -0.1478 -1.7308
18280TIP3    H276256   3.328   2.589  13.199  2.2574  2.1516 -1.0635
18281TIP3   OH276257   3.117   2.220   3.207  0.0803  0.1885 -0.5550
18281TIP3    H176258   3.136   2.133   3.242  1.1590  0.4763 -0.4000
18281TIP3    H276259   3.168   2.280   3.261  1.1961  0.7128 -2.1235
18282TIP3   OH276260   1.377   3.225   2.519 -0.3179  0.0198  0.3661
18282TIP3    H176261   1.304   3.277   2.552 -0.4646 -0.6031  1.0342
18282TIP3    H276262   1.413   3.181   2.596  0.3825 -0.1564 -0.0461
18283TIP3   OH276263   0.548   1.657  15.376 -0.1414 -0.2611 -0.0979
18283TIP3    H176264   0.542   1.562  15.387  0.6018 -0.3333 -0.2559
18283TIP3    H276265   0.487   1.676  15.304 -0.8253 -0.5142  0.4006
18284TIP3   OH276266   0.837   2.635   3.573 -0.5061  0.1695 -0.0691
18284TIP3    H176267   0.797   2.700   3.514 -0.5599 -0.3787 -0.6390
18284TIP3    H276268   0.874   2.569   3.515  1.2262  0.6370  0.4456
18285TIP3   OH276269   4.189   3.305   5.240 -0.2999  0.0601  0.6763
18285TIP3    H176270   4.137   3.386   5.240  0.7311  0.7351  0.7187
18285TIP3    H276271   4.191   3.278   5.148  0.3764  0.7611  0.4787
18286TIP3   OH276272   4.745   1.508  14.728  0.2425 -0.3438  0.2729
18286TIP3    H176273   4.819   1.557  14.766  0.5911 -2.2020  2.2054
18286TIP3    H276274   4.726   1.440  14.793 -1.9784 -1.0804 -1.0486
18287TIP3   OH276275   1.821   1.984  11.624  0.4987 -0.5516  0.5440
18287TIP3    H176276   1.910   2.014  11.606  0.7102 -1.4419  0.0673
18287TIP3    H276277   1.831   1.922  11.696 -0.0420  1.0964  2.1143
18288TIP3   OH276278   4.074   1.110   4.696 -0.2449 -0.2338  0.1181
18288TIP3    H176279   4.122   1.029   4.712  0.3296 -0.0836 -0.7971
18288TIP3    H276280   4.092   1.132   4.605 -1.3905  0.2727 -0.0099
18289TIP3   OH276281   2.435   4.123  15.898 -0.7041 -0.4838  0.0665
18289TIP3    H176282   2.426   4.030  15.920  0.7602 -0.4093  1.1750
18289TIP3    H276283   2.428   4.168  15.983  1.5421  0.1378 -0.0038
18290TIP3   OH276284   0.435   2.265  13.732 -0.6594  0.2648  0.2329
18290TIP3    H176285   0.494   2.270  13.657 -1.1642 -1.5009 -0.3286
18290TIP3    H276286   0.483   2.308  13.803  0.5843  0.3563 -0.6291
18291TIP3   OH276287   6.509   4.157  13.057 -0.3773 -0.2331 -0.1663
18291TIP3    H176288   6.509   4.227  12.991 -3.9839  2.6631  2.4727
18291TIP3    H276289   6.599   4.153  13.087  0.5702  1.1037 -2.4933
18292TIP3   OH276290   5.258   6.501   5.550  0.3530  0.3355  0.3811
18292TIP3    H176291   5.272   6.563   5.478 -0.1627  0.2904  0.2367
18292TIP3    H276292   5.289   6.547   5.628  0.2415  0.6633  0.2326
18293TIP3   OH276293   6.023   4.129  11.810  0.0044  0.3734 -0.3130
18293TIP3    H176294   6.102   4.082  11.836  0.0664 -0.2358 -1.5371
18293TIP3    H276295   5.991   4.169  11.891  1.0634 -0.1163  0.3662
18294TIP3   OH276296   4.457   4.376   5.977 -0.6848 -0.0355  0.3822
18294TIP3    H176297   4.546   4.388   6.011 -0.7174 -1.6031  1.0978
18294TIP3    H276298   4.409   4.453   6.008 -0.2611 -0.5342  2.4401
18295TIP3   OH276299   2.850   3.727  11.906 -0.4412 -0.0895  0.7077
18295TIP3    H176300   2.921   3.667  11.929 -0.7105 -0.8808 -0.4510
18295TIP3    H276301   2.861   3.741  11.811 -1.3116  0.4676  0.6822
18296TIP3   OH276302   6.428   1.692   3.198 -0.4848 -0.1996  0.2552
18296TIP3    H176303   6.449   1.750   3.271  0.0705  1.4428 -1.1409
18296TIP3    H276304   6.353   1.733   3.155 -1.0133 -1.3178  0.0840
18297TIP3   OH276305   4.177   1.096  16.492  0.3060  0.2897  0.3994
18297TIP3    H176306   4.164   1.153  16.568 -1.9849  0.2948  0.0869
18297TIP3    H276307   4.193   1.010  16.529  1.2453  0.6513  0.8703
18298TIP3   OH276308   2.569   6.670  15.434 -1.5409 -1.1241 -0.3112
18298TIP3    H176309   2.532   6.601  15.379 -1.7379 -0.1281 -1.4703
18298TIP3    H276310   2.643   6.704  15.382 -1.4940 -0.4236  0.2053
18299TIP3   OH276311   2.043   6.568  16.326  0.0325 -0.3913 -0.1786
18299TIP3    H176312   2.138   6.578  16.336  0.0710 -0.8278 -0.1091
18299TIP3    H276313   2.031   6.478  16.297 -0.3059 -0.0867 -1.0236
18300TIP3   OH276314   5.142   2.152  11.427 -0.2165 -0.0069  0.3090
18300TIP3    H176315   5.196   2.136  11.350 -0.2961 -0.2912  0.3103
18300TIP3    H276316   5.181   2.098  11.496 -1.1816 -1.1611  0.0080
18301TIP3   OH276317   1.812   6.424   3.732  0.2076 -0.3776 -0.6895
18301TIP3    H176318   1.827   6.488   3.802 -1.0682 -0.8706  0.0723
18301TIP3    H276319   1.850   6.342   3.766  1.1788 -0.2088 -1.3470
18302TIP3   OH276320   2.345   3.798   2.850  0.1326  0.1200 -0.1790
18302TIP3    H176321   2.341   3.875   2.793 -2.7830 -0.7202 -1.3128
18302TIP3    H276322   2.360   3.725   2.790 -0.5760 -0.5167  0.3967
18303TIP3   OH276323   4.168   0.420  13.151 -0.2632  0.4492 -0.2647
18303TIP3    H176324   4.222   0.494  13.177  0.1533 -0.7852  2.8568
18303TIP3    H276325   4.101   0.458  13.095  0.3548  3.0678  0.6202
18304TIP3   OH276326   0.008   0.834  12.827 -0.0442  0.1910  0.2918
18304TIP3    H176327  -0.028   0.787  12.751 -0.8808  1.3602 -0.0657
18304TIP3    H276328   0.102   0.823  12.819  0.0094  1.5096 -1.7818
18305TIP3   OH276329   0.864   5.176  17.087  0.4018 -0.2934 -0.2438
18305TIP3    H176330   0.802   5.233  17.041  0.7969 -0.4880 -1.0477
18305TIP3    H276331   0.812   5.101  17.114 -0.5573  1.2178  2.4648
18306TIP3   OH276332   3.451   5.661   1.029 -0.2424 -0.2807 -0.1400
18306TIP3    H176333   3.464   5.605   1.106  0.0684 -0.5006 -0.3502
18306TIP3    H276334   3.395   5.609   0.971 -1.8387  0.5155  0.6040
18307TIP3   OH276335   4.357   0.577  16.296 -0.1087  0.2925 -0.0390
18307TIP3    H176336   4.404   0.605  16.374 -0.1692 -1.8438  0.8340
18307TIP3    H276337   4.293   0.513  16.328 -1.0202  0.3112 -1.6860
18308TIP3   OH276338   1.072   4.305  15.156 -0.0352  0.0508 -0.4998
18308TIP3    H176339   1.098   4.216  15.182  0.2234  0.6645  1.4653
18308TIP3    H276340   1.000   4.327  15.215 -0.7231  0.8408 -1.5856
18309TIP3   OH276341   4.589   2.539   0.049 -0.0138 -0.5367  0.6164
18309TIP3    H176342   4.637   2.546   0.131 -0.0991 -2.4676  0.8874
18309TIP3    H276343   4.527   2.612   0.051 -0.5067 -0.9452  2.6088
18310TIP3   OH276344   4.598   5.591  11.084 -0.2236  0.3395 -0.3072
18310TIP3    H176345   4.611   5.594  11.179  1.9777 -3.0440 -0.3314
18310TIP3    H276346   4.641   5.669  11.051  3.4101 -0.7804  1.2645
18311TIP3   OH276347   0.649   6.515   4.551  0.3895  0.1221 -0.6534
18311TIP3    H176348   0.592   6.569   4.496 -0.7727 -1.7206 -1.3695
18311TIP3    H276349   0.718   6.485   4.492 -0.7412 -1.6823 -1.1802
18312TIP3   OH276350   5.391   4.349   0.625  0.3759  0.0059 -0.9643
18312TIP3    H176351   5.350   4.402   0.557  1.8694  2.2261 -0.2287
18312TIP3    H276352   5.329   4.351   0.698  0.1144  0.1249 -1.1902
18313TIP3   OH276353   0.402   0.868  11.604  0.4653 -0.0127  0.1791
18313TIP3    H176354   0.376   0.863  11.512  2.3705 -0.0710 -0.3960
18313TIP3    H276355   0.454   0.789  11.618 -0.4008 -0.3780  1.5395
18314TIP3   OH276356   6.310   2.437   5.329  0.4056 -0.5460  0.2142
18314TIP3    H176357   6.375   2.507   5.331 -1.1477  0.9661  0.4871
18314TIP3    H276358   6.272   2.442   5.241 -1.5171  0.7647  1.0449
18315TIP3   OH276359   5.610   0.312   5.255 -0.2332 -0.6059 -0.5452
18315TIP3    H176360   5.589   0.219   5.248  1.4313 -0.9995 -0.6417
18315TIP3    H276361   5.696   0.314   5.297  1.3950  0.7215 -3.6127
18316TIP3   OH276362   5.911   3.047   3.252  0.0981 -0.0620  0.2118
18316TIP3    H176363   5.865   3.076   3.330  1.9207 -1.5377  1.9432
18316TIP3    H276364   5.891   3.113   3.186 -2.1337  0.8132  1.6722
18317TIP3   OH276365   6.110   1.243   5.604  0.1036 -0.0547 -0.2565
18317TIP3    H176366   6.060   1.218   5.681 -0.1876 -1.6105 -0.9003
18317TIP3    H276367   6.132   1.159   5.561  1.7394  0.6640 -0.9393
18318TIP3   OH276368   6.519   5.338  16.109  0.3333  0.6091 -0.1393
18318TIP3    H176369   6.544   5.417  16.060 -2.0907  1.8509  0.4466
18318TIP3    H276370   6.547   5.356  16.199 -1.0767  1.3128  0.1973
18319TIP3   OH276371   4.909   2.115  15.936 -0.0840  0.4058  0.3090
18319TIP3    H176372   4.895   2.027  15.900 -0.6966  0.2312  0.9478
18319TIP3    H276373   4.929   2.169  15.859  1.4232 -0.4977  0.0233
18320TIP3   OH276374   6.031   5.984  13.481 -0.3408  0.1381  0.2971
18320TIP3    H176375   6.036   5.915  13.415  0.0251 -0.2547  0.7288
18320TIP3    H276376   6.068   6.062  13.438 -1.2077  0.2017 -0.3538
18321TIP3   OH276377   6.579   2.672  13.739  0.0394  0.3086 -0.2701
18321TIP3    H176378   6.576   2.593  13.687  0.3356 -0.0907  0.3075
18321TIP3    H276379   6.550   2.742  13.680 -1.2275 -0.3829 -0.4815
18322TIP3   OH276380   3.703   3.087   4.653  0.3260 -0.1768  0.3480
18322TIP3    H176381   3.731   3.112   4.565 -1.3448  0.0229 -0.1726
18322TIP3    H276382   3.732   3.158   4.710  2.1264 -0.6845  0.1271
18323TIP3   OH276383   4.636   6.268  16.620  0.4123  0.4260 -0.2946
18323TIP3    H176384   4.673   6.343  16.575 -1.8564  1.3783 -0.7153
18323TIP3    H276385   4.565   6.238  16.563  0.6984 -1.5044  0.2809
18324TIP3   OH276386   0.359   1.853  16.837 -0.5228 -0.1369 -0.3308
18324TIP3    H176387   0.411   1.842  16.757  2.5135 -0.0403  1.5162
18324TIP3    H276388   0.341   1.764  16.867 -1.3458 -0.1655 -0.8563
18325TIP3   OH276389   1.688   1.487   4.163 -0.0256 -0.4981  0.5393
18325TIP3    H176390   1.710   1.423   4.231  0.2922  0.9507  1.8504
18325TIP3    H276391   1.772   1.515   4.128  0.0359  1.0640  1.7956
18326TIP3   OH276392   2.448   5.693  16.972 -0.1156  0.3468  0.5084
18326TIP3    H176393   2.390   5.623  17.000 -0.9832  1.9160  2.8993
18326TIP3    H276394   2.535   5.664  16.999 -0.3502 -0.1938  0.6977
18327TIP3   OH276395   5.681   6.609  14.834  0.6203 -0.2638 -0.4478
18327TIP3    H176396   5.688   6.678  14.768  3.1105  1.1849  1.1672
18327TIP3    H276397   5.623   6.646  14.901  1.0770 -0.1747 -0.0973
18328TIP3   OH276398   4.626   0.328   2.314 -0.3458 -0.2203  0.4921
18328TIP3    H176399   4.538   0.348   2.347 -0.5176 -1.6595  0.9574
18328TIP3    H276400   4.674   0.297   2.391  0.8505  1.2937  0.4171
18329TIP3   OH276401   2.165   3.501   3.702 -0.7689  0.5464  0.4519
18329TIP3    H176402   2.152   3.477   3.794  1.1254  0.4815  0.7410
18329TIP3    H276403   2.211   3.585   3.706  0.3706 -0.0082 -0.3812
18330TIP3   OH276404   3.580   4.502  11.931 -0.1656 -0.5926 -0.3854
18330TIP3    H176405   3.658   4.508  11.987 -1.6816  1.0041  1.7613
18330TIP3    H276406   3.543   4.416  11.950  0.1660 -0.6731 -0.0957
18331TIP3   OH276407   0.251   1.539  15.332 -0.3875  0.5054  0.1321
18331TIP3    H176408   0.179   1.517  15.273  0.5182  2.8324 -2.0109
18331TIP3    H276409   0.298   1.610  15.288  2.8180 -0.3953  1.7435
18332TIP3   OH276410   2.554   2.437  16.936  0.9229 -0.0246 -0.0748
18332TIP3    H176411   2.607   2.432  16.856  1.8389  0.2293  0.4955
18332TIP3    H276412   2.548   2.347  16.967  2.2912  0.1041  0.6422
18333TIP3   OH276413   0.339   5.159   5.674  0.1073 -0.0945 -0.4732
18333TIP3    H176414   0.247   5.141   5.652  0.3171 -1.3894 -0.3441
18333TIP3    H276415   0.388   5.128   5.599  0.4584  0.5760 -0.5297
18334TIP3   OH276416   6.039   4.200  12.347  0.6783  0.4419  0.2649
18334TIP3    H176417   6.083   4.119  12.371 -1.2971 -0.3234  1.6000
18334TIP3    H276418   5.946   4.178  12.347  0.2017  1.9241 -2.5247
18335TIP3   OH276419   3.704   4.264   0.251  0.8816  0.4121  0.2590
18335TIP3    H176420   3.617   4.230   0.275  0.7214  0.0224 -0.8505
18335TIP3    H276421   3.764   4.191   0.267  0.8114  0.2388 -0.2539
18336TIP3   OH276422   5.516   0.943  15.158  0.4188 -0.2203  0.3766
18336TIP3    H176423   5.558   1.029  15.162  2.1472 -1.0169  0.5139
18336TIP3    H276424   5.589   0.881  15.167 -0.8873 -1.6970  1.3067
18337TIP3   OH276425   3.094   6.638  11.146 -0.0009  0.1261  0.2723
18337TIP3    H176426   3.176   6.612  11.187 -1.2622 -3.6802  0.7434
18337TIP3    H276427   3.111   6.629  11.052  0.0203 -1.0655  0.3829
18338TIP3   OH276428   2.813   3.967   1.458 -0.1794 -1.0671 -0.6185
18338TIP3    H176429   2.883   3.922   1.410  0.4850  1.0622 -1.8136
18338TIP3    H276430   2.843   3.968   1.549  1.6598  0.2277 -1.1831
18339TIP3   OH276431   1.137   4.249  12.411  0.1466 -0.0732  0.0386
18339TIP3    H176432   1.067   4.263  12.347 -1.5272 -3.1163  0.9891
18339TIP3    H276433   1.097   4.271  12.495  0.7698 -0.5254  0.4596
18340TIP3   OH276434   6.072   2.614   0.669  0.0237  0.0319 -0.2609
18340TIP3    H176435   6.064   2.699   0.712 -0.8990 -0.7361  1.1571
18340TIP3    H276436   5.990   2.568   0.690  1.4074 -2.0491  0.9553
18341TIP3   OH276437   0.270   2.905  12.015  0.3627 -0.5268  0.2912
18341TIP3    H176438   0.256   2.858  12.097  2.1608 -2.8917 -0.6447
18341TIP3    H276439   0.343   2.860  11.973 -0.2429  0.8062 -2.4563
18342TIP3   OH276440   4.285   3.786   0.068  0.3195  0.4401 -0.2967
18342TIP3    H176441   4.243   3.716   0.017  0.9267  0.5638 -0.9773
18342TIP3    H276442   4.370   3.798   0.027  1.1019  0.0939  1.1646
18343TIP3   OH276443   1.963   4.134   0.024  0.5546 -0.6630 -0.4595
18343TIP3    H176444   1.891   4.172  -0.027 -0.3999  1.0053  1.9465
18343TIP3    H276445   2.030   4.202   0.025  1.2954 -1.3648 -0.8776
18344TIP3   OH276446   5.333   2.828   1.006  0.2004 -0.0661 -0.3035
18344TIP3    H176447   5.313   2.765   0.937  0.5058 -0.9525  0.3902
18344TIP3    H276448   5.340   2.912   0.961 -0.9962 -0.3889 -1.1332
18345TIP3   OH276449   5.277   1.032  14.472  0.1551  0.1348 -0.2962
18345TIP3    H176450   5.345   0.964  14.482 -0.5603 -0.4582  0.6817
18345TIP3    H276451   5.281   1.055  14.379  2.0217  0.4695 -0.1768
18346TIP3   OH276452   2.608   4.800  15.632 -0.0426  0.1055  0.1805
18346TIP3    H176453   2.524   4.756  15.642  0.3680 -1.1080 -1.3631
18346TIP3    H276454   2.601   4.877  15.688 -2.0199 -0.1828  0.4089
18347TIP3   OH276455   1.806   1.582   6.262  0.0420 -0.1903  0.0621
18347TIP3    H176456   1.806   1.676   6.246 -1.5361 -0.0574  0.6821
18347TIP3    H276457   1.893   1.564   6.298 -0.6531  1.6072  2.9799
18348TIP3   OH276458   2.471   4.717   5.203  0.5584  0.2233 -0.2510
18348TIP3    H176459   2.482   4.719   5.108 -0.2869  0.5105 -0.3503
18348TIP3    H276460   2.379   4.741   5.217  1.3065  2.7917  0.7707
18349TIP3   OH276461   4.997   3.529  15.172  0.4392  0.4291  0.2187
18349TIP3    H176462   5.080   3.518  15.125 -0.1360 -0.6132 -0.6037
18349TIP3    H276463   5.010   3.484  15.255  0.5241 -0.2229 -0.1428
18350TIP3   OH276464   4.478   0.161  11.628  0.6378  0.8867 -0.5344
18350TIP3    H176465   4.470   0.167  11.532  0.6332  1.1211 -0.5198
18350TIP3    H276466   4.572   0.160  11.644  0.6408 -0.0786 -0.5980
18351TIP3   OH276467   2.780   5.512   6.441 -0.0413  0.4023 -0.2042
18351TIP3    H176468   2.689   5.484   6.452  0.2600 -1.2313 -1.4134
18351TIP3    H276469   2.829   5.430   6.431  1.4038  1.2870 -0.6439
18352TIP3   OH276470   4.511   6.050  15.917  0.1268 -0.0905 -0.1394
18352TIP3    H176471   4.605   6.064  15.902  0.0224  0.2825 -0.4345
18352TIP3    H276472   4.489   6.110  15.988 -0.3137  1.2727 -1.3865
18353TIP3   OH276473   4.293   1.821   2.475  0.4030  0.0910 -0.4648
18353TIP3    H176474   4.250   1.745   2.515  0.1487  0.2733 -0.3844
18353TIP3    H276475   4.253   1.827   2.388  1.4539 -0.7177 -1.0157
18354TIP3   OH276476   2.385   2.131   4.543  0.1873 -0.1050 -0.4324
18354TIP3    H176477   2.366   2.129   4.637  0.2500 -2.4161 -0.4032
18354TIP3    H276478   2.472   2.090   4.536  0.4322  0.5612 -1.4701
18355TIP3   OH276479   5.048   4.873  14.154 -0.5095 -0.0525 -0.2544
18355TIP3    H176480   5.072   4.941  14.091 -1.5889 -0.4690 -1.1512
18355TIP3    H276481   5.018   4.920  14.231  0.2632  0.4690 -0.2584
18356TIP3   OH276482   0.449   6.666  10.911 -0.0249  0.4524  0.2531
18356TIP3    H176483   0.502   6.662  10.832 -0.8966 -0.3016 -0.3158
18356TIP3    H276484   0.437   6.574  10.937  0.3762  0.6948  1.3503
18357TIP3   OH276485   5.243   6.673   3.001  0.0022  0.5635  0.2072
18357TIP3    H176486   5.293   6.617   3.060 -0.7169 -0.3238 -0.0037
18357TIP3    H276487   5.272   6.649   2.913 -0.5269  0.2893  0.1016
18358TIP3   OH276488   4.474   2.023  12.260  0.4308  0.0911  0.7323
18358TIP3    H176489   4.410   2.094  12.247  1.4745  0.7632 -0.9910
18358TIP3    H276490   4.422   1.951  12.296 -0.9495  1.2140  1.0901
18359TIP3   OH276491   2.874   3.893  15.668 -0.0417  0.0693 -0.0850
18359TIP3    H176492   2.825   3.901  15.585 -0.6711  0.9883  0.3565
18359TIP3    H276493   2.835   3.960  15.724 -0.8776 -1.7248  1.5811
18360TIP3   OH276494   3.792   0.524   4.553  0.0563  0.2039 -0.8709
18360TIP3    H176495   3.734   0.529   4.629  0.3953 -0.1089 -0.5800
18360TIP3    H276496   3.860   0.589   4.571  0.0753  0.2077 -0.9596
18361TIP3   OH276497   2.076   3.680   0.335  0.3077 -0.2628 -0.4416
18361TIP3    H176498   2.085   3.590   0.303 -0.1151 -0.8038  0.9142
18361TIP3    H276499   2.103   3.676   0.426 -0.5200  0.8196 -0.1272
18362TIP3   OH276500   5.450   5.721  12.613  0.1099  0.0059 -0.3519
18362TIP3    H176501   5.543   5.701  12.619  0.1370  0.3702  0.5886
18362TIP3    H276502   5.414   5.654  12.555  0.6544 -1.1725  0.6376
18363TIP3   OH276503   2.296   5.402  11.326  0.0078  0.2108 -0.1477
18363TIP3    H176504   2.289   5.490  11.364 -1.9861 -1.0680  2.7518
18363TIP3    H276505   2.372   5.363  11.370  0.6342  0.3013 -1.1202
18364TIP3   OH276506   5.764   4.177  13.891  0.1922  0.4028  0.1128
18364TIP3    H176507   5.809   4.245  13.841  1.4257 -0.4701 -0.0300
18364TIP3    H276508   5.674   4.178  13.859  0.7526  0.4197 -1.5582
18365TIP3   OH276509   5.505   2.388  14.160  0.6669 -0.4353 -0.6151
18365TIP3    H176510   5.564   2.443  14.212 -1.6611  2.1762 -0.4907
18365TIP3    H276511   5.485   2.314  14.216 -0.3140  1.3621  1.5571
18366TIP3   OH276512   1.048   1.821   6.225 -0.9537 -0.2636  0.2029
18366TIP3    H176513   1.095   1.738   6.233  1.6460  1.1512  0.7833
18366TIP3    H276514   0.996   1.827   6.305  0.7095 -0.3116  1.3388
18367TIP3   OH276515   2.527   3.501  15.128 -0.0491 -0.3976  0.0738
18367TIP3    H176516   2.460   3.566  15.149 -1.4439 -1.8613  0.3466
18367TIP3    H276517   2.574   3.487  15.211  0.5963  0.5958 -0.1064
18368TIP3   OH276518   6.451   1.402   2.029  0.0234  0.3430  0.4775
18368TIP3    H176519   6.431   1.484   1.985  0.5244  0.3992  0.3397
18368TIP3    H276520   6.441   1.335   1.960  3.1741  0.6629 -0.4863
18369TIP3   OH276521   4.541   2.562   5.108 -0.3763  0.2667 -0.0466
18369TIP3    H176522   4.532   2.498   5.038 -1.4774 -1.0844  1.2550
18369TIP3    H276523   4.453   2.570   5.144  0.5511 -1.0129  2.7827
18370TIP3   OH276524   6.014   6.721  11.798  0.0069  0.0314 -0.2966
18370TIP3    H176525   6.024   6.741  11.705  0.0029  2.7363  0.1915
18370TIP3    H276526   6.101   6.736  11.835  0.0523 -1.2174  0.1228
18371TIP3   OH276527   0.959   5.165  17.343 -0.7198 -0.0812  0.7655
18371TIP3    H176528   0.929   5.181  17.254  1.1031 -0.9245 -0.0609
18371TIP3    H276529   0.966   5.253  17.382  0.7112  0.5142 -0.7301
18372TIP3   OH276530   3.674   3.947   3.831  0.1541  0.0670  0.8721
18372TIP3    H176531   3.727   4.010   3.782 -1.6432  0.1510 -1.1616
18372TIP3    H276532   3.685   3.864   3.784 -1.0497 -0.0342  0.7279
18373TIP3   OH276533   1.701   0.299   0.690 -0.9135  0.0726  0.2175
18373TIP3    H176534   1.654   0.294   0.774 -1.1798 -2.6634 -0.0294
18373TIP3    H276535   1.650   0.244   0.631 -0.1523  1.1385 -1.5034
18374TIP3   OH276536   3.282   0.254  15.901 -0.0839 -0.2957 -0.0654
18374TIP3    H176537   3.187   0.251  15.892  0.1196 -0.8185 -3.3181
18374TIP3    H276538   3.315   0.193  15.835  2.5395  1.2843 -0.3750
18375TIP3   OH276539   0.433   1.601  12.668 -0.1939 -0.1197 -0.0313
18375TIP3    H176540   0.519   1.564  12.654 -1.1182 -2.0417 -0.9830
18375TIP3    H276541   0.411   1.644  12.585 -0.0326  0.6898  0.3311
18376TIP3   OH276542   2.332   0.906   2.482 -0.1808  0.7473 -0.0928
18376TIP3    H176543   2.351   0.813   2.473  0.3195  0.9563 -1.4940
18376TIP3    H276544   2.411   0.950   2.451 -0.8321  1.6296 -0.5564
18377TIP3   OH276545   5.337   0.400   2.458 -0.6102  0.4684  0.2749
18377TIP3    H176546   5.326   0.442   2.543 -0.1679  0.5854  0.2726
18377TIP3    H276547   5.248   0.399   2.421 -1.0176 -0.6071  1.2108
18378TIP3   OH276548   2.312   3.847   1.595 -0.3167 -0.0574  0.5470
18378TIP3    H176549   2.347   3.902   1.525 -1.2858 -1.9130 -1.5251
18378TIP3    H276550   2.217   3.853   1.586 -0.4497 -1.4437  0.7663
18379TIP3   OH276551   5.373   0.019   2.409 -0.1252 -0.0571  0.4600
18379TIP3    H176552   5.291   0.035   2.456  0.1376 -0.5523  1.1011
18379TIP3    H276553   5.440   0.058   2.465  0.2588 -1.1984  0.8188
18380TIP3   OH276554   3.376   0.805  13.205 -0.6457  0.4545 -0.0709
18380TIP3    H176555   3.307   0.776  13.265 -1.3312  2.6782  0.3322
18380TIP3    H276556   3.453   0.816  13.261 -0.5398  0.0057 -0.1222
18381TIP3   OH276557   1.436   5.581  14.825 -0.0338  0.5264  0.1389
18381TIP3    H176558   1.500   5.588  14.754 -0.3428  1.5384 -0.0662
18381TIP3    H276559   1.353   5.564  14.780 -0.3807  2.0053  0.1542
18382TIP3   OH276560   1.485   1.591   5.643 -0.2344  0.2895  0.5840
18382TIP3    H176561   1.538   1.512   5.630 -1.3515 -0.4124  0.1429
18382TIP3    H276562   1.436   1.573   5.723  0.0931  0.8821  0.9220
18383TIP3   OH276563   2.070   0.614   2.150  0.4080 -0.7632 -0.8315
18383TIP3    H176564   2.140   0.647   2.207 -1.3976  1.5200  0.2767
18383TIP3    H276565   2.062   0.522   2.173  0.3055 -0.1205  2.1550
18384TIP3   OH276566   3.069   6.574   5.038 -0.5433 -0.3716 -0.0608
18384TIP3    H176567   2.974   6.571   5.049 -0.5628 -0.4482 -0.2634
18384TIP3    H276568   3.102   6.573   5.128 -0.7716  1.2847  0.0758
18385TIP3   OH276569   6.362   3.210  11.989 -0.0990 -0.5964 -0.0259
18385TIP3    H176570   6.313   3.131  11.967 -0.2755  0.0623 -2.2493
18385TIP3    H276571   6.451   3.193  11.957 -0.1954  0.1632 -0.7352
18386TIP3   OH276572   1.961   2.567  13.956 -0.2109 -0.5973  0.3805
18386TIP3    H176573   1.869   2.568  13.984 -0.0311 -0.1068  0.9842
18386TIP3    H276574   2.005   2.627  14.017  0.9656 -2.6490  1.6589
18387TIP3   OH276575   4.536   5.017  16.238  0.5347 -0.3497  0.4082
18387TIP3    H176576   4.444   5.025  16.213  0.1624 -1.8116  1.1923
18387TIP3    H276577   4.557   4.925  16.221  1.8492 -0.0384  0.2694
18388TIP3   OH276578   0.344   6.450   3.428  0.2487 -0.0410  0.1702
18388TIP3    H176579   0.268   6.422   3.478 -2.3863  1.9913 -2.3109
18388TIP3    H276580   0.413   6.389   3.452 -2.6947 -3.3067  1.0943
18389TIP3   OH276581   1.810   0.694  15.983 -0.3813 -0.0952 -0.0390
18389TIP3    H176582   1.842   0.609  16.011 -0.3391  0.3782  1.4253
18389TIP3    H276583   1.716   0.692  16.002 -0.1871  0.5733  1.0853
18390TIP3   OH276584   1.950   6.212   3.191  0.0195 -0.0123 -0.1873
18390TIP3    H176585   1.926   6.305   3.195 -1.7175 -0.4335 -0.1214
18390TIP3    H276586   1.875   6.169   3.151  0.1895 -1.5905  1.0653
18391TIP3   OH276587   0.575   4.477  16.362 -0.1839 -0.1809  0.2646
18391TIP3    H176588   0.566   4.565  16.326 -0.2512 -0.2919  0.0096
18391TIP3    H276589   0.656   4.444  16.324  0.2394  0.0424  0.9432
18392TIP3   OH276590   6.671   1.814  16.667  0.1502 -0.4384 -1.0146
18392TIP3    H176591   6.700   1.884  16.725 -1.5886  0.2609 -0.9216
18392TIP3    H276592   6.725   1.823  16.588 -0.7439  1.7439 -1.4533
18393TIP3   OH276593   5.296   3.536  12.131 -0.1739  0.7136 -0.2483
18393TIP3    H176594   5.264   3.623  12.106  1.6005  1.7146  0.8124
18393TIP3    H276595   5.323   3.546  12.222 -0.5279 -1.1424  0.0842
18394TIP3   OH276596   2.317   3.873  15.938 -0.2046  0.0982  0.1961
18394TIP3    H176597   2.223   3.878  15.923 -0.1184  0.2418 -0.3210
18394TIP3    H276598   2.326   3.839  16.028 -0.7558  1.2685  0.7120
18395TIP3   OH276599   6.187   2.008  16.747 -0.6078 -0.0210  0.1533
18395TIP3    H176600   6.160   1.989  16.837 -0.1349 -1.4827  0.0051
18395TIP3    H276601   6.243   1.935  16.723 -0.8807  0.2595 -1.4166
18396TIP3   OH276602   0.062   1.564  16.287  0.3062 -0.1967  0.2222
18396TIP3    H176603  -0.031   1.559  16.308  0.3978 -0.6366  0.5213
18396TIP3    H276604   0.065   1.552  16.192  0.1276 -1.0716  0.3209
18397TIP3   OH276605   3.212   5.853  14.896  0.3699 -0.2918 -0.1868
18397TIP3    H176606   3.152   5.800  14.843 -0.0656 -1.4588  1.3821
18397TIP3    H276607   3.173   5.940  14.895  0.1109 -0.3946 -1.3583
18398TIP3   OH276608   0.307   1.703  13.967 -0.1961  0.5675 -0.2322
18398TIP3    H176609   0.369   1.689  14.038 -1.9017  2.4239  1.7849
18398TIP3    H276610   0.332   1.787  13.928 -1.2253  1.2147  0.4439
18399TIP3   OH276611   6.341   5.444  11.278  0.3681  0.0253 -0.4246
18399TIP3    H176612   6.315   5.426  11.188  0.0373 -0.1959 -0.2865
18399TIP3    H276613   6.361   5.358  11.315 -0.1991  0.0454 -0.0714
18400TIP3   OH276614   2.102   6.283   5.246  0.3076  0.0101  0.3289
18400TIP3    H176615   2.018   6.316   5.277 -1.7434 -1.8724 -2.6514
18400TIP3    H276616   2.108   6.194   5.281 -0.0803 -0.6414 -1.1407
18401TIP3   OH276617   5.433   2.048  15.947  0.0147 -0.2370  0.2461
18401TIP3    H176618   5.367   2.117  15.942  0.2586 -0.1009 -1.5094
18401TIP3    H276619   5.468   2.055  16.036  1.7383  3.5336 -0.5386
18402TIP3   OH276620   3.952   6.168   4.372  0.6930  0.3486  0.1330
18402TIP3    H176621   4.001   6.154   4.452  0.3765  2.7178  0.8123
18402TIP3    H276622   3.880   6.104   4.376  1.1855 -0.1460  1.2916
18403TIP3   OH276623   0.504   5.533  15.081 -0.3444 -0.0595  0.1076
18403TIP3    H176624   0.569   5.534  15.011 -0.7622 -0.4280 -0.2887
18403TIP3    H276625   0.486   5.439  15.095 -0.1727  0.0045  0.7862
18404TIP3   OH276626   3.677   4.330  13.612 -0.6576 -0.4388 -0.3571
18404TIP3    H176627   3.645   4.252  13.657 -1.6968  0.6273  0.8510
18404TIP3    H276628   3.649   4.403  13.668 -2.1120  0.9769 -2.7263
18405TIP3   OH276629   5.700   5.654   5.242 -0.3862  0.1347 -0.2732
18405TIP3    H176630   5.637   5.673   5.172 -1.6491 -0.2378  0.7204
18405TIP3    H276631   5.768   5.602   5.200 -0.5593  0.8113 -1.4486
18406TIP3   OH276632   3.968   1.335  12.851 -0.5391 -0.5809 -0.2414
18406TIP3    H176633   3.959   1.350  12.757 -0.8684 -2.8258 -0.6118
18406TIP3    H276634   3.951   1.242  12.863 -0.7308 -0.3129  2.0935
18407TIP3   OH276635   5.530   1.889  13.396 -0.3513  0.1233 -0.1085
18407TIP3    H176636   5.448   1.840  13.403 -0.9046  0.9087 -0.8945
18407TIP3    H276637   5.521   1.960  13.460 -0.2668  0.1861 -0.1669
18408TIP3   OH276638   4.120   2.086  15.212  0.4498 -0.3146  0.1133
18408TIP3    H176639   4.071   2.067  15.133  2.2054 -0.4516 -0.9945
18408TIP3    H276640   4.209   2.058  15.193  1.3267  1.3300  1.4725
18409TIP3   OH276641   5.144   4.398  16.661  0.1987  0.0546 -0.0106
18409TIP3    H176642   5.210   4.456  16.623 -0.9158  1.4842  0.1493
18409TIP3    H276643   5.070   4.405  16.601 -0.3499 -0.3305  0.6154
18410TIP3   OH276644   0.785   5.650   4.862 -0.0376  0.3134 -0.0013
18410TIP3    H176645   0.723   5.580   4.842  0.0037  0.0738  0.6669
18410TIP3    H276646   0.759   5.723   4.807  1.6918 -1.1308 -2.9772
18411TIP3   OH276647   1.848   4.136  12.375 -0.3673 -0.2109  0.2086
18411TIP3    H176648   1.838   4.070  12.307  0.1463  0.7401 -0.8255
18411TIP3    H276649   1.760   4.174  12.384  0.1358  1.8027 -2.2302
18412TIP3   OH276650   1.178   0.431  14.759  0.3581 -0.0711 -0.2351
18412TIP3    H176651   1.145   0.428  14.849 -0.5032 -0.0510 -0.5364
18412TIP3    H276652   1.259   0.382  14.761  2.8172  3.5942  1.5445
18413TIP3   OH276653   1.996   5.788   6.012  0.1854  0.2239 -0.1453
18413TIP3    H176654   2.084   5.827   6.012  0.1784  0.2371 -0.7171
18413TIP3    H276655   1.950   5.832   5.941 -0.5940  0.8904  0.7493
18414TIP3   OH276656   6.062   3.836  11.047 -0.0597 -0.3811 -0.2487
18414TIP3    H176657   6.016   3.761  11.011  0.5224 -0.3304 -1.1340
18414TIP3    H276658   6.125   3.860  10.980  1.7166 -0.8476  1.1595
18415TIP3   OH276659   1.228   5.747   3.718 -0.6792 -0.6125  0.3381
18415TIP3    H176660   1.138   5.753   3.751 -0.2854  0.5317  1.2895
18415TIP3    H276661   1.221   5.697   3.637 -2.3412  0.3880 -0.1911
18416TIP3   OH276662   5.684   0.190  11.110  0.4493 -0.1882 -0.9123
18416TIP3    H176663   5.611   0.183  11.048  1.3164 -0.5272 -1.9332
18416TIP3    H276664   5.645   0.174  11.195 -0.9949  1.4147 -1.2117
18417TIP3   OH276665   1.716   5.195   4.686  0.4757 -0.4268 -0.1301
18417TIP3    H176666   1.627   5.160   4.690 -0.6431  1.9744 -1.6845
18417TIP3    H276667   1.724   5.250   4.763  0.5625 -0.5073 -0.0811
18418TIP3   OH276668   4.332   2.701   3.415  0.0531 -0.1326  0.1549
18418TIP3    H176669   4.253   2.727   3.463  0.3309  1.9965 -0.4381
18418TIP3    H276670   4.358   2.617   3.454 -2.3315 -0.7679  0.5316
18419TIP3   OH276671   6.686   3.638   3.005 -0.1985 -0.3566 -0.3167
18419TIP3    H176672   6.744   3.570   3.039 -1.6349  0.1012  3.5953
18419TIP3    H276673   6.729   3.720   3.028  0.8008  0.1741 -3.6659
18420TIP3   OH276674   0.684   5.301   5.191 -0.0920 -0.3494 -0.1670
18420TIP3    H176675   0.753   5.346   5.143 -0.4124 -0.9806 -1.2329
18420TIP3    H276676   0.685   5.343   5.278  2.7894 -1.4802  0.4858
18421TIP3   OH276677   0.950   3.257   5.704  0.4007  0.6836  0.1865
18421TIP3    H176678   0.966   3.255   5.798  1.7017  0.3008 -0.0331
18421TIP3    H276679   1.025   3.303   5.667  0.2978  0.1425 -0.7413
18422TIP3   OH276680   1.135   0.476   1.205  0.2211  0.4989  0.4012
18422TIP3    H176681   1.170   0.494   1.118 -2.0128 -2.5453 -1.3429
18422TIP3    H276682   1.133   0.561   1.248  2.7259  1.9160 -1.9708
18423TIP3   OH276683   3.405   5.637  11.695  0.2236  0.0144 -0.0847
18423TIP3    H176684   3.433   5.608  11.608 -1.3918 -2.2823  0.0557
18423TIP3    H276685   3.332   5.697  11.678  0.0239 -0.2921 -0.3295
18424TIP3   OH276686   3.734   4.909   2.313  0.5407  0.0803 -0.0212
18424TIP3    H176687   3.657   4.907   2.371 -0.1291 -0.8122 -0.8979
18424TIP3    H276688   3.792   4.841   2.348 -0.1146 -0.8524 -0.6981
18425TIP3   OH276689   1.651   6.648   0.377 -0.0384 -0.5083  0.7258
18425TIP3    H176690   1.637   6.574   0.317  0.0435  1.4469 -1.9045
18425TIP3    H276691   1.724   6.620   0.432  1.1640 -1.7470 -1.3638
18426TIP3   OH276692   5.405   5.581  11.340  0.4233 -0.9600 -0.4086
18426TIP3    H176693   5.409   5.496  11.295 -1.3219 -1.2031 -0.1807
18426TIP3    H276694   5.330   5.573  11.399  0.9385  0.3569  0.4554
18427TIP3   OH276695   0.692   6.494   0.395 -0.1730 -0.0090  0.0380
18427TIP3    H176696   0.652   6.550   0.329 -0.1207  0.8683  0.7422
18427TIP3    H276697   0.643   6.512   0.475  0.1662 -0.6082  0.3874
18428TIP3   OH276698   3.565   5.728  15.523 -0.0334  0.6013 -0.3641
18428TIP3    H176699   3.484   5.681  15.542  0.1811  0.6013  0.5932
18428TIP3    H276700   3.553   5.761  15.434 -1.2859  1.0038 -0.0710
18429TIP3   OH276701   4.806   3.552   4.615 -0.2038  0.3686  0.3814
18429TIP3    H176702   4.886   3.520   4.573 -0.5891  1.3400 -1.1244
18429TIP3    H276703   4.742   3.561   4.544 -1.1848  1.0972  1.3161
18430TIP3   OH276704   1.524   5.834  11.951  0.3694  0.2867  0.3098
18430TIP3    H176705   1.493   5.746  11.932  1.5134  0.1102 -0.9543
18430TIP3    H276706   1.450   5.891  11.930  0.8623 -0.0860 -3.0190
18431TIP3   OH276707   6.377   2.554   0.825  0.4887 -0.0410  0.0961
18431TIP3    H176708   6.293   2.590   0.855 -0.8107 -0.7133 -2.4474
18431TIP3    H276709   6.363   2.459   0.823  0.1365 -0.0445 -3.1607
18432TIP3   OH276710   1.045   3.816   1.725 -0.1429  0.0477 -0.0525
18432TIP3    H176711   1.033   3.872   1.801 -0.7021 -1.1920  0.8237
18432TIP3    H276712   1.136   3.826   1.701  0.1002  0.3148  0.9290
18433TIP3   OH276713   4.186   6.372  14.967  0.1920 -0.0007 -0.0286
18433TIP3    H176714   4.271   6.406  14.997  0.1950  0.5963 -0.6948
18433TIP3    H276715   4.175   6.408  14.879 -0.4417 -0.6338 -0.2214
18434TIP3   OH276716   2.472   1.996   2.182  0.0131  0.6319  0.3810
18434TIP3    H176717   2.536   1.976   2.251 -0.2160 -3.1124 -0.2956
18434TIP3    H276718   2.387   1.993   2.226 -0.1692 -2.2177 -0.0104
18435TIP3   OH276719   6.697   6.023  11.550  0.3456  0.0585  0.4301
18435TIP3    H176720   6.657   6.072  11.622 -0.0182 -0.6596  0.7206
18435TIP3    H276721   6.653   6.056  11.471  0.6137  0.7103  0.5431
18436TIP3   OH276722   2.072   3.681  12.989 -0.0363  0.1203 -0.1036
18436TIP3    H176723   1.984   3.715  12.974  0.3006  1.4020  0.6197
18436TIP3    H276724   2.129   3.737  12.936  0.4573  0.1113  0.4063
18437TIP3   OH276725   6.002   4.334  14.956  0.3315 -0.0676  0.0058
18437TIP3    H176726   6.092   4.351  14.982 -0.0005  0.2181  0.9803
18437TIP3    H276727   6.004   4.244  14.924  1.1534  0.2515 -0.8977
18438TIP3   OH276728   3.647   2.629   2.469 -0.1241 -0.1797  0.0386
18438TIP3    H176729   3.699   2.709   2.484 -0.6205  0.2976 -0.7040
18438TIP3    H276730   3.710   2.558   2.479  0.7577  0.3923 -1.0585
18439TIP3   OH276731   0.712   2.370  15.723  0.6795  0.0510  0.0045
18439TIP3    H176732   0.801   2.359  15.757  1.7684  1.1972 -2.2666
18439TIP3    H276733   0.687   2.458  15.751  0.2357 -0.2663  0.6308
18440TIP3   OH276734   2.653   3.698  15.453 -0.0607  0.1188  0.3442
18440TIP3    H176735   2.659   3.661  15.541  0.4211  0.9074  0.6517
18440TIP3    H276736   2.572   3.750  15.454 -0.8638 -1.0748 -0.1603
18441TIP3   OH276737   2.147   6.156   0.867 -0.1502  0.3151 -0.1027
18441TIP3    H176738   2.067   6.126   0.824  0.3008  1.7680 -2.0860
18441TIP3    H276739   2.218   6.118   0.815  0.4246  0.8439  0.2803
18442TIP3   OH276740   2.330   1.528   1.864  0.2807  0.0528  0.1814
18442TIP3    H176741   2.371   1.598   1.915  1.2287  0.7428 -1.4261
18442TIP3    H276742   2.374   1.532   1.779 -2.4695  0.2065 -1.3665
18443TIP3   OH276743   4.003   3.113   0.294 -0.4101 -0.0546 -0.2509
18443TIP3    H176744   3.998   3.105   0.389  2.4414 -1.4696 -0.0887
18443TIP3    H276745   3.935   3.055   0.261 -0.0368 -1.2730  0.9890
18444TIP3   OH276746   0.019   5.098   0.513 -0.5480  0.2304 -0.3965
18444TIP3    H176747  -0.036   5.060   0.582  0.2411 -1.0672 -0.4500
18444TIP3    H276748   0.090   5.142   0.561 -0.6424  0.3473 -0.3629
18445TIP3   OH276749   1.071   0.370   2.425  0.5508 -0.2717 -0.0802
18445TIP3    H176750   0.997   0.313   2.446 -0.8331  1.3340 -0.4451
18445TIP3    H276751   1.140   0.343   2.487 -0.7408 -0.9626  1.1139
18446TIP3   OH276752   4.490   0.573  16.942  0.1146 -0.3086  0.7496
18446TIP3    H176753   4.515   0.481  16.938  0.4632 -0.1692 -1.5753
18446TIP3    H276754   4.543   0.609  17.013  1.2769 -1.5399  0.5461
18447TIP3   OH276755   3.621   4.928  17.121 -0.3275 -0.2668 -0.4179
18447TIP3    H176756   3.588   5.017  17.136 -2.4961 -1.0391 -0.1920
18447TIP3    H276757   3.669   4.907  17.202 -0.2972  0.4771 -0.2321
18448TIP3   OH276758   0.040   4.673   1.690 -0.4870  0.0167  0.3046
18448TIP3    H176759   0.027   4.721   1.771  0.3764  0.8564 -0.0321
18448TIP3    H276760   0.109   4.721   1.644 -0.1760 -1.0777 -0.4228
18449TIP3   OH276761   1.994   3.727   0.973 -0.6035  0.3884  0.0253
18449TIP3    H176762   1.967   3.818   0.985 -0.0236  0.4546  0.8870
18449TIP3    H276763   1.939   3.695   0.901 -1.8215  0.9895  0.6611
18450TIP3   OH276764   3.339   1.272  14.605  0.1298 -0.0710 -0.0947
18450TIP3    H176765   3.401   1.209  14.568 -0.6039 -1.1203  0.4390
18450TIP3    H276766   3.356   1.353  14.556  1.1082 -0.6628 -0.7682
18451TIP3   OH276767   0.351   0.699   1.916 -0.5223  0.2041 -0.1670
18451TIP3    H176768   0.328   0.769   1.854 -2.2626 -0.3061 -0.1523
18451TIP3    H276769   0.364   0.745   1.999 -1.3816  0.5772 -0.2183
18452TIP3   OH276770   0.057   0.892  11.412 -0.1813 -0.0481 -0.1533
18452TIP3    H176771   0.034   0.982  11.389 -1.7065 -0.1954  0.6210
18452TIP3    H276772   0.103   0.858  11.336  0.0443  1.2543 -0.6210
18453TIP3   OH276773   1.762   3.178  13.567 -0.3625  0.4085  0.0994
18453TIP3    H176774   1.716   3.262  13.564  0.3869  0.8085 -0.4944
18453TIP3    H276775   1.741   3.136  13.483 -0.2816  0.2397  0.1626
18454TIP3   OH276776   6.140   4.699   2.357  0.1824 -0.1839  0.6541
18454TIP3    H176777   6.190   4.779   2.341 -0.4542  0.2540  0.8403
18454TIP3    H276778   6.112   4.706   2.448 -1.1133  0.0892  0.2547
18455TIP3   OH276779   2.261   1.809  15.396 -0.2264  0.7411 -0.4490
18455TIP3    H176780   2.171   1.780  15.383 -1.1099  1.5314  2.9990
18455TIP3    H276781   2.260   1.901  15.371 -0.7149  1.0417  0.6082
18456TIP3   OH276782   0.584   2.260  13.500  0.1226 -0.1478 -0.0188
18456TIP3    H176783   0.566   2.208  13.422 -0.9718 -0.9035  0.7097
18456TIP3    H276784   0.672   2.233  13.527 -0.2050 -1.2293  0.0229
18457TIP3   OH276785   4.798   4.275   1.154 -0.0373  0.5742  0.4537
18457TIP3    H176786   4.711   4.247   1.123  0.7133 -0.7249 -0.5899
18457TIP3    H276787   4.780   4.348   1.213 -1.8320  0.4326  0.1408
18458TIP3   OH276788   6.103   2.751  15.814 -0.1256  0.7044  0.1611
18458TIP3    H176789   6.165   2.808  15.859  2.5576 -1.6695 -0.2865
18458TIP3    H276790   6.065   2.697  15.884  0.8631 -0.1060  0.0870
18459TIP3   OH276791   2.900   4.349   2.472 -0.6287  0.0807  0.4660
18459TIP3    H176792   2.861   4.280   2.418 -0.6329 -0.6720  1.4125
18459TIP3    H276793   2.992   4.326   2.478 -0.1586  1.3514 -0.9840
18460TIP3   OH276794   4.255   5.486   5.703 -0.2917 -0.1343  0.5716
18460TIP3    H176795   4.217   5.416   5.756  0.5416  0.5626  2.1381
18460TIP3    H276796   4.257   5.450   5.614 -1.6461 -1.3628  0.9942
18461TIP3   OH276797   0.132   1.549  11.396  0.5172 -0.1887  0.8329
18461TIP3    H176798   0.088   1.633  11.382  0.2904 -0.1857  1.5276
18461TIP3    H276799   0.224   1.566  11.374  0.8375  0.7423  2.7089
18462TIP3   OH276800   5.355   2.835   4.313  0.3574 -0.0345  0.2676
18462TIP3    H176801   5.421   2.901   4.334  0.0391  0.8595 -1.2900
18462TIP3    H276802   5.400   2.774   4.255  0.1165 -0.0411  0.0862
18463TIP3   OH276803   3.521   2.384  10.900 -0.0111 -0.2848 -0.1357
18463TIP3    H176804   3.606   2.357  10.935 -0.3391 -0.6442  0.3942
18463TIP3    H276805   3.506   2.471  10.937 -0.5118 -0.8027  0.9136
18464TIP3   OH276806   6.580   6.298  15.509 -0.0190  0.0247 -0.4982
18464TIP3    H176807   6.530   6.221  15.535 -0.4101  0.4547  0.0507
18464TIP3    H276808   6.671   6.274  15.524 -0.1479 -0.2806 -0.2000
18465TIP3   OH276809   3.619   5.333  12.322  0.0874 -0.4143 -0.4164
18465TIP3    H176810   3.572   5.409  12.286 -0.5008 -0.5897 -0.0404
18465TIP3    H276811   3.582   5.258  12.277 -0.2347 -0.5827  0.1174
18466TIP3   OH276812   5.410   0.408   0.437 -0.7498  0.1864  0.1404
18466TIP3    H176813   5.484   0.464   0.416  1.7023 -2.8122  0.0339
18466TIP3    H276814   5.385   0.369   0.354 -2.2299  0.8649  0.2435
18467TIP3   OH276815   2.660   6.194   1.684 -0.6689 -0.3768 -0.1829
18467TIP3    H176816   2.619   6.113   1.714 -1.3970  0.1917  0.3994
18467TIP3    H276817   2.751   6.170   1.668 -0.8134 -1.2458  0.2315
18468TIP3   OH276818   1.391   1.521  13.760  0.3222 -0.1231  0.2375
18468TIP3    H176819   1.465   1.464  13.781  2.4228  2.6332  0.9620
18468TIP3    H276820   1.414   1.561  13.676 -1.3841 -0.7303 -0.5608
18469TIP3   OH276821   1.653   4.113   2.419  0.1074 -0.6041 -0.2748
18469TIP3    H176822   1.564   4.077   2.425 -0.0302 -0.0814  1.3684
18469TIP3    H276823   1.701   4.069   2.488  1.1136 -0.7976 -1.0845
18470TIP3   OH276824   2.774   3.844  12.167 -0.5655 -0.5130 -0.4876
18470TIP3    H176825   2.701   3.905  12.159 -0.1144  0.0432 -0.4258
18470TIP3    H276826   2.778   3.800  12.082 -2.5020 -2.3363  0.2728
18471TIP3   OH276827   4.736   2.115  17.231 -0.8588  0.5914 -0.4566
18471TIP3    H176828   4.726   2.127  17.137 -2.6451  1.0743 -0.2596
18471TIP3    H276829   4.751   2.021  17.242 -1.8103  0.3384 -1.1673
18472TIP3   OH276830   3.165   0.263   0.645 -0.3513 -0.3377  0.1631
18472TIP3    H176831   3.223   0.213   0.589  0.6841  0.0741  0.8289
18472TIP3    H276832   3.099   0.299   0.586  2.3192  2.5309 -1.4053
18473TIP3   OH276833   1.845   6.748  15.498  0.0595  0.2560  0.2224
18473TIP3    H176834   1.901   6.819  15.529  0.6853 -0.4630  0.8031
18473TIP3    H276835   1.907   6.677  15.478 -0.4364  0.2635 -1.4825
18474TIP3   OH276836   0.256   0.269  13.088  0.0511  0.4718  0.1774
18474TIP3    H176837   0.285   0.231  13.171 -0.6302  0.9377  0.6290
18474TIP3    H276838   0.331   0.255  13.029  1.2877  1.7865  1.3547
18475TIP3   OH276839   0.780   2.253  12.305  0.1398 -0.3910 -0.6612
18475TIP3    H176840   0.762   2.325  12.365  2.9689 -0.5471  0.5541
18475TIP3    H276841   0.755   2.174  12.354 -0.0824 -0.3858 -0.7660
18476TIP3   OH276842   6.547   6.635  16.764  0.6762 -0.4343  0.2640
18476TIP3    H176843   6.587   6.643  16.677 -0.9623 -0.6196 -0.5453
18476TIP3    H276844   6.495   6.555  16.759  0.7137 -0.5524  1.4915
18477TIP3   OH276845   0.229   3.367  12.571  0.9313  0.1932  0.1357
18477TIP3    H176846   0.190   3.324  12.647  0.3679  1.0197  0.3265
18477TIP3    H276847   0.204   3.311  12.497 -1.6144  1.2549  0.0955
18478TIP3   OH276848   6.377   6.192   5.294 -0.2443 -0.7144 -0.1704
18478TIP3    H176849   6.297   6.178   5.244 -0.3526  0.8743 -0.4728
18478TIP3    H276850   6.357   6.264   5.353  0.6223 -1.0297  0.5451
18479TIP3   OH276851   0.445   2.906   4.128 -0.1930  0.1273  0.0855
18479TIP3    H176852   0.496   2.825   4.134  0.4117  0.4046 -1.0391
18479TIP3    H276853   0.366   2.881   4.079 -0.2227  0.1210  0.1367
18480TIP3   OH276854   6.634   5.878  13.037 -0.4306  0.5900  0.2183
18480TIP3    H176855   6.552   5.834  13.061 -1.0370  1.0303 -0.9577
18480TIP3    H276856   6.674   5.819  12.973 -0.5838  1.0886 -0.3466
18481TIP3   OH276857   1.153   2.240  16.689  0.4097  0.0996 -0.1346
18481TIP3    H176858   1.143   2.145  16.697 -0.0709  0.0558 -1.1934
18481TIP3    H276859   1.075   2.276  16.732 -0.7122 -0.0635 -1.9652
18482TIP3   OH276860   6.056   2.921  11.187  0.0084 -0.6181  0.1020
18482TIP3    H176861   6.039   2.832  11.218  0.9979 -0.2591  1.8160
18482TIP3    H276862   6.115   2.958  11.252 -0.1398  1.2057 -0.7359
18483TIP3   OH276863   4.739   0.224  16.341 -0.1770 -1.0412 -0.7644
18483TIP3    H176864   4.783   0.212  16.257  1.3559 -2.4539  0.1630
18483TIP3    H276865   4.665   0.163  16.338  1.1718 -2.7834 -0.3019
18484TIP3   OH276866   0.468   3.653   5.148 -0.3553  0.7977  0.2915
18484TIP3    H176867   0.532   3.708   5.193 -1.0535  0.8196  1.3144
18484TIP3    H276868   0.517   3.609   5.079  0.8386  0.5635  1.2570
18485TIP3   OH276869   5.174   0.820   4.448 -0.1694  0.4137 -0.2894
18485TIP3    H176870   5.138   0.775   4.372  0.3029 -0.6154  0.0845
18485TIP3    H276871   5.155   0.913   4.432 -0.8982  0.1173 -1.2046
18486TIP3   OH276872   2.800   0.171  16.416 -0.0448  0.3232  0.4910
18486TIP3    H176873   2.721   0.132  16.377  0.0342  0.6177  0.0357
18486TIP3    H276874   2.768   0.249  16.461  0.0468  0.6867 -0.0656
18487TIP3   OH276875   2.674   3.437  15.350 -0.4850 -0.1516 -0.3989
18487TIP3    H176876   2.704   3.504  15.411 -0.5260  1.1606 -1.7638
18487TIP3    H276877   2.648   3.364  15.405  0.4735  0.5858  1.0881
18488TIP3   OH276878   1.563   0.023   5.312  0.7855 -0.9033  0.2296
18488TIP3    H176879   1.567  -0.057   5.260 -1.8429 -0.0974 -1.4154
18488TIP3    H276880   1.488   0.009   5.371  0.7034  0.0769  0.3701
18489TIP3   OH276881   4.945   3.170  14.664  0.2301 -0.2743 -0.0041
18489TIP3    H176882   4.900   3.196  14.584 -0.2413  1.1870  0.7128
18489TIP3    H276883   4.900   3.217  14.734  0.0751 -2.1674  1.2467
18490TIP3   OH276884   5.793   6.345  13.366 -0.9398  0.4421 -0.0604
18490TIP3    H176885   5.789   6.353  13.271 -2.1501  0.9118  0.0181
18490TIP3    H276886   5.789   6.251  13.382  1.7066  0.1652 -0.5331
18491TIP3   OH276887   3.239   6.599   3.472 -0.2061 -0.2202  0.3532
18491TIP3    H176888   3.226   6.579   3.380  1.9691  0.7547 -0.2363
18491TIP3    H276889   3.279   6.520   3.509 -1.0833 -0.6121  0.4822
18492TIP3   OH276890   0.078   5.707  14.485  0.6515 -0.5187  0.1779
18492TIP3    H176891   0.147   5.772  14.471  0.8777 -0.8453 -0.3091
18492TIP3    H276892  -0.003   5.757  14.490  0.7812 -0.2221 -0.5517
18493TIP3   OH276893   0.277   3.391   3.798  0.1693  0.8293  0.1847
18493TIP3    H176894   0.301   3.332   3.869  3.0655  1.7164  0.0487
18493TIP3    H276895   0.251   3.332   3.726  0.3488 -0.1765  0.9241
18494TIP3   OH276896   2.110   4.970  14.971 -0.5041  0.3737  0.9053
18494TIP3    H176897   2.127   5.059  15.001 -2.2294  1.6016 -1.4477
18494TIP3    H276898   2.099   4.978  14.877 -0.5696 -2.3906  0.5955
18495TIP3   OH276899   5.278   1.908  14.421 -0.2285  0.2249 -0.2178
18495TIP3    H176900   5.251   1.954  14.341 -2.4606  0.4813  0.6129
18495TIP3    H276901   5.240   1.821  14.412  0.3027 -0.0517  0.1699
18496TIP3   OH276902   3.178   4.283  15.014  0.5099  0.0701 -0.3762
18496TIP3    H176903   3.154   4.201  14.970 -0.0297 -0.3158  0.5876
18496TIP3    H276904   3.238   4.256  15.083 -0.2416  0.3714  0.4209
18497TIP3   OH276905   5.459   2.115  14.881  0.1558  0.2241 -0.8691
18497TIP3    H176906   5.414   2.108  14.796  2.2785 -0.0313 -2.0392
18497TIP3    H276907   5.467   2.209  14.895 -2.4906  0.3542  0.4120
18498TIP3   OH276908   4.288   2.954   1.314  0.6459 -0.1326  0.2355
18498TIP3    H176909   4.262   2.962   1.405 -1.1247  1.7643 -0.3462
18498TIP3    H276910   4.324   2.866   1.306  0.7258 -0.3741  2.7107
18499TIP3   OH276911   0.913   1.852   1.650  0.2834  0.3987 -0.0050
18499TIP3    H176912   0.965   1.785   1.606 -0.2762  0.8440 -1.3781
18499TIP3    H276913   0.926   1.835   1.744  2.0981 -0.1067 -0.3217
18500TIP3   OH276914   4.596   6.603  14.375 -1.0355  0.3863  0.5901
18500TIP3    H176915   4.639   6.684  14.400 -0.4998  0.2351  0.1730
18500TIP3    H276916   4.616   6.592  14.282 -0.9819 -0.2904  0.6718
18501TIP3   OH276917   6.206   5.731   1.980 -0.0148  0.1266  0.2931
18501TIP3    H176918   6.256   5.782   2.044  0.1482  0.1081  0.1801
18501TIP3    H276919   6.268   5.664   1.950 -0.1501  0.0185  0.2559
18502TIP3   OH276920   5.696   4.163   0.621  0.1839 -0.4156  0.2407
18502TIP3    H176921   5.707   4.255   0.645 -2.1318 -0.1708  0.6380
18502TIP3    H276922   5.650   4.165   0.538  0.3057 -1.2201  0.1410
18503TIP3   OH276923   4.661   2.479  15.143  0.3596 -0.6454 -0.2069
18503TIP3    H176924   4.701   2.553  15.096 -1.0579 -1.1031 -2.2880
18503TIP3    H276925   4.595   2.445  15.082 -2.3378 -0.7155  2.5443
18504TIP3   OH276926   1.007   4.299   5.753 -0.0828  0.1789  0.1248
18504TIP3    H176927   0.916   4.319   5.776 -0.8512 -2.1859 -0.5553
18504TIP3    H276928   1.058   4.328   5.829 -1.4412  1.0979  0.7309
18505TIP3   OH276929   3.042   6.379  13.023 -0.0026  0.6543 -0.2874
18505TIP3    H176930   3.084   6.369  13.108  0.4188 -1.4854 -0.6993
18505TIP3    H276931   2.948   6.374  13.042  0.0868  0.2700  0.0722
18506TIP3   OH276932   6.471   5.423  13.453 -0.1696 -0.4911 -0.0522
18506TIP3    H176933   6.527   5.474  13.396  0.7865  0.6776  1.8646
18506TIP3    H276934   6.522   5.345  13.473 -1.3436 -1.9996 -2.3838
18507TIP3   OH276935   2.157   3.998  11.338 -0.5155 -0.1314 -0.2065
18507TIP3    H176936   2.156   3.981  11.432 -0.8650  1.3143  0.0685
18507TIP3    H276937   2.073   4.040  11.320  0.1555  0.9796 -0.8798
18508TIP3   OH276938   6.054   1.005   5.283 -0.4031  0.0719  0.3851
18508TIP3    H176939   5.962   1.015   5.260 -0.5117  1.8858  1.4763
18508TIP3    H276940   6.089   1.094   5.284  1.4152 -0.5893 -0.1579
18509TIP3   OH276941   3.334   5.078   3.806  0.5479  0.3734 -0.3943
18509TIP3    H176942   3.329   5.159   3.857 -2.6795  0.2211 -0.2108
18509TIP3    H276943   3.363   5.012   3.869 -0.3809  0.7700  0.4939
18510TIP3   OH276944   0.004   3.847   4.414 -1.0439 -1.3559  1.0431
18510TIP3    H176945  -0.058   3.919   4.429 -1.7674 -1.6667 -0.2238
18510TIP3    H276946  -0.051   3.769   4.413 -0.7473 -1.5776 -0.7117
18511TIP3   OH276947   4.841   0.203   4.210 -0.1120  0.0365 -0.4017
18511TIP3    H176948   4.751   0.237   4.212  0.3558  1.3139  0.6951
18511TIP3    H276949   4.835   0.116   4.249 -0.5650  1.0127  1.8387
18512TIP3   OH276950   4.458   1.227  15.816 -0.0013  0.5195  0.1563
18512TIP3    H176951   4.375   1.188  15.842  0.8212 -0.7090  1.0472
18512TIP3    H276952   4.503   1.244  15.899  1.1123  0.0806 -0.3455
18513TIP3   OH276953   4.707   4.819   0.183  0.3563 -0.2205 -0.4796
18513TIP3    H176954   4.791   4.773   0.179  1.2386  1.1411  1.1820
18513TIP3    H276955   4.693   4.834   0.276 -0.9018  1.0879 -0.8508
18514TIP3   OH276956   5.531   2.352   3.537  0.6448 -0.1953 -0.0236
18514TIP3    H176957   5.588   2.357   3.614  0.1266 -1.6559  0.4880
18514TIP3    H276958   5.577   2.293   3.477 -0.0036 -0.8640  0.1216
18515TIP3   OH276959   2.941   5.422   0.410 -0.2245  0.1958 -0.1090
18515TIP3    H176960   2.996   5.499   0.394 -0.0289 -0.5433 -4.2944
18515TIP3    H276961   2.998   5.361   0.456  0.3913  1.6450  1.1212
18516TIP3   OH276962   3.300   3.670   0.735  0.2486 -0.8486  0.1766
18516TIP3    H176963   3.246   3.734   0.689  1.3996 -0.7470 -1.1115
18516TIP3    H276964   3.315   3.708   0.821 -0.3763 -0.1158 -0.0322
18517TIP3   OH276965   1.277   0.933   4.448  0.6129 -0.1485 -0.3401
18517TIP3    H176966   1.238   1.015   4.478 -0.6720 -0.1488 -1.8572
18517TIP3    H276967   1.351   0.960   4.394  0.7666 -0.0204 -0.0652
18518TIP3   OH276968   2.244   5.593   5.104 -0.2977 -0.1037 -0.2231
18518TIP3    H176969   2.235   5.557   5.017 -0.6058  1.5571 -0.9196
18518TIP3    H276970   2.301   5.531   5.150 -1.5622 -1.9332 -1.0125
18519TIP3   OH276971   5.318   3.978   5.696  0.0048 -0.0836 -0.0386
18519TIP3    H176972   5.375   4.033   5.642  2.0942 -1.4530  0.6793
18519TIP3    H276973   5.233   3.983   5.652  0.4942  2.3980 -0.8860
18520TIP3   OH276974   3.556   3.805   4.978 -0.6914 -0.2796  0.6102
18520TIP3    H176975   3.626   3.862   4.948 -0.5468 -0.8266 -0.1304
18520TIP3    H276976   3.479   3.833   4.929 -1.0055  0.3207  1.4233
18521TIP3   OH276977   6.420   2.050   3.534 -0.1091  0.2218  0.3516
18521TIP3    H176978   6.370   2.004   3.466 -0.6149  1.2741 -0.0218
18521TIP3    H276979   6.461   2.124   3.487 -0.8414  1.2359  1.2618
18522TIP3   OH276980   0.918   0.961   4.577  0.0903 -0.1421  0.1726
18522TIP3    H176981   0.913   0.875   4.617  1.4820 -0.7754 -0.9336
18522TIP3    H276982   0.842   1.008   4.612  0.3359 -1.1589  2.2639
18523TIP3   OH276983   2.278   4.035  14.145  0.0275 -0.0462  0.2156
18523TIP3    H176984   2.304   3.943  14.153 -0.6281 -0.2892 -0.3816
18523TIP3    H276985   2.300   4.058  14.055  0.1150  0.3666  0.3425
18524TIP3   OH276986   5.757   6.574  16.327 -0.1336 -0.6172  0.1137
18524TIP3    H176987   5.769   6.593  16.420  2.1355 -0.7386 -0.1011
18524TIP3    H276988   5.747   6.478  16.323  0.2209 -0.6590  0.2015
18525TIP3   OH276989   3.181   6.480   2.425 -0.2654 -0.2170 -0.1578
18525TIP3    H176990   3.216   6.394   2.403 -0.6289  0.0622 -1.9825
18525TIP3    H276991   3.112   6.495   2.361 -1.0095  0.9489  0.8696
18526TIP3   OH276992   5.028   2.602   3.092  0.3414  0.0852  0.2430
18526TIP3    H176993   5.114   2.638   3.116  1.3958 -1.4576 -0.9771
18526TIP3    H276994   4.965   2.655   3.140  2.0577  0.2071  2.5013
18527TIP3   OH276995   0.678   6.634   5.450 -0.2765  0.1361  0.2150
18527TIP3    H176996   0.655   6.726   5.468 -0.8526  0.8214 -3.2113
18527TIP3    H276997   0.691   6.595   5.536  1.8059  3.8637  1.8578
18528TIP3   OH276998   5.692   3.643  17.105 -0.4174 -0.3211 -0.2642
18528TIP3    H176999   5.685   3.698  17.183 -1.3803  0.0337 -0.5887
18528TIP3    H277000   5.642   3.689  17.038  2.3710  0.5958 -1.8319
18529TIP3   OH277001   1.221   5.980   2.192  0.1183  0.2945 -0.2272
18529TIP3    H177002   1.146   5.974   2.250  0.6538 -0.0731  0.4505
18529TIP3    H277003   1.228   5.893   2.153  1.7954 -0.5934  1.8109
18530TIP3   OH277004   2.080   5.657   4.602 -0.2418 -0.6151  0.0372
18530TIP3    H177005   2.031   5.604   4.539 -1.2018 -1.0794  1.1215
18530TIP3    H277006   2.043   5.745   4.594  0.1238 -0.5045 -0.5157
18531TIP3   OH277007   0.650   1.917   3.464  0.3384 -0.0275 -0.3201
18531TIP3    H177008   0.678   1.961   3.545  0.1946  1.2463 -0.9423
18531TIP3    H277009   0.555   1.921   3.466  0.3260 -0.2233 -0.4433
18532TIP3   OH277010   2.625   2.859   0.346 -0.1510  0.3514  0.5078
18532TIP3    H177011   2.548   2.843   0.401 -0.5537  2.0114  0.4851
18532TIP3    H277012   2.698   2.864   0.407 -0.4371  1.1466  0.7951
18533TIP3   OH277013   1.691   3.879  14.363  0.0270  0.4296  0.1122
18533TIP3    H177014   1.632   3.824  14.414  0.3909  0.5880  0.7115
18533TIP3    H277015   1.660   3.968  14.377  0.7113  0.5599  0.8436
18534TIP3   OH277016   2.559   2.388  14.378 -0.0493  0.1299 -0.5843
18534TIP3    H177017   2.488   2.385  14.314 -1.4664 -1.3266  0.9642
18534TIP3    H277018   2.518   2.363  14.461  1.2022  3.9731  1.4658
18535TIP3   OH277019   6.054   4.473   2.198 -0.2519  0.6818  0.0084
18535TIP3    H177020   6.077   4.555   2.242 -3.9624  3.0347 -1.8881
18535TIP3    H277021   5.962   4.459   2.222 -0.5511 -1.3345 -2.0071
18536TIP3   OH277022   4.071   5.561  12.916 -0.2739  0.1593 -0.2498
18536TIP3    H177023   4.003   5.577  12.850  1.1386  0.9031 -1.5692
18536TIP3    H277024   4.080   5.645  12.962 -3.0715 -1.0013  2.7862
18537TIP3   OH277025   2.022   4.426   4.715 -0.2101  0.2212  0.3246
18537TIP3    H177026   2.070   4.504   4.744 -0.8163  0.9471 -0.5586
18537TIP3    H277027   1.954   4.414   4.781  0.5748 -0.2526  1.0737
18538TIP3   OH277028   0.471   6.318  12.629 -0.3848 -0.0996  1.0085
18538TIP3    H177029   0.470   6.311  12.725  0.9962 -0.4458  1.0146
18538TIP3    H277030   0.554   6.361  12.609  0.6742 -2.4861 -0.1424
18539TIP3   OH277031   0.693   5.098   4.311 -0.4024  0.2500 -0.0253
18539TIP3    H177032   0.736   5.180   4.288 -0.0394 -0.0554 -0.4576
18539TIP3    H277033   0.758   5.050   4.361 -0.2633 -0.1817 -0.6127
18540TIP3   OH277034   0.693   0.678   2.609  0.6011  0.2430  0.4930
18540TIP3    H177035   0.761   0.611   2.604  1.5630  1.1140  1.2914
18540TIP3    H277036   0.667   0.694   2.519 -0.0980 -1.6303  0.3369
18541TIP3   OH277037   6.099   6.188  14.775 -0.0090  0.0204  0.5116
18541TIP3    H177038   6.109   6.249  14.848 -1.9681 -0.5393  1.2988
18541TIP3    H277039   6.090   6.103  14.817  3.1381 -1.0068 -0.5743
18542TIP3   OH277040   1.837   0.347   2.092 -1.0545  0.1120  0.0830
18542TIP3    H177041   1.755   0.362   2.139 -0.6257 -0.1718  0.9416
18542TIP3    H277042   1.901   0.404   2.135 -0.9224  0.8478 -1.0121
18543TIP3   OH277043   0.333   6.746  15.127  0.2084  0.0365 -0.1466
18543TIP3    H177044   0.338   6.656  15.096 -0.7247 -0.2932  0.6156
18543TIP3    H277045   0.320   6.798  15.047  0.1671 -0.5663 -0.5389
18544TIP3   OH277046   5.186   0.463  15.226  0.3508  0.8482  0.2426
18544TIP3    H177047   5.163   0.393  15.287  0.7484  0.5255  0.0342
18544TIP3    H277048   5.278   0.481  15.245  0.3955  0.9462 -0.0615
18545TIP3   OH277049   1.743   1.517   2.642  0.4742 -0.0194  0.0319
18545TIP3    H177050   1.831   1.529   2.606  1.3298  3.7851  2.7498
18545TIP3    H277051   1.684   1.538   2.570  1.8831  0.5800 -0.9974
18546TIP3   OH277052   6.420   3.028   5.706 -0.9704  0.0750  0.4403
18546TIP3    H177053   6.379   3.056   5.788 -0.4822  0.2644  0.6234
18546TIP3    H277054   6.510   3.060   5.712 -0.2281 -1.9812  0.8871
18547TIP3   OH277055   0.940   0.590  15.282 -0.1355  0.5232  0.3028
18547TIP3    H177056   0.884   0.592  15.359 -0.3624 -0.7906  0.2010
18547TIP3    H277057   1.011   0.529  15.306  0.8132  1.5376  0.1401
18548TIP3   OH277058   4.262   3.116   5.032 -0.4728  0.5386  0.6491
18548TIP3    H177059   4.295   3.175   4.964 -0.8416 -1.2103 -1.1163
18548TIP3    H277060   4.339   3.069   5.063 -0.6922 -0.7376 -0.6723
18549TIP3   OH277061   1.579   6.382   0.628  0.1133 -0.3454 -0.2290
18549TIP3    H177062   1.657   6.436   0.620 -1.0268  1.4374  0.1221
18549TIP3    H277063   1.526   6.426   0.694 -2.1448 -0.2420 -1.9761
18550TIP3   OH277064   5.582   2.928  11.957 -0.1956 -0.3788  0.2696
18550TIP3    H177065   5.549   2.867  11.891 -0.9997 -0.6028  0.8742
18550TIP3    H277066   5.549   3.014  11.928 -2.5353 -0.7595  1.5859
18551TIP3   OH277067   5.640   3.792  12.450  0.8439  0.0093  0.0364
18551TIP3    H177068   5.557   3.743  12.454 -0.0020  1.2674 -1.1442
18551TIP3    H277069   5.698   3.745  12.509 -0.8651 -0.6507  1.3051
18552TIP3   OH277070   6.261   5.149  12.206  0.1817 -0.0120  0.4061
18552TIP3    H177071   6.260   5.241  12.182 -1.7010 -0.6363 -2.5794
18552TIP3    H277072   6.213   5.144  12.288  0.4943  1.6584  0.7128
18553TIP3   OH277073   3.642   4.471  14.691  0.3307  0.4181 -0.3672
18553TIP3    H177074   3.714   4.408  14.695  2.1742  2.3877 -0.4920
18553TIP3    H277075   3.671   4.536  14.628 -1.0639  1.8820  0.4348
18554TIP3   OH277076   0.326   5.463  16.613 -0.1089 -0.4850  0.0327
18554TIP3    H177077   0.242   5.478  16.656  0.3324  1.4763  0.2896
18554TIP3    H277078   0.391   5.485  16.679  0.6241 -1.2535 -0.4137
18555TIP3   OH277079   5.584   6.230  11.137 -0.0408 -0.0981 -0.4475
18555TIP3    H177080   5.583   6.165  11.207 -0.2465  0.8587  0.4580
18555TIP3    H277081   5.631   6.305  11.173 -0.6280  0.6261 -1.1330
18556TIP3   OH277082   1.547   1.544  16.844 -0.6213  0.5546  0.7385
18556TIP3    H177083   1.572   1.615  16.903 -1.0963  1.9064 -0.6141
18556TIP3    H277084   1.488   1.586  16.781  0.1700 -0.7345 -0.9062
18557TIP3   OH277085   2.063   3.250   0.517  0.7354  0.5643  0.1958
18557TIP3    H177086   2.147   3.291   0.535  1.2408  0.5776 -1.9128
18557TIP3    H277087   2.047   3.269   0.424  0.1289 -2.4172 -0.3965
18558TIP3   OH277088   3.042   2.501   4.212 -0.1175 -0.3402  0.1024
18558TIP3    H177089   3.027   2.410   4.186  0.4103 -0.3717 -0.1114
18558TIP3    H277090   3.131   2.520   4.182  0.4182 -0.2892  1.6688
18559TIP3   OH277091   2.067   1.216  11.532  0.0053  0.1674 -0.4299
18559TIP3    H177092   2.116   1.258  11.603  0.8176 -0.3645 -0.6621
18559TIP3    H277093   2.010   1.285  11.498 -0.3184  0.4648  0.6614
18560TIP3   OH277094   6.642   0.674  12.623  0.1671  0.0607 -0.3229
18560TIP3    H177095   6.643   0.692  12.529 -0.2047 -0.4278 -0.4231
18560TIP3    H277096   6.576   0.605  12.633 -0.1300  0.4408  0.3546
18561TIP3   OH277097   2.421   3.153  14.351  0.1402 -0.2899 -0.2659
18561TIP3    H177098   2.406   3.209  14.427 -0.9739 -0.0065 -0.6744
18561TIP3    H277099   2.407   3.210  14.275 -2.4638 -1.3802 -0.7211
18562TIP3   OH277100   4.261   4.922  12.961 -0.2771  0.1522 -0.4189
18562TIP3    H177101   4.294   4.902  13.048 -1.8594 -0.5855  0.0568
18562TIP3    H277102   4.166   4.913  12.969 -0.3519 -2.3667 -2.7909
18563TIP3   OH277103   1.925   1.671   4.368  0.0717 -0.5236  0.3557
18563TIP3    H177104   1.923   1.722   4.287  0.3858  0.8491  1.1874
18563TIP3    H277105   1.988   1.717   4.424 -0.3841 -1.2606  1.5088
18564TIP3   OH277106   1.155   1.452  13.884  0.5904  0.2130 -0.2356
18564TIP3    H177107   1.239   1.460  13.840  2.4267 -1.7547  2.6038
18564TIP3    H277108   1.122   1.366  13.857  0.0077  0.4887 -0.4293
18565TIP3   OH277109   5.885   5.045   1.141 -0.0088 -0.1366 -0.3949
18565TIP3    H177110   5.842   5.056   1.056 -3.0284  0.8013  1.1242
18565TIP3    H277111   5.846   4.966   1.177  1.6734 -0.8476 -0.0547
18566TIP3   OH277112   1.084   5.951  12.086 -0.0669 -0.1737  0.0316
18566TIP3    H177113   1.020   5.969  12.017  0.5924  1.6104 -0.1876
18566TIP3    H277114   1.095   5.856  12.086 -1.5221 -0.3703 -0.9844
18567TIP3   OH277115   5.379   2.315  11.730  0.0071  0.0534 -0.4379
18567TIP3    H177116   5.398   2.325  11.823 -0.5027  1.9384 -0.5006
18567TIP3    H277117   5.411   2.228  11.708 -1.2059 -1.0599  1.8335
18568TIP3   OH277118   2.765   2.613   4.804 -0.6613  0.4506 -0.1901
18568TIP3    H177119   2.764   2.593   4.710  2.7979 -0.0642 -0.2497
18568TIP3    H277120   2.752   2.528   4.847  3.7141 -0.5903 -0.4095
18569TIP3   OH277121   5.629   3.141  13.727 -0.5284 -0.0412 -0.2105
18569TIP3    H177122   5.634   3.137  13.823  0.6810 -1.8845 -0.3079
18569TIP3    H277123   5.577   3.220  13.710  2.6921  2.8273  1.8498
18570TIP3   OH277124   5.612   4.396   2.557 -0.1332  0.6360  0.0499
18570TIP3    H177125   5.628   4.454   2.632  1.8269  0.3362 -0.0883
18570TIP3    H277126   5.521   4.412   2.534 -0.2324  2.1472  1.3022
18571TIP3   OH277127   2.982   0.127   2.498 -0.0094  0.3422  0.1098
18571TIP3    H177128   2.915   0.097   2.559 -0.5769  1.6858  0.1964
18571TIP3    H277129   2.996   0.219   2.523  0.6232  0.5560 -1.0075
18572TIP3   OH277130   1.088   0.966  16.231 -0.0690 -0.1049  0.1959
18572TIP3    H177131   1.137   1.019  16.293  2.3552  1.6223 -2.8810
18572TIP3    H277132   1.006   1.014  16.217  0.2857  0.6122  0.5267
18573TIP3   OH277133   2.348   3.357  16.427  0.1553 -0.2442  0.2891
18573TIP3    H177134   2.309   3.401  16.503 -0.9243 -0.8626  0.1075
18573TIP3    H277135   2.443   3.370  16.439 -0.0742  1.2099  0.7788
18574TIP3   OH277136   1.194   2.940   3.051  0.0522 -0.6400  0.0881
18574TIP3    H177137   1.151   2.994   3.117  2.1217  3.2542 -1.3888
18574TIP3    H277138   1.133   2.938   2.977 -0.7597 -1.9470  0.7570
18575TIP3   OH277139   6.584   6.394   1.374 -0.2926 -0.1245 -0.7015
18575TIP3    H177140   6.582   6.316   1.429  1.7737  0.7323  0.7150
18575TIP3    H277141   6.662   6.383   1.319 -1.6966 -0.4369 -2.7356
18576TIP3   OH277142   3.708   5.895  16.422  0.4462 -0.1701 -0.1518
18576TIP3    H177143   3.770   5.845  16.475  0.6699 -0.5133 -0.7267
18576TIP3    H277144   3.624   5.852  16.436  0.7307 -1.0544 -1.0551
18577TIP3   OH277145   3.521   2.080   1.216  0.0825 -0.2786  0.1720
18577TIP3    H177146   3.589   2.060   1.280  0.8069  0.1333 -0.4522
18577TIP3    H277147   3.534   2.015   1.146 -1.6404 -1.6803  1.0931
18578TIP3   OH277148   4.315   2.008   5.229  0.1009 -0.2520 -0.5634
18578TIP3    H177149   4.242   1.947   5.238 -0.0099  0.0239  0.5724
18578TIP3    H277150   4.376   1.964   5.169  0.5145 -1.9847  1.0212
18579TIP3   OH277151   0.031   1.723  14.929  0.1056 -0.3298 -0.7621
18579TIP3    H177152  -0.043   1.719  14.869  0.4854 -0.2981 -1.2427
18579TIP3    H277153  -0.002   1.688  15.011 -0.0925 -1.5346 -1.3340
18580TIP3   OH277154   5.349   4.136   4.291  0.1360 -0.0229 -0.5586
18580TIP3    H177155   5.287   4.081   4.243  0.7506 -1.1140 -0.1593
18580TIP3    H277156   5.425   4.079   4.305  0.7130  0.8681  0.0837
18581TIP3   OH277157   0.258   6.224   4.723  0.6354  0.4247 -0.1042
18581TIP3    H177158   0.301   6.162   4.664 -0.1340  0.1098 -0.3435
18581TIP3    H277159   0.224   6.170   4.794 -1.5231  0.2882 -1.1535
18582TIP3   OH277160   2.599   3.426  12.655 -0.1395  0.5384  0.1065
18582TIP3    H177161   2.612   3.443  12.562  1.9379  1.4403  0.5043
18582TIP3    H277162   2.585   3.332  12.661  0.0878  0.4242 -1.0707
18583TIP3   OH277163   3.696   2.661   0.261 -0.1651 -0.6369  0.7622
18583TIP3    H177164   3.771   2.604   0.242 -0.1697 -1.4399  2.8771
18583TIP3    H277165   3.654   2.675   0.176  1.5999 -1.2710 -0.2623
18584TIP3   OH277166   0.572   5.988   1.861 -0.5805 -0.2882  0.4233
18584TIP3    H177167   0.496   6.031   1.899 -1.4247  0.2377 -1.7250
18584TIP3    H277168   0.642   6.053   1.866 -1.3205  0.6632 -0.9912
18585TIP3   OH277169   4.410   3.895  14.676  0.6195 -0.2104 -0.2789
18585TIP3    H177170   4.419   3.927  14.586 -0.0639  0.5454 -0.0976
18585TIP3    H277171   4.325   3.851  14.677  0.4583  0.1000  0.0737
18586TIP3   OH277172   4.417   1.112  11.610 -0.0853  0.0660 -0.2981
18586TIP3    H177173   4.335   1.128  11.655  0.9494  1.9342  1.0557
18586TIP3    H277174   4.457   1.199  11.601  2.0221 -0.8441 -0.3360
18587TIP3   OH277175   2.267   2.891   1.669  0.3190  0.0622 -1.2008
18587TIP3    H177176   2.200   2.822   1.672 -0.4727  0.7883  2.6814
18587TIP3    H277177   2.217   2.973   1.677  1.5037  0.6380  1.5141
18588TIP3   OH277178   6.113   3.216   4.532 -0.1191  0.2940  0.0763
18588TIP3    H177179   6.194   3.232   4.580  1.0769  0.1402 -1.7948
18588TIP3    H277180   6.088   3.127   4.554  0.7729  0.0002 -0.0659
18589TIP3   OH277181   2.690   3.319  14.357 -0.2762 -0.0993  0.1156
18589TIP3    H177182   2.632   3.394  14.369 -0.4126 -0.4304  1.6356
18589TIP3    H277183   2.761   3.333  14.419 -0.4501 -1.3684  0.6200
18590TIP3   OH277184   4.394   2.247  14.319 -0.3866  0.0711 -0.7119
18590TIP3    H177185   4.314   2.297  14.305 -0.2137  0.7515  0.5926
18590TIP3    H277186   4.418   2.214  14.232 -0.9299  1.6024 -1.4636
18591TIP3   OH277187   3.379   6.168   3.848 -0.7590 -0.4588 -0.0078
18591TIP3    H177188   3.386   6.195   3.756 -1.9600 -1.9045 -0.5668
18591TIP3    H277189   3.401   6.075   3.847  0.0805 -0.2991  1.3347
18592TIP3   OH277190   0.490   4.109   1.812 -0.8526 -0.2414 -0.0516
18592TIP3    H177191   0.536   4.061   1.743  0.3940  0.8388 -0.0142
18592TIP3    H277192   0.406   4.063   1.821  0.3559 -2.5516  0.1681
18593TIP3   OH277193   1.474   2.538  11.967 -0.2701 -0.2950 -0.1184
18593TIP3    H177194   1.501   2.450  11.994 -0.6468  0.0470  1.4926
18593TIP3    H277195   1.556   2.583  11.947  0.0149 -0.6377  0.2521
18594TIP3   OH277196   2.220   2.851   1.139  0.0161  0.1706 -0.1420
18594TIP3    H177197   2.299   2.900   1.162  1.1128 -1.2149 -0.7768
18594TIP3    H277198   2.157   2.874   1.207  1.1312  0.9094  0.6855
18595TIP3   OH277199   6.191   3.270   2.683 -0.2132 -0.3423  0.1994
18595TIP3    H177200   6.148   3.218   2.615  0.2491 -1.4488  0.7412
18595TIP3    H277201   6.124   3.333   2.711  0.1026  1.3441 -2.4754
18596TIP3   OH277202   2.553   5.651   2.856  0.4171 -0.1495 -0.3107
18596TIP3    H177203   2.632   5.629   2.807  0.5160  0.1348 -0.2792
18596TIP3    H277204   2.585   5.690   2.937  0.2403  1.5501 -1.0176
18597TIP3   OH277205   4.630   2.390   1.086 -0.1142  0.3935 -0.2017
18597TIP3    H177206   4.706   2.390   1.028  0.0088  0.9664 -0.0550
18597TIP3    H277207   4.633   2.306   1.131  0.5370  0.4854 -0.0705
18598TIP3   OH277208   0.115   4.351   0.931 -0.3855  0.2267 -0.0698
18598TIP3    H177209   0.170   4.331   0.855 -0.7979 -0.0467 -0.2992
18598TIP3    H277210   0.171   4.403   0.989  0.0740  0.0530 -0.3583
18599TIP3   OH277211   2.359   4.917   3.555 -0.0139  0.2739  0.2539
18599TIP3    H177212   2.367   4.977   3.481  1.4456  0.5366  0.5769
18599TIP3    H277213   2.302   4.963   3.617 -1.3522 -0.0081 -0.7258
18600TIP3   OH277214   4.786   2.570   4.989  0.0819 -0.6633  0.4570
18600TIP3    H177215   4.704   2.569   5.040 -1.0930  1.8276 -1.1673
18600TIP3    H277216   4.787   2.486   4.945 -1.9808 -0.5460  0.0558
18601TIP3   OH277217   3.857   4.316  14.751 -0.2400 -0.3412 -0.0049
18601TIP3    H177218   3.835   4.343  14.840  0.3996  0.1567  0.0068
18601TIP3    H277219   3.947   4.283  14.758 -0.4126 -0.8994 -0.3501
18602TIP3   OH277220   3.452   6.051   4.434 -0.1382  0.6083 -0.3454
18602TIP3    H177221   3.470   6.092   4.518 -1.7980  0.8127 -0.0474
18602TIP3    H277222   3.411   5.967   4.455 -0.3234  0.5416 -0.9346
18603TIP3   OH277223   6.548   1.738  11.652  0.5488  0.5196  0.1415
18603TIP3    H177224   6.536   1.660  11.599 -1.5125  0.6007  0.3931
18603TIP3    H277225   6.483   1.800  11.619 -0.0459  0.9637  1.9893
18604TIP3   OH277226   2.930   0.046   1.434 -0.5169 -0.5049 -0.4071
18604TIP3    H177227   2.957  -0.030   1.382  2.3705 -0.0079  0.2247
18604TIP3    H277228   3.005   0.064   1.491 -1.9570  1.5368  0.9741
18605TIP3   OH277229   6.313   6.178  17.013 -0.2501  0.1439 -0.5030
18605TIP3    H177230   6.335   6.257  17.063 -0.6444 -1.6591  2.8454
18605TIP3    H277231   6.273   6.210  16.932  1.3118  3.3253 -0.1542
18606TIP3   OH277232   6.634   4.676   1.080  0.1290  0.7910 -0.0715
18606TIP3    H177233   6.630   4.723   0.996 -1.0968  0.2936 -0.3179
18606TIP3    H277234   6.584   4.596   1.064  2.9098 -1.1147  0.0423
18607TIP3   OH277235   5.532   3.726   0.127  0.4720 -0.0629  0.4586
18607TIP3    H177236   5.543   3.815   0.161  0.2745  0.9808 -2.0310
18607TIP3    H277237   5.525   3.671   0.206  1.2360  2.0090  2.0673
18608TIP3   OH277238   1.490   1.815  11.305 -0.1050  0.2840  0.1672
18608TIP3    H177239   1.446   1.894  11.335  1.5995  0.7249  1.7188
18608TIP3    H277240   1.564   1.847  11.253  0.1407 -0.3110  0.1370
18609TIP3   OH277241   5.775   2.365  17.221 -0.4012 -0.1898  0.3396
18609TIP3    H177242   5.681   2.370  17.205 -0.4181  2.3835  0.8110
18609TIP3    H277243   5.814   2.345  17.136 -1.3197 -0.3918 -0.0371
18610TIP3   OH277244   5.224   5.125  12.755  0.2267 -0.4527 -0.8545
18610TIP3    H177245   5.158   5.056  12.762  0.7422 -1.1257 -2.2552
18610TIP3    H277246   5.307   5.079  12.754  0.8504  0.4330  1.7240
18611TIP3   OH277247   5.804   6.736  12.294 -0.1554 -0.5092  0.8544
18611TIP3    H177248   5.861   6.749  12.218  1.5750 -0.3593  2.1173
18611TIP3    H277249   5.759   6.819  12.304  0.1475 -0.2850  0.4070
18612TIP3   OH277250   5.160   2.479   1.723 -0.0509 -0.4299  0.3498
18612TIP3    H177251   5.230   2.463   1.659  0.3333  1.8716  0.1225
18612TIP3    H277252   5.203   2.528   1.793 -1.0924 -0.4526  1.0161
18613TIP3   OH277253   6.452   6.419  17.088 -0.8597 -0.8174  0.8222
18613TIP3    H177254   6.406   6.502  17.096 -0.7312 -0.6972  0.3176
18613TIP3    H277255   6.541   6.442  17.062 -1.0670 -1.1503 -0.2389
18614TIP3   OH277256   3.263   3.131  13.702 -0.3684  0.6022 -0.3296
18614TIP3    H177257   3.286   3.222  13.716 -0.1259  0.2944  1.4626
18614TIP3    H277258   3.275   3.117  13.608  1.1092  1.9859 -0.3792
18615TIP3   OH277259   6.350   5.901   2.149  0.4754  0.2450 -0.1485
18615TIP3    H177260   6.401   5.981   2.156 -0.2386  0.6032  1.3981
18615TIP3    H277261   6.259   5.930   2.137  0.5388 -0.3803 -2.6549
18616TIP3   OH277262   2.020   5.981  11.793 -0.1007  0.3966 -0.4703
18616TIP3    H177263   2.006   6.061  11.741 -2.1195  0.9784  0.8838
18616TIP3    H277264   1.933   5.948  11.811  0.4410  0.4971  2.9402
18617TIP3   OH277265   2.135   3.407  16.001  0.0551  0.0545 -0.0851
18617TIP3    H177266   2.168   3.491  16.034  0.4605 -0.2902  0.4017
18617TIP3    H277267   2.100   3.363  16.078  1.0676 -0.7865 -0.0772
18618TIP3   OH277268   4.797   2.795   1.822 -0.0886 -0.1127 -0.1206
18618TIP3    H177269   4.704   2.778   1.840 -0.3296 -0.1140 -1.2792
18618TIP3    H277270   4.841   2.714   1.846 -0.3946 -0.1459  0.3506
18619TIP3   OH277271   5.072   4.129   6.070 -0.1166 -0.0799  0.4260
18619TIP3    H177272   5.115   4.207   6.037  0.9477 -0.6730  0.3631
18619TIP3    H277273   5.030   4.157   6.152  1.5145  0.2300  1.1991
18620TIP3   OH277274   2.726   2.235   3.928 -0.6701  0.0533 -0.6172
18620TIP3    H177275   2.630   2.236   3.926 -0.7449 -1.1561  0.9443
18620TIP3    H277276   2.750   2.186   3.849 -1.4683 -1.9507  0.3081
18621TIP3   OH277277   6.685   2.142  15.467  0.1379 -0.3333 -0.2231
18621TIP3    H177278   6.630   2.220  15.471  0.2387 -0.0490 -2.8297
18621TIP3    H277279   6.653   2.086  15.538 -0.2573  1.8346  1.4056
18622TIP3   OH277280   5.397   6.157  15.668  0.0925 -0.5940  0.0361
18622TIP3    H177281   5.330   6.222  15.691 -0.2965 -1.1762  0.5976
18622TIP3    H277282   5.352   6.098  15.608 -0.0612 -1.2714  0.8014
18623TIP3   OH277283   4.693   4.330  16.637 -0.0628  0.1784  0.5627
18623TIP3    H177284   4.717   4.310  16.728 -0.4926  2.6880  1.3285
18623TIP3    H277285   4.776   4.352  16.595  0.0179  0.0338  0.6453
18624TIP3   OH277286   0.205   5.369  14.168  0.2995  0.0973 -0.3183
18624TIP3    H177287   0.137   5.374  14.235  1.2048 -1.4216  0.8005
18624TIP3    H277288   0.159   5.347  14.088 -0.5645 -0.8387  0.4075
18625TIP3   OH277289   4.184   1.076  11.736 -0.0854  0.5035  0.1209
18625TIP3    H177290   4.227   1.013  11.794 -1.1988  0.4672  0.9445
18625TIP3    H277291   4.140   1.022  11.670  1.4526  0.5543 -1.0081
18626TIP3   OH277292   4.124   5.972  16.867 -0.2832 -0.3606 -0.3508
18626TIP3    H177293   4.143   6.012  16.783 -1.7174  1.9072  0.3321
18626TIP3    H277294   4.201   5.992  16.921  0.2436 -1.0501 -0.8252
18627TIP3   OH277295   1.954   6.127  13.257  0.5407 -0.1159  0.3647
18627TIP3    H177296   2.013   6.121  13.332  0.1965  0.1707  0.6684
18627TIP3    H277297   1.927   6.037  13.240  4.2818 -0.9350 -2.4717
18628TIP3   OH277298   1.888   5.849  13.245 -0.1636  0.4563 -0.5071
18628TIP3    H177299   1.976   5.815  13.260 -0.1771 -0.1564 -1.6892
18628TIP3    H277300   1.836   5.771  13.225 -1.3527  0.5993  1.6553
18629TIP3   OH277301   1.990   2.939   5.470  0.3398 -0.1414  0.3407
18629TIP3    H177302   2.015   2.994   5.396  2.3198 -3.0493 -1.3366
18629TIP3    H277303   1.894   2.943   5.471  0.3386  1.4957 -1.0824
18630TIP3   OH277304   0.903   3.783  16.371 -0.0375 -0.6745 -0.0052
18630TIP3    H177305   0.861   3.868  16.385  0.7736 -0.3685  0.6345
18630TIP3    H277306   0.856   3.745  16.297  0.3947  0.8519 -1.1078
18631TIP3   OH277307   2.398   5.306  15.009  0.3008  0.0344  0.2920
18631TIP3    H177308   2.405   5.382  14.952 -0.9548  1.0949  1.4659
18631TIP3    H277309   2.441   5.236  14.961  0.8427  1.2972 -1.1566
18632TIP3   OH277310   0.335   5.820  14.135 -0.3600  0.5577 -0.1864
18632TIP3    H177311   0.275   5.856  14.200  0.7311  1.4541  0.3529
18632TIP3    H277312   0.324   5.875  14.058 -2.1149 -0.8856 -1.0486
18633TIP3   OH277313   0.812   5.045   2.990  0.0936  0.1171  0.5966
18633TIP3    H177314   0.753   5.115   3.018 -1.0357  0.8427 -2.9823
18633TIP3    H277315   0.757   4.967   2.988  0.2034  0.0391  0.5937
18634TIP3   OH277316   2.609   3.352  16.458  0.3595  0.4493 -0.7060
18634TIP3    H177317   2.649   3.273  16.420  1.4305  0.6715 -0.0859
18634TIP3    H277318   2.613   3.337  16.552  0.2725  1.1043 -0.6006
18635TIP3   OH277319   0.621   4.862  14.412  0.2327 -0.1596 -0.6599
18635TIP3    H177320   0.635   4.954  14.437 -0.2244 -0.2381 -0.0937
18635TIP3    H277321   0.591   4.866  14.322  0.1344  0.2545 -0.6121
18636TIP3   OH277322   3.661   1.959   4.646 -0.1665 -0.5001  0.5685
18636TIP3    H177323   3.617   2.040   4.619 -0.3571 -1.0845 -0.9808
18636TIP3    H277324   3.591   1.895   4.651 -0.2625 -0.2931  3.2778
18637TIP3   OH277325   4.866   2.260   2.752 -0.4522 -0.4722 -0.9122
18637TIP3    H177326   4.941   2.228   2.702  0.9229  2.5374 -0.9865
18637TIP3    H277327   4.793   2.255   2.691  0.2828 -0.8397 -1.7838
18638TIP3   OH277328   3.927   2.954   2.042 -0.0677 -0.3536  0.3250
18638TIP3    H177329   4.000   3.004   2.079  0.7176 -1.4125  0.2324
18638TIP3    H277330   3.965   2.907   1.968 -1.0848 -0.1429 -0.3522
18639TIP3   OH277331   2.056   1.911   2.563 -0.1353  0.0335  0.0596
18639TIP3    H177332   2.117   1.936   2.633  0.1956  0.2636 -0.3080
18639TIP3    H277333   1.969   1.925   2.601 -0.0103 -1.5105  1.0507
18640TIP3   OH277334   6.704   4.861   0.073  0.0330 -0.1304 -0.1998
18640TIP3    H177335   6.683   4.954   0.065  0.0558 -0.0481  0.6550
18640TIP3    H277336   6.667   4.822  -0.006  0.6875  0.7121 -0.9486
18641TIP3   OH277337   1.173   3.970   3.025  0.2609  0.4395  0.2886
18641TIP3    H177338   1.204   3.885   2.994 -1.0327  0.3322 -0.8088
18641TIP3    H277339   1.100   3.991   2.967  1.5771  3.0908 -0.5701
18642TIP3   OH277340   0.925   4.351   2.818 -0.8259  0.6099  0.8101
18642TIP3    H177341   0.996   4.404   2.781  1.7073 -2.4486  0.7732
18642TIP3    H277342   0.910   4.386   2.905  0.7310  1.4024  0.7881
18643TIP3   OH277343   4.600   5.011  15.324  0.7013 -0.3676 -0.0283
18643TIP3    H177344   4.606   5.056  15.408 -0.1014  0.0468 -0.1824
18643TIP3    H277345   4.546   5.068  15.270 -1.3409 -2.0277  0.1414
18644TIP3   OH277346   3.897   6.273  14.954 -0.1359 -0.8511 -0.0506
18644TIP3    H177347   3.964   6.227  15.006  0.5397 -0.4992 -0.5919
18644TIP3    H277348   3.938   6.285  14.868 -0.8943 -0.6099 -0.3832
18645TIP3   OH277349   2.150   5.243  12.237 -0.0229  0.2368  0.5996
18645TIP3    H177350   2.196   5.164  12.267  2.1479  1.2752  0.1966
18645TIP3    H277351   2.117   5.284  12.317 -0.7140 -0.7731  0.8546
18646TIP3   OH277352   4.794   6.325  15.777  0.3117  0.1068  0.2314
18646TIP3    H177353   4.811   6.238  15.812  1.2529  0.0398 -0.3530
18646TIP3    H277354   4.714   6.353  15.821 -0.1448 -1.1440  0.2386
18647TIP3   OH277355   6.441   1.038   4.540 -0.1613 -0.9336 -0.2098
18647TIP3    H177356   6.515   1.058   4.483  0.2732  2.8741  1.4137
18647TIP3    H277357   6.377   0.997   4.483  1.9402 -1.4727 -2.3520
18648TIP3   OH277358   5.623   4.241  17.148  0.8622 -0.4159 -0.6677
18648TIP3    H177359   5.612   4.193  17.066  0.5832 -1.3823 -0.0864
18648TIP3    H277360   5.595   4.330  17.127 -2.4011 -1.3352 -0.8557
18649TIP3   OH277361   3.754   3.163   2.661  0.1614  0.1850  0.1811
18649TIP3    H177362   3.777   3.079   2.699 -2.7582 -0.8004  0.0129
18649TIP3    H277363   3.707   3.209   2.731 -0.5535  0.5823 -0.5460
18650TIP3   OH277364   0.755   0.734   6.152  0.2671 -0.2290  0.0419
18650TIP3    H177365   0.673   0.707   6.109  0.9144 -1.4414 -0.4732
18650TIP3    H277366   0.761   0.828   6.134 -1.4545  0.0823  0.8535
18651TIP3   OH277367   4.533   3.612   5.920 -0.5961 -0.6491  0.0590
18651TIP3    H177368   4.453   3.654   5.951  0.2689 -0.7234  2.7142
18651TIP3    H277369   4.521   3.519   5.939 -0.1609 -0.7596 -0.1891
18652TIP3   OH277370   0.894   2.034   1.995 -0.1949  0.6882  0.0776
18652TIP3    H177371   0.925   2.059   2.082  1.4877  2.1663 -0.8700
18652TIP3    H277372   0.883   2.117   1.949  0.1519 -0.0917 -1.4815
18653TIP3   OH277373   3.453   2.877   5.196  0.2831 -0.4261 -0.1518
18653TIP3    H177374   3.383   2.815   5.217 -0.2510 -0.4614 -1.8716
18653TIP3    H277375   3.450   2.942   5.267 -2.0905  0.0401 -0.5862
18654TIP3   OH277376   0.591   2.048   4.366  0.4614 -0.0790 -0.2687
18654TIP3    H177377   0.548   2.130   4.388  1.6895  0.3929  0.5052
18654TIP3    H277378   0.677   2.074   4.332  2.6714 -0.9825  3.8552
18655TIP3   OH277379   4.109   2.685   1.565 -0.0398 -0.4214  0.1388
18655TIP3    H177380   4.170   2.650   1.630  0.4645 -2.3850 -1.2895
18655TIP3    H277381   4.133   2.777   1.556  0.4806 -0.3395  2.0325
18656TIP3   OH277382   4.214   6.709  13.152  0.2075 -0.0553 -0.0475
18656TIP3    H177383   4.140   6.746  13.201  1.2274  2.3172 -0.1560
18656TIP3    H277384   4.244   6.781  13.096  3.5026 -0.4209  1.0382
18657TIP3   OH277385   2.890   1.833  11.304  0.2789 -0.3850  0.3937
18657TIP3    H177386   2.816   1.797  11.255  0.2243  0.0571  0.1541
18657TIP3    H277387   2.919   1.908  11.254  1.2688 -0.8900  0.1746
18658TIP3   OH277388   4.061   5.066   0.809  0.1873 -0.0321 -0.2629
18658TIP3    H177389   4.136   5.010   0.788  0.8721  1.6360 -2.7242
18658TIP3    H277390   4.093   5.122   0.879  1.5327  1.0710 -1.6911
18659TIP3   OH277391   6.353   4.288  11.729  0.4527  0.3066 -0.3950
18659TIP3    H177392   6.333   4.341  11.805  1.0564 -0.6176  0.4285
18659TIP3    H277393   6.431   4.238  11.754  1.1017  0.5056 -1.8677
18660TIP3   OH277394   4.722   3.684  16.926  0.0489 -0.0966 -0.0643
18660TIP3    H177395   4.635   3.645  16.922  0.4344 -1.3809  2.3011
18660TIP3    H277396   4.766   3.652  16.847 -0.9397 -1.2550 -0.1797
18661TIP3   OH277397   0.403   6.444   4.875 -0.4691  0.0740  0.1447
18661TIP3    H177398   0.338   6.509   4.900 -1.1167 -0.3472 -0.4091
18661TIP3    H277399   0.352   6.371   4.841  0.1326 -1.5151  2.4456
18662TIP3   OH277400   4.482   2.328  13.339 -0.1027 -0.0618  0.1437
18662TIP3    H177401   4.555   2.378  13.375 -1.4197  0.1681  2.7089
18662TIP3    H277402   4.413   2.393  13.325 -0.9043 -0.7250  0.8968
18663TIP3   OH277403   0.959   6.342  15.910 -0.0917  0.1629  0.1350
18663TIP3    H177404   0.962   6.246  15.914  0.4814  0.1941  0.7854
18663TIP3    H277405   1.003   6.364  15.828  1.4199 -0.0904  0.8367
18664TIP3   OH277406   0.659   3.635   3.139  0.4205 -1.0393 -0.0289
18664TIP3    H177407   0.564   3.646   3.151  0.0458 -2.2623 -1.4492
18664TIP3    H277408   0.678   3.682   3.057  1.4630  0.9103  1.2629
18665TIP3   OH277409   3.017   2.450   5.410 -0.2560  0.0927 -0.0364
18665TIP3    H177410   3.018   2.515   5.339  1.2053  0.7764  0.5702
18665TIP3    H277411   2.966   2.377   5.375 -2.1102  1.6161 -0.6770
18666TIP3   OH277412   1.967   0.433   4.997  0.5039  0.1037 -0.4514
18666TIP3    H177413   1.930   0.345   5.002  1.3735 -0.2532  0.0627
18666TIP3    H277414   1.978   0.449   4.903  0.2685 -0.3050 -0.5521
18667TIP3   OH277415   0.986   4.607   1.014  0.3393 -0.2928  0.2951
18667TIP3    H177416   0.944   4.535   1.062 -0.2529  0.0981  0.3749
18667TIP3    H277417   0.935   4.684   1.037  0.3988  0.0002 -0.5132
18668TIP3   OH277418   4.336   5.151  15.679  0.4581  0.1077 -0.5763
18668TIP3    H177419   4.277   5.078  15.661  0.5372  0.0682 -0.6748
18668TIP3    H277420   4.309   5.183  15.765  0.6135 -0.2194 -0.4042
18669TIP3   OH277421   5.467   3.887  14.250  0.0917  0.3747 -0.8737
18669TIP3    H177422   5.429   3.941  14.319  0.1652 -0.4951 -0.1377
18669TIP3    H277423   5.561   3.885  14.269  0.6755  2.8364 -2.9076
18670TIP3   OH277424   3.927   2.738  16.090  0.1971  0.7553  0.4383
18670TIP3    H177425   4.003   2.716  16.145 -0.0981 -0.6900  0.3129
18670TIP3    H277426   3.852   2.723  16.147 -0.0724  0.1370 -0.0712
18671TIP3   OH277427   2.053   2.229  16.171 -0.4190  0.6135  0.6069
18671TIP3    H177428   2.092   2.294  16.112  0.0603 -1.2862 -1.3272
18671TIP3    H277429   2.121   2.213  16.236  0.8830 -0.3652 -0.9021
18672TIP3   OH277430   0.352   0.552   2.201 -0.4338  0.4950  0.9118
18672TIP3    H177431   0.292   0.576   2.131 -0.2326 -0.7124  0.2801
18672TIP3    H277432   0.427   0.610   2.189 -0.4099  0.3170  0.1167
18673TIP3   OH277433   4.763   1.782   3.547 -0.1997 -0.1660  0.1044
18673TIP3    H177434   4.795   1.819   3.629 -0.4777  1.2224 -0.3873
18673TIP3    H277435   4.741   1.858   3.493 -0.6186 -1.0555 -1.0255
18674TIP3   OH277436   1.465   0.848   0.683 -0.1183  0.6542 -0.0658
18674TIP3    H177437   1.556   0.878   0.678  0.3431 -0.8037 -2.9013
18674TIP3    H277438   1.430   0.890   0.761  2.6886  2.0679  0.5786
18675TIP3   OH277439   4.910   0.271  12.820  0.5688  0.5174  0.3095
18675TIP3    H177440   5.002   0.245  12.811  0.1125 -0.6061 -1.9001
18675TIP3    H277441   4.902   0.302  12.910  3.1674  0.9070  0.4724
18676TIP3   OH277442   1.571   2.639  16.873 -0.9457 -0.2217 -0.1221
18676TIP3    H177443   1.592   2.697  16.946  0.9767 -0.4157 -0.4822
18676TIP3    H277444   1.493   2.592  16.902 -0.3954 -0.1052  1.6858
18677TIP3   OH277445   6.718   6.231  15.920 -0.6462 -0.2277  0.1580
18677TIP3    H177446   6.664   6.295  15.968  1.2711  0.6985  1.1972
18677TIP3    H277447   6.802   6.275  15.907  0.3781 -2.1463 -0.0960
18678TIP3   OH277448   1.532   1.109   4.647 -0.2972 -0.0667  0.1513
18678TIP3    H177449   1.544   1.052   4.723  0.8439  1.0180  0.8239
18678TIP3    H277450   1.621   1.126   4.616 -0.7619 -0.9689 -1.8246
18679TIP3   OH277451   3.536   4.829  15.032 -0.6413 -0.4777  0.5982
18679TIP3    H177452   3.466   4.766  15.047  0.8242 -1.5428  4.0017
18679TIP3    H277453   3.597   4.784  14.973 -0.9367 -1.1439  0.8014
18680TIP3   OH277454   2.521   0.321  16.601 -0.1056  0.4994 -0.6482
18680TIP3    H177455   2.533   0.365  16.517  1.0341 -1.0651 -1.3530
18680TIP3    H277456   2.477   0.239  16.580  3.0027 -1.4356 -0.2668
18681TIP3   OH277457   3.080   0.837  12.505 -0.3974 -0.3637 -0.2333
18681TIP3    H177458   3.074   0.812  12.598  0.5907 -0.2228 -0.1160
18681TIP3    H277459   3.040   0.764  12.458  3.9653 -3.2739 -0.0185
18682TIP3   OH277460   2.488   3.906   5.018  0.0995 -0.4036  0.1549
18682TIP3    H177461   2.560   3.943   5.070  0.0023  0.4740 -0.3027
18682TIP3    H277462   2.531   3.868   4.942  0.0386  1.0012 -0.6209
18683TIP3   OH277463   2.069   6.119  14.902 -0.3107 -0.3989 -0.0172
18683TIP3    H177464   2.008   6.125  14.828 -1.1271  0.5293  0.7050
18683TIP3    H277465   2.152   6.092  14.862 -1.0649 -1.2594 -1.0855
18684TIP3   OH277466   3.164   2.353  13.877  0.0248  0.6316 -0.2017
18684TIP3    H177467   3.080   2.310  13.863 -0.2057  0.5186  1.3909
18684TIP3    H277468   3.142   2.436  13.919  0.5239  2.0216 -2.4856
18685TIP3   OH277469   2.036   4.672   0.059  0.1196  0.2064  0.0876
18685TIP3    H177470   2.120   4.629   0.045 -0.0068 -0.3395  0.9114
18685TIP3    H277471   1.985   4.651  -0.019  0.1971 -0.8264  0.3030
18686TIP3   OH277472   2.110   1.838  11.427  0.3128  0.1633 -0.5807
18686TIP3    H177473   2.149   1.784  11.357 -2.8561 -1.2975 -1.3869
18686TIP3    H277474   2.094   1.776  11.498  1.4041  1.1908  0.5958
18687TIP3   OH277475   0.500   5.620   3.290  0.2637  0.4404 -0.3395
18687TIP3    H177476   0.571   5.556   3.297 -0.9483 -0.8948  0.2425
18687TIP3    H277477   0.531   5.696   3.341  2.2536  0.9018 -2.0619
18688TIP3   OH277478   0.713   3.052  16.448  0.7527  0.4915 -0.1799
18688TIP3    H177479   0.780   3.022  16.387  1.1321 -0.7144  0.7962
18688TIP3    H277480   0.635   3.001  16.426  0.5031  1.0070 -0.5078
18689TIP3   OH277481   5.775   3.067   5.342  0.1431  0.1650  0.3598
18689TIP3    H177482   5.850   3.125   5.354  0.3780  0.0414 -0.4203
18689TIP3    H277483   5.717   3.114   5.282 -1.1737  0.9353  2.1147
18690TIP3   OH277484   3.938   0.824   1.474  0.0295  0.1384 -0.2790
18690TIP3    H177485   3.971   0.859   1.391  1.7616  0.1726  0.4012
18690TIP3    H277486   3.902   0.738   1.450 -1.0062  0.8212 -1.3229
18691TIP3   OH277487   3.085   3.221   4.363  0.0472 -0.0786  0.0510
18691TIP3    H177488   3.023   3.294   4.359  0.2294  0.0400 -0.8474
18691TIP3    H277489   3.033   3.143   4.344  0.3538  0.1532 -2.0391
18692TIP3   OH277490   6.319   0.238  10.958 -0.1916 -0.3192  0.0135
18692TIP3    H177491   6.382   0.166  10.951 -2.2175 -2.3902  1.8045
18692TIP3    H277492   6.236   0.200  10.932 -1.2654  1.5673  0.4874
18693TIP3   OH277493   6.150   4.261  16.764  0.8605  0.3018  0.1933
18693TIP3    H177494   6.228   4.211  16.784  0.4987 -0.3036  0.1099
18693TIP3    H277495   6.172   4.351  16.788  0.8671 -0.1814  2.1816
18694TIP3   OH277496   6.684   2.189  11.035  0.0682  0.1262  0.3792
18694TIP3    H177497   6.665   2.117  10.975  0.0232  1.4570 -1.3218
18694TIP3    H277498   6.778   2.187  11.048  0.0312 -0.3950  0.5568
18695TIP3   OH277499   2.727   2.406  17.345 -0.0103  0.5337  0.0669
18695TIP3    H177500   2.633   2.413  17.334  0.0367 -0.1810 -1.0091
18695TIP3    H277501   2.742   2.410  17.439 -1.2399 -0.8177  0.3338
18696TIP3   OH277502   2.334   1.850   3.540  0.8158  0.5529 -0.0701
18696TIP3    H177503   2.379   1.830   3.458  0.6789 -1.2547  0.2549
18696TIP3    H277504   2.387   1.808   3.608 -0.5166 -0.3188  0.4772
18697TIP3   OH277505   4.850   4.151   0.865 -0.4734  0.1155 -0.2841
18697TIP3    H177506   4.860   4.058   0.884 -2.9486 -0.1221  0.1994
18697TIP3    H277507   4.757   4.162   0.845 -0.1745  2.4257 -0.7181
18698TIP3   OH277508   6.612   2.775   0.257  0.4070  0.5406  0.2260
18698TIP3    H177509   6.523   2.739   0.256  0.6378 -0.0593  1.2707
18698TIP3    H277510   6.654   2.735   0.332  1.4484  1.1333 -0.0254
18699TIP3   OH277511   5.270   6.137  13.932  0.3517  0.9251  0.4089
18699TIP3    H177512   5.307   6.221  13.904 -0.6664  1.1820 -0.1900
18699TIP3    H277513   5.345   6.089  13.967  0.8415  2.3378  1.3996
18700TIP3   OH277514   3.565   0.828   4.968  0.3035  0.2750  0.3464
18700TIP3    H177515   3.506   0.874   5.028  1.3790  0.9663  0.9130
18700TIP3    H277516   3.525   0.742   4.956 -2.0562  1.4811 -1.1534
18701TIP3   OH277517   2.911   4.209   6.226  0.2576  0.4108 -0.2547
18701TIP3    H177518   2.996   4.170   6.205 -0.9848 -2.2740 -0.7688
18701TIP3    H277519   2.929   4.272   6.296  2.8023  0.7812 -1.1756
18702TIP3   OH277520   2.698   2.970   2.982 -0.3025  0.0177 -0.6565
18702TIP3    H177521   2.789   2.964   2.951  0.0740 -2.5117  0.7094
18702TIP3    H277522   2.646   2.976   2.901  0.9910  0.0397 -1.5164
18703TIP3   OH277523   0.899   4.497  14.143 -0.0911  0.5212 -0.4069
18703TIP3    H177524   0.839   4.518  14.215  0.2062  0.3678 -0.1097
18703TIP3    H277525   0.951   4.577  14.132  1.9112 -0.4076  1.5845
18704TIP3   OH277526   2.357   1.368   4.134  0.5520 -0.2810 -0.0298
18704TIP3    H177527   2.272   1.389   4.174  0.2769 -1.0039 -0.2198
18704TIP3    H277528   2.413   1.345   4.208  0.2427 -0.9338  0.0098
18705TIP3   OH277529   4.981   1.459  15.499  0.0990  0.5130  0.4117
18705TIP3    H177530   4.899   1.471  15.451 -0.0712 -0.0053  0.5711
18705TIP3    H277531   5.035   1.533  15.472 -0.3586  0.7683  0.1771
18706TIP3   OH277532   5.103   6.514   0.496 -0.2875 -0.2075  0.5939
18706TIP3    H177533   5.103   6.527   0.401  0.4576  1.0642  0.7481
18706TIP3    H277534   5.076   6.423   0.507  0.3194 -0.6023 -0.8762
18707TIP3   OH277535   3.374   1.733   4.371  0.3287 -0.2110  0.0302
18707TIP3    H177536   3.283   1.755   4.394 -0.1811 -1.7622 -0.3914
18707TIP3    H277537   3.377   1.638   4.374  1.5809 -0.2480 -1.3301
18708TIP3   OH277538   0.645   0.623  16.118  0.0840  0.6095 -0.1048
18708TIP3    H177539   0.727   0.588  16.152 -1.4354 -2.1835  0.9771
18708TIP3    H277540   0.614   0.557  16.057 -0.7447  2.2655 -1.5664
18709TIP3   OH277541   0.267   4.028   6.326  0.0747  0.1842  0.9173
18709TIP3    H177542   0.296   4.069   6.245 -0.7131 -1.5103 -0.2870
18709TIP3    H277543   0.338   3.967   6.349  0.1961  0.4953  1.3879
18710TIP3   OH277544   6.323   1.938   0.677  0.0601 -0.4059  0.1292
18710TIP3    H177545   6.415   1.962   0.688  0.2994 -1.1492 -0.2055
18710TIP3    H277546   6.323   1.843   0.671 -0.6830 -0.3888 -0.3131
18711TIP3   OH277547   2.771   1.626   4.037  0.3747  0.2309  0.4376
18711TIP3    H177548   2.770   1.713   3.997 -2.9920 -0.5848 -1.6359
18711TIP3    H277549   2.808   1.569   3.969 -1.9819 -0.5922 -0.2788
18712TIP3   OH277550   0.481   0.301  12.954 -0.5338  0.4136 -0.0848
18712TIP3    H177551   0.463   0.395  12.951  0.6368  0.7118  1.2225
18712TIP3    H277552   0.555   0.293  13.015 -0.5576 -1.3480 -0.2484
18713TIP3   OH277553   3.510   3.718  12.122  0.6477 -0.3368 -0.4758
18713TIP3    H177554   3.491   3.780  12.193  1.2234  0.4121 -0.9702
18713TIP3    H277555   3.467   3.637  12.150  0.9180 -0.0770  0.7682
18714TIP3   OH277556   2.611   3.070  11.481  0.4109  0.3623 -0.6992
18714TIP3    H177557   2.663   3.059  11.401 -0.2731 -0.7902 -1.0026
18714TIP3    H277558   2.663   3.129  11.536  2.0855 -0.8421 -0.9431
18715TIP3   OH277559   4.164   1.249   2.527 -0.1939  0.8753 -0.0133
18715TIP3    H177560   4.193   1.206   2.447 -0.1846  1.0392 -0.0965
18715TIP3    H277561   4.070   1.231   2.531  0.3493 -2.3614  1.8503
18716TIP3   OH277562   4.331   1.481  14.466  0.6663 -0.1423 -0.4267
18716TIP3    H177563   4.387   1.443  14.534 -1.2988 -0.2410  1.2246
18716TIP3    H277564   4.275   1.408  14.438 -0.2689  0.5196 -0.3028
18717TIP3   OH277565   5.371   1.584   2.962 -0.4828  0.2733 -0.2006
18717TIP3    H177566   5.286   1.550   2.991  0.7128  0.2702  3.7495
18717TIP3    H277567   5.417   1.506   2.930 -0.4183 -0.6276  1.9088
18718TIP3   OH277568   4.214   0.953  14.425 -0.1144 -0.1820 -0.2084
18718TIP3    H177569   4.131   0.906  14.415  0.3232 -0.6080 -2.1821
18718TIP3    H277570   4.216   0.978  14.518 -1.9238 -1.1126  0.1279
18719TIP3   OH277571   1.060   0.860   1.725  0.2253  0.2132  0.2740
18719TIP3    H177572   1.008   0.914   1.666  0.6785  0.5652  0.1963
18719TIP3    H277573   1.147   0.899   1.723  0.7447 -0.9401 -0.3275
18720TIP3   OH277574   2.391   1.982  14.291  0.2284 -0.3352 -0.2671
18720TIP3    H177575   2.298   1.967  14.273 -0.4567  2.8360  0.1216
18720TIP3    H277576   2.401   1.965  14.384 -0.0057 -0.5129 -0.2746
18721TIP3   OH277577   0.145   6.136  11.737 -0.3348 -0.4025  0.7692
18721TIP3    H177578   0.069   6.133  11.679  0.4025 -0.3118 -0.2356
18721TIP3    H277579   0.189   6.218  11.714  0.5503 -0.8861  0.6957
18722TIP3   OH277580   0.516   5.026   5.504 -0.0397 -0.3995 -0.1373
18722TIP3    H177581   0.551   5.020   5.416  0.5822  0.8559  0.0144
18722TIP3    H277582   0.486   4.937   5.524  0.1914 -0.7832 -1.4431
18723TIP3   OH277583   1.206   3.302   2.086 -0.1149 -0.1464 -0.3250
18723TIP3    H177584   1.277   3.304   2.022  2.3920 -0.6871  2.2238
18723TIP3    H277585   1.188   3.209   2.100  0.3082 -0.0888  0.6744
18724TIP3   OH277586   2.010   0.188   2.936 -0.4056 -0.2185 -0.5952
18724TIP3    H177587   2.075   0.255   2.915  0.7630 -1.0792  0.1561
18724TIP3    H277588   1.949   0.232   2.995 -0.2106  0.4542 -0.8851
18725TIP3   OH277589   0.712   1.190  13.853 -0.0088  0.0441  0.1936
18725TIP3    H177590   0.779   1.258  13.849  0.5882 -0.3628  2.2672
18725TIP3    H277591   0.650   1.222  13.919  0.6006 -1.6375  1.6545
18726TIP3   OH277592   5.770   6.016   1.852  0.0725 -0.1418 -0.4054
18726TIP3    H177593   5.735   5.936   1.891 -0.2379  0.3651  0.3799
18726TIP3    H277594   5.794   6.070   1.927  0.2755  0.5032 -0.9314
18727TIP3   OH277595   2.485   3.502  11.690 -0.3458 -0.3297 -0.1126
18727TIP3    H177596   2.478   3.441  11.616 -0.6221 -0.7629  0.2707
18727TIP3    H277597   2.429   3.465  11.758  0.9408 -0.6360  0.8140
18728TIP3   OH277598   4.152   3.157  14.455  1.3712 -0.1959  0.0098
18728TIP3    H177599   4.179   3.113  14.536  0.8807 -1.0495 -0.2776
18728TIP3    H277600   4.166   3.092  14.386 -1.7624 -0.8920 -0.1124
18729TIP3   OH277601   1.549   1.393  13.474 -0.4099  0.0191  0.7532
18729TIP3    H177602   1.635   1.356  13.458 -0.5292 -0.3431  0.9438
18729TIP3    H277603   1.501   1.379  13.393 -0.7284 -1.0154  1.1088
18730TIP3   OH277604   5.699   5.091   4.791 -0.0301 -0.0926 -0.1324
18730TIP3    H177605   5.766   5.160   4.789  3.5691 -3.2982 -1.9176
18730TIP3    H277606   5.635   5.119   4.726  1.6633  1.2933 -1.2947
18731TIP3   OH277607   6.597   1.491  12.802  0.1166 -0.3807  0.4921
18731TIP3    H177608   6.513   1.455  12.831  0.0777 -0.3357  0.4352
18731TIP3    H277609   6.580   1.585  12.792 -0.1944 -0.5575 -0.8052
18732TIP3   OH277610   5.045   5.221  16.534 -0.4946  0.4896 -0.0954
18732TIP3    H177611   5.057   5.135  16.576  1.6488  0.3828 -0.8306
18732TIP3    H277612   5.035   5.201  16.441  1.3489  1.0725 -0.4485
18733TIP3   OH277613   3.153   0.323  13.693 -0.2412 -0.3592 -0.0853
18733TIP3    H177614   3.116   0.312  13.781 -1.0452 -1.9622 -0.5758
18733TIP3    H277615   3.240   0.359  13.707 -0.1903 -0.9988  1.4002
18734TIP3   OH277616   6.248   3.901   4.518  0.3122 -0.8259 -0.4493
18734TIP3    H177617   6.222   3.826   4.465 -1.5137 -0.1097 -0.6706
18734TIP3    H277618   6.177   3.911   4.582  1.5648 -0.5520  0.9543
18735TIP3   OH277619   2.824   1.489   4.271  0.7707 -0.2699 -0.1411
18735TIP3    H177620   2.810   1.395   4.260  1.7017 -0.3670 -0.5473
18735TIP3    H277621   2.786   1.528   4.192 -3.0720  0.0938  1.6390
18736TIP3   OH277622   1.928   5.966  12.934 -0.0147  0.2100  0.8531
18736TIP3    H177623   2.005   5.932  12.979 -0.2937 -0.4477  0.8353
18736TIP3    H277624   1.854   5.917  12.971 -0.2250 -0.5555 -0.5068
18737TIP3   OH277625   5.246   5.292   3.904  0.0910 -0.3186  0.1373
18737TIP3    H177626   5.231   5.211   3.954 -0.7422  0.5670  1.3796
18737TIP3    H277627   5.312   5.339   3.954 -1.1971  0.8606  0.7901
18738TIP3   OH277628   3.863   2.263  13.525 -0.1559 -0.5332  0.3633
18738TIP3    H177629   3.899   2.174  13.523 -1.6359 -1.2947  2.9416
18738TIP3    H277630   3.937   2.319  13.503  1.5199 -2.2688  1.2430
18739TIP3   OH277631   2.893   4.815  17.266  0.8439  0.9655 -0.2713
18739TIP3    H177632   2.895   4.849  17.355  1.5411  0.6044 -0.1444
18739TIP3    H277633   2.986   4.808  17.241  0.7343 -0.8014 -0.3024
18740TIP3   OH277634   4.826   5.698  11.553  0.2812  0.2302  0.1822
18740TIP3    H177635   4.813   5.605  11.535 -2.0522  0.7625 -1.4526
18740TIP3    H277636   4.896   5.725  11.494 -0.5147 -0.0827 -0.9330
18741TIP3   OH277637   2.356   1.642   4.264 -0.1016  0.5790  0.8426
18741TIP3    H177638   2.315   1.704   4.204 -2.6559 -0.9659  0.8567
18741TIP3    H277639   2.447   1.671   4.270 -0.2627  2.0608 -2.0865
18742TIP3   OH277640   3.053   2.578  12.892 -0.0516  0.5758  0.7404
18742TIP3    H177641   3.041   2.485  12.873  2.8751 -0.1368  1.7861
18742TIP3    H277642   3.117   2.579  12.964  1.6193  3.4223 -0.6432
18743TIP3   OH277643   0.045   0.982  15.813  0.1792  0.1178 -0.5002
18743TIP3    H177644   0.110   0.991  15.744  0.9879  1.1685  0.3560
18743TIP3    H277645   0.062   1.056  15.872  0.4473 -1.5180  1.5917
18744TIP3   OH277646   2.349   4.337  14.990  0.6377 -0.6244  0.4364
18744TIP3    H177647   2.361   4.260  15.047 -0.7731 -0.3818  1.0891
18744TIP3    H277648   2.333   4.300  14.903  1.2474 -1.0298  0.4875
18745TIP3   OH277649   3.198   0.578  15.729 -0.6151 -0.4363 -0.0729
18745TIP3    H177650   3.108   0.561  15.700 -0.5553 -0.5366 -0.2030
18745TIP3    H277651   3.232   0.492  15.752 -0.0981 -0.5898 -1.3462
18746TIP3   OH277652   6.517   1.865   6.730 -0.2934 -0.0520  0.2358
18746TIP3    H177653   6.532   1.872   6.636  2.2834  1.1480  0.6441
18746TIP3    H277654   6.503   1.956   6.759 -0.4595 -0.3430  1.1074
18747TIP3   OH277655   3.666   2.599  12.075 -0.3136 -0.0741 -0.5145
18747TIP3    H177656   3.606   2.568  12.142  2.0860  0.0709  1.8516
18747TIP3    H277657   3.719   2.523  12.051 -0.5244  0.0928 -1.5784
18748TIP3   OH277658   3.560   2.687  16.295  0.3071 -0.0776  0.6160
18748TIP3    H177659   3.514   2.635  16.229 -1.9743  1.5673  0.8146
18748TIP3    H277660   3.589   2.765  16.248  0.6324  0.0841  1.0756
18749TIP3   OH277661   5.425   4.035  10.668  0.4736  0.2883 -0.5470
18749TIP3    H177662   5.419   3.959  10.611 -0.4669 -0.1498  0.1125
18749TIP3    H277663   5.506   4.080  10.641  1.4553 -1.3477 -0.4256
18750TIP3   OH277664   2.385   1.117   0.435  0.5929  0.4215  0.3623
18750TIP3    H177665   2.315   1.085   0.378 -1.2888  2.8007  1.1939
18750TIP3    H277666   2.397   1.208   0.409  3.1962  0.2009  0.5062
18751TIP3   OH277667   6.058   1.779  17.107  0.4750 -0.2574  0.0664
18751TIP3    H177668   5.991   1.774  17.039  1.9224 -0.0878 -1.4584
18751TIP3    H277669   6.125   1.717  17.079  1.7645  0.8541  0.5665
18752TIP3   OH277670   1.185   0.996  15.284 -0.1071  0.0179  0.0240
18752TIP3    H177671   1.216   1.042  15.362 -1.7237 -1.2485  1.4893
18752TIP3    H277672   1.119   0.935  15.317 -0.2362 -1.1586 -2.2451
18753TIP3   OH277673   0.864   6.493   4.364  0.0051  0.3693 -0.3681
18753TIP3    H177674   0.924   6.567   4.361 -0.2452  0.5564 -0.9200
18753TIP3    H277675   0.841   6.477   4.272  0.0748 -0.4052 -0.2530
18754TIP3   OH277676   0.768   1.048   3.043  0.3471  0.4705 -0.5845
18754TIP3    H177677   0.761   1.142   3.032  0.1608  0.5534  0.1539
18754TIP3    H277678   0.859   1.033   3.069 -0.0505  0.6693  1.0867
18755TIP3   OH277679   5.976   5.579  14.755  0.3475  0.1349  0.5859
18755TIP3    H177680   5.909   5.643  14.729  1.4545  2.0144  2.0756
18755TIP3    H277681   5.957   5.502  14.702 -0.4683  2.0094 -2.0996
18756TIP3   OH277682   2.032   1.762   1.885 -0.0291 -0.1900  0.6076
18756TIP3    H177683   2.006   1.680   1.926 -0.8124  0.5133  1.5583
18756TIP3    H277684   2.063   1.737   1.798 -2.7372 -1.2273 -0.1493
18757TIP3   OH277685   1.933   6.412   1.342  0.1412  0.7679  0.0719
18757TIP3    H177686   2.027   6.432   1.340  0.7533 -1.7361  0.3364
18757TIP3    H277687   1.905   6.419   1.251  0.7300  0.9408 -0.1045
18758TIP3   OH277688   2.428   2.223  13.776 -0.2688 -0.4268 -0.3597
18758TIP3    H177689   2.397   2.301  13.822  0.6602 -1.3300  1.9013
18758TIP3    H277690   2.374   2.152  13.810  2.1609 -1.5314  1.4188
18759TIP3   OH277691   5.056   3.165   5.863 -0.2105  0.1636 -0.0800
18759TIP3    H177692   5.067   3.227   5.935  1.3577 -0.3172  0.1345
18759TIP3    H277693   4.987   3.105   5.893 -0.0460  0.3698  0.7380
18760TIP3   OH277694   3.116   5.549   0.623  0.0419 -0.5943 -0.5937
18760TIP3    H177695   3.027   5.582   0.632  0.2967  0.1825 -0.8931
18760TIP3    H277696   3.172   5.627   0.627  0.9096 -1.2333  1.9112
18761TIP3   OH277697   2.200   5.246  11.973 -0.0900  0.7554  0.5469
18761TIP3    H177698   2.209   5.257  12.068  2.1910  0.3605  0.4427
18761TIP3    H277699   2.290   5.250  11.940 -0.2841 -3.2755 -1.1106
18762TIP3   OH277700   4.736   5.003   2.990  0.0428  0.5830 -0.2530
18762TIP3    H177701   4.653   4.958   2.973  0.6773 -1.8077  2.1341
18762TIP3    H277702   4.797   4.964   2.928  0.1803 -0.6249  0.5969
18763TIP3   OH277703   6.725   3.572   5.481 -0.4959  0.1257 -0.3576
18763TIP3    H177704   6.693   3.599   5.567 -2.7048 -1.0882 -0.7002
18763TIP3    H277705   6.659   3.605   5.420 -0.8269 -1.9423 -1.2092
18764TIP3   OH277706   2.915   5.263  15.757  0.0815  0.5557 -0.2525
18764TIP3    H177707   2.915   5.257  15.852 -0.0065 -1.7017 -0.3558
18764TIP3    H277708   2.822   5.262  15.733  0.1141  0.7781 -0.3937
18765TIP3   OH277709   2.479   5.251  11.943 -0.7028 -0.4327 -0.0328
18765TIP3    H177710   2.563   5.208  11.959 -0.9306 -0.8063  0.1622
18765TIP3    H277711   2.487   5.285  11.854 -0.0652  0.1950  0.2496
18766TIP3   OH277712   2.242   0.100  10.632 -0.2016 -0.0110  0.1224
18766TIP3    H177713   2.310   0.152  10.674  0.0145  0.7100 -1.0681
18766TIP3    H277714   2.270   0.009  10.643  0.0173  0.1860  1.2117
18767TIP3   OH277715   5.968   1.654   3.541 -0.1220  0.7052  0.7319
18767TIP3    H177716   5.914   1.709   3.484 -0.7139 -0.5648  0.0378
18767TIP3    H277717   6.057   1.667   3.508 -0.5881 -1.0203 -1.4319
18768TIP3   OH277718   0.981   5.636   3.259  0.3229  0.5175  0.0571
18768TIP3    H177719   1.039   5.567   3.226  0.6353 -0.1764  1.9098
18768TIP3    H277720   0.900   5.591   3.282 -0.4881  1.2613 -1.2450
18769TIP3   OH277721   3.920   0.021  10.985  0.1468  0.2972  0.3464
18769TIP3    H177722   3.906   0.078  10.909 -2.3631  0.0190  0.5168
18769TIP3    H277723   3.836  -0.024  10.996 -0.4304  1.9506  4.5997
18770TIP3   OH277724   6.418   3.534  11.612  0.4476  0.1219  0.2521
18770TIP3    H177725   6.418   3.510  11.705  0.5207  0.7795  0.4259
18770TIP3    H277726   6.357   3.472  11.572 -0.1157  0.2728  0.8568
18771TIP3   OH277727   6.100   3.266  14.878  0.6153  0.1515  0.4992
18771TIP3    H177728   6.134   3.277  14.789  0.9807 -1.6308  0.3780
18771TIP3    H277729   6.107   3.172  14.895  0.1322  0.3926  2.2536
18772TIP3   OH277730   3.936   0.485   1.505 -0.2236  0.3718  0.3209
18772TIP3    H177731   3.958   0.465   1.595 -0.1364 -2.8066 -0.2901
18772TIP3    H277732   3.863   0.427   1.485  0.1203  0.5850 -1.7981
18773TIP3   OH277733   0.734   5.551   2.076  0.3243  0.2617  0.2425
18773TIP3    H177734   0.788   5.626   2.096 -1.8511  1.9367  0.1971
18773TIP3    H277735   0.766   5.520   1.991 -0.3549  2.8128 -1.0370
18774TIP3   OH277736   1.073   2.255   3.506 -0.3805  0.3520 -0.1691
18774TIP3    H177737   1.028   2.194   3.447 -0.6042  0.0184  0.3406
18774TIP3    H277738   1.162   2.260   3.471 -0.7311  0.8253 -1.0356
18775TIP3   OH277739   2.850   2.882   5.883  0.1946  0.6714 -0.3998
18775TIP3    H177740   2.841   2.964   5.933  0.9444  0.9183 -0.6489
18775TIP3    H277741   2.819   2.904   5.796  1.0761  0.9010 -0.6621
18776TIP3   OH277742   6.544   4.541  12.229 -0.1070 -0.3830 -0.2128
18776TIP3    H177743   6.474   4.593  12.190  0.1100 -1.5016 -2.2217
18776TIP3    H277744   6.537   4.558  12.323 -1.7306  1.1447 -0.5625
18777TIP3   OH277745   0.121   6.570  14.909  0.8150  0.4267  0.6175
18777TIP3    H177746   0.050   6.519  14.949  0.8451  0.3224  0.5348
18777TIP3    H277747   0.198   6.551  14.963  0.7179  0.7647  0.8863
18778TIP3   OH277748   3.146   4.212  12.361 -0.0191  0.0086 -1.0628
18778TIP3    H177749   3.086   4.283  12.385  0.2348 -0.1743  0.2293
18778TIP3    H277750   3.097   4.132  12.376  0.5024 -0.1402 -0.0446
18779TIP3   OH277751   1.867   6.457   0.024 -0.0149 -0.0335 -0.1105
18779TIP3    H177752   1.838   6.469  -0.067 -2.5555 -0.4184  0.5590
18779TIP3    H277753   1.960   6.437   0.017  0.5163  2.6387 -2.4263
18780TIP3   OH277754   4.981   0.866   4.033 -0.3311  0.0565  0.4722
18780TIP3    H177755   4.944   0.932   3.975 -0.4593  0.4858  1.0389
18780TIP3    H277756   5.053   0.828   3.982  0.3858  1.3246  0.5082
18781TIP3   OH277757   4.745   1.051  14.982  0.0416 -0.9252 -0.4324
18781TIP3    H177758   4.822   1.093  15.019 -1.4257  1.0503  0.5993
18781TIP3    H277759   4.768   0.959  14.976  1.6997 -0.7490  1.9456
18782TIP3   OH277760   0.465   1.490   3.258 -0.1186 -0.4958  0.1843
18782TIP3    H177761   0.532   1.427   3.282 -0.3832 -0.1605  1.9529
18782TIP3    H277762   0.514   1.568   3.232  0.1845 -0.8883 -0.4476
18783TIP3   OH277763   1.204   2.883   5.252  0.4138 -0.3924  0.1477
18783TIP3    H177764   1.268   2.844   5.193  0.8201 -0.0308  0.3461
18783TIP3    H277765   1.220   2.842   5.337 -1.0645 -1.9298 -0.2597
18784TIP3   OH277766   1.790   0.873   0.712 -0.5639 -0.2446 -0.1930
18784TIP3    H177767   1.879   0.853   0.683 -1.2324  0.3617 -3.0055
18784TIP3    H277768   1.802   0.924   0.793  1.7362  0.9625 -1.1946
18785TIP3   OH277769   4.537   2.395   4.813  0.7435 -0.1248 -0.5648
18785TIP3    H177770   4.499   2.460   4.754  1.5774  0.1908 -0.7803
18785TIP3    H277771   4.588   2.337   4.756 -0.0670 -1.0359 -0.3867
18786TIP3   OH277772   2.127   2.263   2.119 -0.0421  0.1025 -0.2756
18786TIP3    H177773   2.122   2.174   2.084 -0.1635 -0.1945  0.4753
18786TIP3    H277774   2.036   2.286   2.139  0.2554 -2.2548  5.9194
18787TIP3   OH277775   1.034   5.932  15.341 -0.3158  0.0151 -0.0302
18787TIP3    H177776   1.098   5.912  15.410  1.5052  1.2971 -1.2471
18787TIP3    H277777   1.043   5.861  15.278  2.6825  1.8951 -1.9848
18788TIP3   OH277778   3.295   5.648   2.153  0.3020  0.5087 -0.9630
18788TIP3    H177779   3.233   5.644   2.081 -0.8147 -1.2877  0.0285
18788TIP3    H277780   3.242   5.670   2.230  0.6587 -1.9969  0.0770
18789TIP3   OH277781   0.347   1.121  11.963 -0.3840  0.5030  0.0611
18789TIP3    H177782   0.297   1.053  11.916 -1.8999  1.3118  0.4292
18789TIP3    H277783   0.377   1.077  12.042 -2.0411  0.4169  0.6926
18790TIP3   OH277784   4.131   2.725   0.220 -0.1187  0.0139 -0.0966
18790TIP3    H177785   4.130   2.672   0.140  0.9603 -2.0841  1.2019
18790TIP3    H277786   4.191   2.797   0.201 -0.0670 -0.3181 -1.2533
18791TIP3   OH277787   2.240   3.713   5.552 -0.5158 -0.5080  0.3040
18791TIP3    H177788   2.200   3.779   5.496  1.8682  0.1137 -0.8248
18791TIP3    H277789   2.167   3.659   5.583 -2.1626  0.5380 -1.5659
18792TIP3   OH277790   0.369   1.035  12.993 -0.8303  0.3241 -0.4937
18792TIP3    H177791   0.280   1.071  12.991 -0.4056  1.4073 -0.5304
18792TIP3    H277792   0.417   1.093  13.051 -0.7990 -1.9156  1.8833
18793TIP3   OH277793   1.140   0.349  15.248  0.1520  0.1024 -0.9426
18793TIP3    H177794   1.168   0.410  15.316 -1.8200  2.5053 -2.1389
18793TIP3    H277795   1.064   0.305  15.285  0.9659 -0.9710 -0.4719
18794TIP3   OH277796   2.890   5.805   1.271  0.8265  0.3538  0.0164
18794TIP3    H177797   2.824   5.873   1.286  0.1234 -0.4689  0.8042
18794TIP3    H277798   2.843   5.723   1.284  1.5351 -0.3120 -1.4427
18795TIP3   OH277799   5.576   5.739   1.028 -0.0076 -0.0288 -0.3810
18795TIP3    H177800   5.486   5.725   1.000  0.2070  2.5786 -2.8638
18795TIP3    H277801   5.572   5.817   1.084  0.5909 -0.4898  0.3224
18796TIP3   OH277802   3.272   2.845   3.406 -0.3754  0.3680 -0.2531
18796TIP3    H177803   3.242   2.853   3.496  1.8714 -1.7951  0.7936
18796TIP3    H277804   3.313   2.929   3.386  1.0403  0.1493  1.5612
18797TIP3   OH277805   1.150   1.689   5.410  0.3375 -0.0238 -0.9328
18797TIP3    H177806   1.109   1.755   5.465  0.9867 -0.3436 -0.0421
18797TIP3    H277807   1.222   1.734   5.367  1.8715 -0.4936  0.9876
18798TIP3   OH277808   4.797   4.283  15.144 -0.0057 -0.1267 -0.2243
18798TIP3    H177809   4.860   4.215  15.167 -0.7988 -0.7990 -0.0183
18798TIP3    H277810   4.835   4.325  15.066  2.3075  1.6436  1.6773
18799TIP3   OH277811   5.686   5.239   0.501 -0.1649 -0.3523 -0.0544
18799TIP3    H177812   5.778   5.212   0.506  0.4255  1.1680 -1.6927
18799TIP3    H277813   5.639   5.159   0.477  0.9587 -0.8208 -0.7951
18800TIP3   OH277814   5.080   4.865  17.097 -0.0694  0.3162  0.8880
18800TIP3    H177815   5.049   4.956  17.096  1.1133  0.7997 -2.0625
18800TIP3    H277816   5.038   4.826  17.174 -0.0371  3.5171  2.7143
18801TIP3   OH277817   4.658   2.799   2.186 -0.3705 -0.0110  0.3954
18801TIP3    H177818   4.747   2.812   2.153 -0.5569  1.2174  0.3235
18801TIP3    H277819   4.609   2.766   2.110 -0.4084  1.1699 -0.1100
18802TIP3   OH277820   3.836   2.297  13.197  0.3029 -0.2215  0.1193
18802TIP3    H177821   3.788   2.352  13.259  1.7649 -0.3665  1.4415
18802TIP3    H277822   3.775   2.226  13.175 -1.0230  1.0089 -0.3515
18803TIP3   OH277823   4.217   1.334   4.081 -0.0794  0.1700  0.7747
18803TIP3    H177824   4.181   1.246   4.065  0.1691  0.1501  0.3399
18803TIP3    H277825   4.155   1.373   4.143 -1.0585  0.2737 -0.2510
18804TIP3   OH277826   2.380   4.979  11.078 -0.1714 -0.1852  0.6811
18804TIP3    H177827   2.382   5.074  11.066  1.3238 -0.2739  0.0434
18804TIP3    H277828   2.387   4.943  10.989 -1.4326 -0.9138  0.8498
18805TIP3   OH277829   2.939   4.173   0.405  0.3873  0.1256 -0.1889
18805TIP3    H177830   3.024   4.203   0.437  0.2630  0.3337 -0.0545
18805TIP3    H277831   2.937   4.204   0.314  0.9941 -0.9855 -0.6074
18806TIP3   OH277832   1.329   3.758   1.755 -0.4019  0.1672  0.0875
18806TIP3    H177833   1.368   3.734   1.671 -0.3748 -0.1417  0.1871
18806TIP3    H277834   1.391   3.726   1.820 -0.3322  0.5696  0.2223
18807TIP3   OH277835   0.884   5.786   2.056  0.1944 -0.4079  0.1209
18807TIP3    H177836   0.841   5.870   2.071  0.2427 -0.2772 -0.4521
18807TIP3    H277837   0.974   5.809   2.032 -0.1726 -0.5422 -1.4895
18808TIP3   OH277838   0.869   3.180   0.277 -0.0241  0.0156 -0.1450
18808TIP3    H177839   0.834   3.167   0.189 -0.4240 -0.6086  0.1042
18808TIP3    H277840   0.853   3.273   0.295  1.8659  0.6643 -1.4947
18809TIP3   OH277841   2.600   5.650  15.444  0.4523 -0.0461 -0.2308
18809TIP3    H177842   2.571   5.729  15.491 -0.3622 -0.4927  0.0307
18809TIP3    H277843   2.546   5.580  15.481  2.3513 -1.0393  0.7698
18810TIP3   OH277844   2.564   4.509  14.889  0.2546  0.3030 -0.1734
18810TIP3    H177845   2.644   4.518  14.941  0.4622 -1.1685 -0.1967
18810TIP3    H277846   2.502   4.464  14.947  0.5063 -1.4089 -1.1816
18811TIP3   OH277847   6.247   4.738  11.911 -0.0896 -0.2498  0.2813
18811TIP3    H177848   6.281   4.826  11.928 -0.5187  0.0926 -0.5718
18811TIP3    H277849   6.156   4.742  11.941 -0.0095 -0.5146  0.5646
18812TIP3   OH277850   4.836   0.959  13.550 -0.0813 -0.3018 -0.0206
18812TIP3    H177851   4.808   1.042  13.512  0.4830  0.3861  1.0163
18812TIP3    H277852   4.772   0.896  13.519 -0.2182  0.4087 -1.2638
18813TIP3   OH277853   6.311   4.479  17.131 -0.4273  0.2448 -0.2320
18813TIP3    H177854   6.401   4.477  17.098 -0.5466  3.7100 -1.1127
18813TIP3    H277855   6.258   4.503  17.055 -2.0405 -0.9543  0.4524
18814TIP3   OH277856   5.933   5.545   5.054  0.0131  0.0039 -0.0120
18814TIP3    H177857   6.025   5.548   5.082 -0.1674  1.4845  0.5579
18814TIP3    H277858   5.937   5.535   4.959  0.7544 -0.3890  0.0561
18815TIP3   OH277859   5.306   1.213  12.237  0.2351 -0.1730 -0.2180
18815TIP3    H177860   5.398   1.217  12.264 -0.0752 -0.4612  0.9640
18815TIP3    H277861   5.289   1.120  12.222 -0.2373 -0.3269  1.0750
18816TIP3   OH277862   5.472   0.153   2.028 -0.0422  0.5442 -0.2793
18816TIP3    H177863   5.383   0.188   2.031  0.2143  1.2934 -1.1203
18816TIP3    H277864   5.527   0.224   2.059  0.2108 -0.2004  1.0736
18817TIP3   OH277865   5.681   0.269  16.969 -1.1042 -0.0465 -0.2857
18817TIP3    H177866   5.588   0.248  16.964 -1.0312 -2.3452  3.9060
18817TIP3    H277867   5.693   0.307  17.056  1.9067  0.0895 -0.6456
18818TIP3   OH277868   1.099   3.007   6.325 -0.1903 -0.2752  0.6512
18818TIP3    H177869   1.020   3.043   6.366 -0.0119  1.6564 -0.5845
18818TIP3    H277870   1.169   3.068   6.349  0.5145 -0.8014 -0.0082
18819TIP3   OH277871   0.812   0.997   2.634  0.0591  0.1180  0.1385
18819TIP3    H177872   0.786   1.035   2.550 -1.9667 -0.1618  0.5723
18819TIP3    H277873   0.789   0.905   2.627 -0.2731  0.1206  1.0240
18820TIP3   OH277874   5.422   1.955  13.816 -0.1660 -0.1548  0.0684
18820TIP3    H177875   5.383   1.891  13.876 -0.9123  0.6955  0.5069
18820TIP3    H277876   5.499   1.911  13.781 -0.7743 -1.3819  0.2026
18821TIP3   OH277877   0.530   4.602  13.644  0.0160  0.2605 -0.0999
18821TIP3    H177878   0.567   4.582  13.557  0.9635 -1.1071  0.5867
18821TIP3    H277879   0.570   4.538  13.702 -1.8457  0.1139  1.0821
18822TIP3   OH277880   5.750   1.804   1.034 -0.0504  0.0396  0.7339
18822TIP3    H177881   5.838   1.821   1.067 -0.1840  0.0941  1.0579
18822TIP3    H277882   5.701   1.770   1.109 -0.0027 -1.0730  0.2798
18823TIP3   OH277883   2.258   1.746  13.581  0.3317 -0.1653  0.0246
18823TIP3    H177884   2.309   1.741  13.661  0.1670  0.3626  0.1668
18823TIP3    H277885   2.214   1.831  13.585 -0.6600 -0.6568 -0.0333
18824TIP3   OH277886   5.142   2.028   5.291  0.2429  0.2976 -0.0033
18824TIP3    H177887   5.100   1.972   5.225 -0.8979 -0.4020  1.2728
18824TIP3    H277888   5.074   2.089   5.318  0.7800  0.7542  0.3434
18825TIP3   OH277889   4.253   5.215   3.359  0.1900  0.7699  0.4445
18825TIP3    H177890   4.287   5.258   3.437  0.3018  0.0990  0.7709
18825TIP3    H277891   4.228   5.128   3.388  0.3271  0.4756 -0.2939
18826TIP3   OH277892   3.377   2.405  13.562 -0.0710 -0.0193  0.4328
18826TIP3    H177893   3.462   2.362  13.558 -1.1326 -2.2361 -0.2646
18826TIP3    H277894   3.396   2.496  13.584  2.4011 -0.6136  1.0065
18827TIP3   OH277895   0.155   4.407  16.078 -0.0296 -0.3043 -0.7539
18827TIP3    H177896   0.214   4.450  16.017 -0.0334 -0.9859 -1.2544
18827TIP3    H277897   0.109   4.341  16.025 -1.6362  0.5645 -0.5217
18828TIP3   OH277898   1.555   0.148  16.478 -0.3781 -0.2118  0.2411
18828TIP3    H177899   1.600   0.087  16.419  0.9927 -0.1536  1.1682
18828TIP3    H277900   1.593   0.234  16.458 -0.4780 -0.0697  0.6458
18829TIP3   OH277901   5.307   5.839   5.741  0.2031 -0.5858  0.3843
18829TIP3    H177902   5.307   5.935   5.744  0.3387 -0.5658 -0.1501
18829TIP3    H277903   5.394   5.813   5.771  1.5213 -0.3976 -2.8830
18830TIP3   OH277904   3.976   6.705  12.909 -0.0486  0.4244 -0.1056
18830TIP3    H177905   3.916   6.632  12.927 -2.1131  2.3553  1.5492
18830TIP3    H277906   3.970   6.760  12.987  1.1419  2.5493 -1.4152
18831TIP3   OH277907   1.641   3.003  10.995  0.5329  0.4071  0.1300
18831TIP3    H177908   1.568   2.960  11.040 -1.1991  1.7819 -1.2147
18831TIP3    H277909   1.650   2.954  10.913  1.6445 -0.1948  0.5883
18832TIP3   OH277910   4.576   3.230  13.637 -0.1840  0.0978 -0.6461
18832TIP3    H177911   4.501   3.276  13.675  0.9477  0.7255  0.9124
18832TIP3    H277912   4.602   3.285  13.563 -0.1771  0.8132 -0.1211
18833TIP3   OH277913   2.039   5.356  16.877 -0.4801 -0.7983  0.4126
18833TIP3    H177914   2.052   5.404  16.959  2.8123  0.4450 -0.6808
18833TIP3    H277915   2.104   5.286  16.879 -0.6399 -1.0181 -0.9361
18834TIP3   OH277916   0.923   0.646  14.474  0.7644 -0.0557  0.4283
18834TIP3    H177917   0.858   0.626  14.406  0.4478 -1.4770  1.1230
18834TIP3    H277918   0.974   0.566  14.482  0.1375 -0.2987  2.5813
18835TIP3   OH277919   1.739   4.763  14.906 -0.3543  0.2157 -0.2110
18835TIP3    H177920   1.668   4.828  14.905  0.0671  0.6784 -0.3357
18835TIP3    H277921   1.802   4.798  14.968 -0.0758 -0.0198 -0.3626
18836TIP3   OH277922   5.554   4.490   5.146  0.6342  0.0072  0.4663
18836TIP3    H177923   5.470   4.515   5.185 -0.5348 -1.5811 -0.8836
18836TIP3    H277924   5.602   4.572   5.137 -0.8853  1.0029  0.9944
18837TIP3   OH277925   2.408   5.539  12.122  0.0231 -0.0694  0.0118
18837TIP3    H177926   2.503   5.548  12.125 -0.0205  0.2832  0.4595
18837TIP3    H277927   2.390   5.494  12.039  0.3093  3.1466 -1.9826
18838TIP3   OH277928   5.935   2.874   5.904 -0.3525  0.2266  0.2422
18838TIP3    H177929   5.850   2.915   5.922 -0.2996 -0.3814  2.1962
18838TIP3    H277930   5.978   2.872   5.990  1.1769 -0.4737 -0.5179
18839TIP3   OH277931   3.387   0.782  15.666 -0.1674 -0.1607 -0.0543
18839TIP3    H177932   3.293   0.768  15.673  0.0714 -1.0582  1.7430
18839TIP3    H277933   3.427   0.711  15.715  1.3670  1.5952  1.4284
18840TIP3   OH277934   6.378   3.696   4.680  0.6966  0.1254 -0.3961
18840TIP3    H177935   6.407   3.786   4.696  0.9205 -0.0624  0.2619
18840TIP3    H277936   6.298   3.687   4.731  1.7408 -0.6647  1.1671
18841TIP3   OH277937   1.528   6.096  16.892 -0.1143 -0.0067  0.8135
18841TIP3    H177938   1.589   6.022  16.895 -0.7650 -0.5543  0.8846
18841TIP3    H277939   1.566   6.156  16.828 -0.3265 -1.0876 -0.3554
18842TIP3   OH277940   4.966   0.703   3.665  0.1186  0.4380 -0.2550
18842TIP3    H177941   4.986   0.666   3.751  0.7470  1.9632  0.2760
18842TIP3    H277942   5.044   0.752   3.641 -0.3086  0.5849 -1.3993
18843TIP3   OH277943   0.338   6.626  11.342  0.0051  0.8786  0.4243
18843TIP3    H177944   0.357   6.719  11.349 -0.4441  1.0043 -0.0722
18843TIP3    H277945   0.422   6.584  11.361  0.0241  1.3490  1.4890
18844TIP3   OH277946   6.147   1.123  12.305 -0.4905 -0.1803  0.0473
18844TIP3    H177947   6.123   1.030  12.310  0.0649 -0.3360 -0.1706
18844TIP3    H277948   6.063   1.169  12.309 -0.9245 -0.7517 -1.5741
18845TIP3   OH277949   2.318   4.972  11.342  0.5422  0.6184 -0.2807
18845TIP3    H177950   2.344   4.974  11.250 -2.0446 -2.0945 -1.2340
18845TIP3    H277951   2.249   5.038  11.349 -0.6640 -0.5354 -0.8690
18846TIP3   OH277952   1.153   3.817  11.969  0.0021 -0.6395  0.0117
18846TIP3    H177953   1.194   3.740  12.008  0.5099 -0.6603 -0.5412
18846TIP3    H277954   1.184   3.890  12.022 -1.2555 -0.8977  1.1380
18847TIP3   OH277955   0.579   0.647  16.905  0.3612  0.2695 -0.2532
18847TIP3    H177956   0.662   0.670  16.946 -1.3761  0.6144  3.5142
18847TIP3    H277957   0.517   0.711  16.941 -1.8108 -0.9100 -1.7181
18848TIP3   OH277958   6.665   1.066   5.418  0.0615  0.3283  0.1818
18848TIP3    H177959   6.599   1.047   5.486 -0.8484  0.0588 -0.7550
18848TIP3    H277960   6.646   1.003   5.349 -0.0509  1.6438 -1.0145
18849TIP3   OH277961   3.487   4.855   0.037  0.8376 -0.6087 -0.2573
18849TIP3    H177962   3.566   4.908   0.026 -0.1939  1.0502 -0.0181
18849TIP3    H277963   3.455   4.878   0.124  0.1532 -1.3780 -0.2940
18850TIP3   OH277964   2.952   1.226  12.242  0.1342 -0.1708  0.3712
18850TIP3    H177965   3.028   1.272  12.278  0.1490 -0.5550  0.8448
18850TIP3    H277966   2.982   1.137  12.228 -0.7882 -0.8944  2.5615
18851TIP3   OH277967   3.384   5.267   2.032 -0.3350  0.5389  0.1933
18851TIP3    H177968   3.385   5.176   2.004 -2.6121  0.2147  0.9717
18851TIP3    H277969   3.341   5.314   1.960 -2.3067  0.3861  1.2061
18852TIP3   OH277970   0.573   6.508  11.430  0.0643 -0.4553  0.4075
18852TIP3    H177971   0.560   6.419  11.463  1.6983 -0.9376 -0.1378
18852TIP3    H277972   0.551   6.565  11.504 -1.5881 -1.2532  0.5847
18853TIP3   OH277973   4.183   0.192   6.012  1.0197  0.7591  0.0369
18853TIP3    H177974   4.115   0.252   6.042  0.6802 -0.7214  2.5525
18853TIP3    H277975   4.262   0.222   6.058  1.2806  0.4430 -0.2073
18854TIP3   OH277976   1.057   4.987  15.191 -0.1250 -0.1908  0.4920
18854TIP3    H177977   1.047   5.030  15.106  1.1126 -0.1910  0.3201
18854TIP3    H277978   1.077   5.059  15.251 -2.4653  0.0115  1.1178
18855TIP3   OH277979   0.495   1.739   1.260  0.0781 -0.1437  0.0852
18855TIP3    H177980   0.588   1.743   1.283  0.1617  0.2446 -0.3098
18855TIP3    H277981   0.450   1.733   1.345  0.3787  1.4492  0.3953
18856TIP3   OH277982   4.885   5.642  13.134 -0.1626  0.0234 -0.6030
18856TIP3    H177983   4.861   5.606  13.049 -1.6231  2.5834 -1.3682
18856TIP3    H277984   4.969   5.686  13.120 -0.2400  0.1625 -0.6281
18857TIP3   OH277985   1.947   0.163   0.363 -0.3006 -0.4964 -0.0207
18857TIP3    H177986   2.034   0.170   0.324  0.3077 -3.1868  0.6442
18857TIP3    H277987   1.887   0.171   0.289  0.7837 -4.0902 -1.5332
18858TIP3   OH277988   0.170   4.046  13.391  0.6353  0.3040 -0.0512
18858TIP3    H177989   0.171   4.139  13.416  2.5369  0.3824 -0.2530
18858TIP3    H277990   0.238   4.007  13.446 -0.7699 -1.2000  0.7070
18859TIP3   OH277991   3.551   0.241   3.405 -0.4269 -0.5541  0.4140
18859TIP3    H177992   3.501   0.204   3.478 -0.5333 -1.1156  0.0606
18859TIP3    H277993   3.485   0.285   3.351 -0.4242 -0.6190  0.3587
18860TIP3   OH277994   1.502   4.811   5.180  0.1628  0.1532  0.4113
18860TIP3    H177995   1.526   4.804   5.088  0.1658  2.2838  0.1930
18860TIP3    H277996   1.585   4.826   5.226 -0.1469  2.9258  0.2254
18861TIP3   OH277997   0.250   2.641   5.224 -0.8020 -0.7289  0.3762
18861TIP3    H177998   0.313   2.695   5.273  2.1511 -2.9815 -0.6291
18861TIP3    H277999   0.247   2.559   5.273 -2.9396 -0.7268  0.3026
18862TIP3   OH278000   4.136   4.667  13.753  0.3910  0.2015 -0.3313
18862TIP3    H178001   4.103   4.586  13.714 -2.0646  1.1784 -0.4718
18862TIP3    H278002   4.119   4.658  13.846  2.0688 -0.2672 -0.0416
18863TIP3   OH278003   0.554   0.399  17.224  0.4807  0.2605 -0.3026
18863TIP3    H178004   0.556   0.484  17.268  2.7114 -0.1703  0.5601
18863TIP3    H278005   0.504   0.415  17.144 -1.6778  1.6326  1.2167
18864TIP3   OH278006   4.186   0.361   0.327 -0.1997 -0.4297  0.2799
18864TIP3    H178007   4.153   0.449   0.346  0.7097 -0.3745  1.7507
18864TIP3    H278008   4.237   0.371   0.247 -0.0981  0.3899  0.4411
18865TIP3   OH278009   0.768   3.652  16.158  0.1985  0.2303 -0.8015
18865TIP3    H178010   0.753   3.569  16.202  1.2581  0.0769 -0.7219
18865TIP3    H278011   0.846   3.639  16.105 -0.0504  0.9489 -1.3729
18866TIP3   OH278012   6.251   3.049  16.422 -0.1120  0.1569 -0.2195
18866TIP3    H178013   6.178   3.108  16.441  1.6675  1.8266  2.0251
18866TIP3    H278014   6.273   3.011  16.507  1.0316 -1.0701 -1.0320
18867TIP3   OH278015   3.563   1.231  16.184 -0.1138 -0.1766  0.0053
18867TIP3    H178016   3.622   1.225  16.259  1.1932 -0.8916 -1.0298
18867TIP3    H278017   3.485   1.183  16.212 -0.6507  1.5758  1.7438
18868TIP3   OH278018   0.019   3.303   4.068  0.3208 -0.4022  0.0053
18868TIP3    H178019   0.083   3.374   4.071  0.9841 -1.0371  1.4599
18868TIP3    H278020   0.071   3.223   4.076 -0.3533 -1.1363 -2.1499
18869TIP3   OH278021   6.150   6.077   2.053  0.2076  0.5365 -0.6504
18869TIP3    H178022   6.156   6.045   1.963  0.6878 -0.5398 -0.2501
18869TIP3    H278023   6.083   6.146   2.050 -1.5262 -1.1115 -1.3887
18870TIP3   OH278024   5.671   0.216  16.595  0.1811 -0.0485  0.3581
18870TIP3    H178025   5.671   0.141  16.655 -0.5045  0.3706  0.9019
18870TIP3    H278026   5.633   0.183  16.514  1.2629 -0.6630  0.0884
18871TIP3   OH278027   1.119   1.784  12.273  0.1313 -0.6124  0.3948
18871TIP3    H178028   1.187   1.720  12.294  2.3489  1.1156 -1.0626
18871TIP3    H278029   1.147   1.864  12.317 -0.5819  0.3373 -0.8126
18872TIP3   OH278030   0.013   4.393   5.255  0.1896  0.4466  0.5147
18872TIP3    H178031   0.052   4.320   5.302 -2.6123 -1.9651 -0.5710
18872TIP3    H278032  -0.065   4.416   5.305 -0.4496  0.8179 -0.6021
18873TIP3   OH278033   1.364   6.090  12.242 -0.0562 -0.2312  0.4225
18873TIP3    H178034   1.400   6.007  12.274  0.7773  0.1662  0.5445
18873TIP3    H278035   1.271   6.085  12.262  0.3749 -0.0806  2.8114
18874TIP3   OH278036   5.742   5.938   4.044 -0.1627  0.1565 -0.1371
18874TIP3    H178037   5.750   6.009   3.981  0.7985 -0.0698 -0.2748
18874TIP3    H278038   5.684   5.874   4.001 -1.6384  1.1512  0.2851
18875TIP3   OH278039   0.252   1.619   4.826  0.2744 -0.7206 -0.1979
18875TIP3    H178040   0.212   1.601   4.911 -0.1960 -3.6480 -0.9361
18875TIP3    H278041   0.194   1.683   4.785 -1.1698 -1.5485  0.4910
18876TIP3   OH278042   3.651   6.654  12.130 -0.0008  0.2149  0.1992
18876TIP3    H178043   3.594   6.722  12.168  1.9140  2.2624 -0.3391
18876TIP3    H278044   3.590   6.592  12.090 -1.8926  1.6571  0.6395
18877TIP3   OH278045   0.764   6.531  14.219 -0.3704  0.3144 -0.3067
18877TIP3    H178046   0.672   6.553  14.237 -0.4310  0.2613 -0.5462
18877TIP3    H278047   0.764   6.502  14.128  0.4957  3.8545 -1.6065
18878TIP3   OH278048   5.811   5.135   2.260 -0.3779  0.8410  0.0924
18878TIP3    H178049   5.863   5.208   2.224 -0.4646  1.0618  0.4110
18878TIP3    H278050   5.768   5.172   2.337  0.1134  0.2676  0.6526
18879TIP3   OH278051   5.732   5.814  12.823  0.7167  0.1595 -0.3202
18879TIP3    H178052   5.714   5.729  12.781 -2.8155  1.4689 -1.8020
18879TIP3    H278053   5.756   5.872  12.751 -0.5127  1.2789  0.1460
18880TIP3   OH278054   2.002   2.004  12.446  0.2845  0.3928 -0.3241
18880TIP3    H178055   2.063   1.959  12.388  0.3253  0.1131 -0.0632
18880TIP3    H278056   2.002   1.952  12.526  1.2322  1.5125  0.4321
18881TIP3   OH278057   4.177   4.755  16.586 -0.5249  0.0650  0.1645
18881TIP3    H178058   4.152   4.684  16.527 -0.5499  0.3374 -0.1532
18881TIP3    H278059   4.094   4.796  16.611 -0.5566 -0.3422  0.7677
18882TIP3   OH278060   4.281   1.101  13.032 -0.3458 -0.1134 -0.5368
18882TIP3    H178061   4.311   1.093  13.123 -2.2513  1.7676  0.3441
18882TIP3    H278062   4.339   1.167  12.994 -0.2798 -0.0300 -0.2965
18883TIP3   OH278063   4.748   4.606   3.201 -0.0842 -0.0619  0.3645
18883TIP3    H178064   4.750   4.584   3.294  1.7256 -0.6792  0.2165
18883TIP3    H278065   4.801   4.538   3.159  0.2282  0.9396 -0.9431
18884TIP3   OH278066   5.452   3.680   1.908 -0.2636 -0.1357  0.3295
18884TIP3    H178067   5.522   3.652   1.850 -0.3349  1.9548 -0.8547
18884TIP3    H278068   5.377   3.625   1.883 -0.0176  0.0621 -0.8841
18885TIP3   OH278069   1.128   5.443  14.145  0.0699 -0.7093 -0.4527
18885TIP3    H178070   1.033   5.437  14.142 -0.1787  1.3396  1.0990
18885TIP3    H278071   1.150   5.426  14.237  1.1475 -0.5320 -0.6621
18886TIP3   OH278072   4.673   1.124  12.848 -0.2233  0.2553 -0.2200
18886TIP3    H178073   4.765   1.138  12.828 -0.1195  1.1782  0.8120
18886TIP3    H278074   4.644   1.058  12.785  0.9863  0.3876 -0.9361
18887TIP3   OH278075   2.928   6.265   6.045  0.4657 -0.2886 -0.4405
18887TIP3    H178076   2.949   6.204   5.974  2.6359  0.7919 -0.8096
18887TIP3    H278077   2.933   6.211   6.124  0.6685 -0.9442 -0.8855
18888TIP3   OH278078   2.086   3.704   2.255 -0.6806  0.3145  0.1234
18888TIP3    H178079   2.023   3.698   2.327 -0.3812 -1.8606  0.2802
18888TIP3    H278080   2.050   3.646   2.188  0.1920  0.5438 -0.5512
18889TIP3   OH278081   3.807   2.836   1.260  0.3733  0.3509  0.6085
18889TIP3    H178082   3.733   2.776   1.250  2.0693 -1.7441  0.0209
18889TIP3    H278083   3.883   2.786   1.232  2.1254  2.2539  1.6686
18890TIP3   OH278084   0.020   6.409  16.909 -0.5178  0.5299  0.2308
18890TIP3    H178085  -0.021   6.379  16.828 -1.4676  1.7117  0.2522
18890TIP3    H278086  -0.024   6.492  16.929  1.5891  1.6489  0.4894
18891TIP3   OH278087   4.965   5.868   1.093 -0.1794  0.1339  0.4683
18891TIP3    H178088   4.892   5.881   1.033  2.1874  2.0856 -2.3084
18891TIP3    H278089   4.947   5.925   1.167 -0.8387  1.6748 -0.8403
18892TIP3   OH278090   1.483   6.150   5.602  0.1051 -0.0535  0.1585
18892TIP3    H178091   1.486   6.175   5.694  0.2794  0.2058  0.0848
18892TIP3    H278092   1.515   6.060   5.600 -1.4368 -0.6373  0.5383
18893TIP3   OH278093   1.858   0.194   5.126 -0.4466  0.7842  0.0089
18893TIP3    H178094   1.819   0.219   5.209 -2.6297  0.6038 -0.9006
18893TIP3    H278095   1.925   0.129   5.149 -1.7059 -0.0342  1.5671
18894TIP3   OH278096   3.987   0.692   5.763  0.3458  0.0602  0.5120
18894TIP3    H178097   3.917   0.756   5.757  1.3312  1.2352  1.2349
18894TIP3    H278098   4.043   0.723   5.834  1.5354 -0.9050  0.0406
18895TIP3   OH278099   6.179   0.519   4.398  0.3900 -0.4390 -0.1437
18895TIP3    H178100   6.110   0.479   4.450  0.4563 -0.7367 -0.2764
18895TIP3    H278101   6.194   0.605   4.438  1.3036 -1.1465  1.1239
18896TIP3   OH278102   3.208   0.102   5.747 -0.2059 -0.3470  0.1548
18896TIP3    H178103   3.128   0.085   5.796 -0.3536 -0.0893  0.0056
18896TIP3    H278104   3.261   0.023   5.759 -0.4658 -0.5023  0.2851
18897TIP3   OH278105   0.579   6.733  10.469  0.6132  0.1309  0.1885
18897TIP3    H178106   0.598   6.700  10.557 -0.4565 -0.5715  0.1745
18897TIP3    H278107   0.519   6.805  10.483 -1.2169 -1.2874 -0.0412
18898TIP3   OH278108   0.557   0.590  11.464 -0.1230  0.3757  0.1130
18898TIP3    H178109   0.607   0.546  11.533 -0.6655  1.1335  1.0093
18898TIP3    H278110   0.532   0.519  11.404  0.2789 -0.3078  0.7264
18899TIP3   OH278111   5.052   2.673   4.996  0.1563  0.2490  0.2813
18899TIP3    H178112   5.076   2.581   4.984  0.1846  0.1937  0.7179
18899TIP3    H278113   4.957   2.675   4.982  0.1064  0.0933  0.5790
18900TIP3   OH278114   4.689   5.104   3.704  0.3736 -0.1317  0.1396
18900TIP3    H178115   4.694   5.034   3.638 -1.0130  0.0758 -0.2134
18900TIP3    H278116   4.639   5.064   3.776 -0.1610  0.3872  0.0621
18901TIP3   OH278117   2.643   0.873  17.262  0.0285 -0.3756  0.1731
18901TIP3    H178118   2.553   0.841  17.264 -0.1316  0.0595  0.0217
18901TIP3    H278119   2.639   0.959  17.304 -0.1245  0.8125 -2.0917
18902TIP3   OH278120   0.303   0.267   2.148  0.2310 -0.5149 -0.1211
18902TIP3    H178121   0.314   0.253   2.054 -2.8173  0.6419 -0.7548
18902TIP3    H278122   0.324   0.359   2.161  0.4105 -0.6110  0.2953
18903TIP3   OH278123   6.340   3.490   5.554 -0.3936  0.2990  0.2444
18903TIP3    H178124   6.259   3.444   5.531  1.6757 -3.5412 -0.3317
18903TIP3    H278125   6.379   3.437   5.624  2.6212  0.6308 -1.0154
18904TIP3   OH278126   4.336   2.727  14.526  0.1805  0.3013 -0.7200
18904TIP3    H178127   4.350   2.811  14.482 -2.1285  1.1405 -0.0108
18904TIP3    H278128   4.264   2.686  14.477 -0.8107  0.1725  0.7643
18905TIP3   OH278129   0.780   1.654  12.091 -0.6967 -0.6005 -0.0998
18905TIP3    H178130   0.860   1.632  12.043 -0.5808 -0.9463  0.2468
18905TIP3    H278131   0.718   1.682  12.024 -0.3743 -0.5979 -0.3974
18906TIP3   OH278132   0.152   6.722   0.719  0.4342  0.1347 -0.7414
18906TIP3    H178133   0.230   6.667   0.731 -0.8385 -1.5659  0.2794
18906TIP3    H278134   0.078   6.662   0.732 -1.0934  2.4037  2.4016
18907TIP3   OH278135   3.960   4.663   3.137  0.4286  0.1150  0.6784
18907TIP3    H178136   3.994   4.741   3.093  0.3911  0.3783  1.1133
18907TIP3    H278137   4.037   4.606   3.145  0.7704  0.6744  1.5827
18908TIP3   OH278138   0.040   3.135  13.964  0.7422  0.2717 -0.5243
18908TIP3    H178139  -0.031   3.195  13.940 -0.0712  0.3667  1.8784
18908TIP3    H278140   0.098   3.188  14.018  0.1285 -0.9589  1.4581
18909TIP3   OH278141   1.585   6.032  14.296  0.2215 -0.1868  0.3063
18909TIP3    H178142   1.676   6.040  14.326  0.6180 -0.5766 -0.7230
18909TIP3    H278143   1.583   5.949  14.249 -0.6909 -0.2140  0.3822
18910TIP3   OH278144   5.357   4.340   5.699  0.5216  0.9362  0.6999
18910TIP3    H178145   5.399   4.368   5.618  0.0476 -0.1772  0.0633
18910TIP3    H278146   5.336   4.423   5.744  0.3067  1.5738 -0.5430
18911TIP3   OH278147   6.156   6.122   4.168  0.9234 -0.5235 -0.1089
18911TIP3    H178148   6.240   6.094   4.204  1.2254  2.3878  1.7686
18911TIP3    H278149   6.115   6.172   4.238 -0.9756  0.7607 -2.0193
18912TIP3   OH278150   3.383   0.384   3.264 -0.6382  0.2427 -0.1491
18912TIP3    H178151   3.331   0.392   3.184 -0.0759  0.8350 -0.4680
18912TIP3    H278152   3.358   0.459   3.317 -2.0394 -0.9008  0.8659
18913TIP3   OH278153   3.719   4.160  12.341 -0.3557  0.2134  0.0213
18913TIP3    H178154   3.644   4.104  12.360  0.6491 -0.2418  3.2362
18913TIP3    H278155   3.794   4.101  12.342  0.3851  1.1363  0.1539
18914TIP3   OH278156   4.720   5.475  12.223 -0.9267 -0.1623 -0.4075
18914TIP3    H178157   4.630   5.450  12.246 -1.5506  1.1224 -1.2894
18914TIP3    H278158   4.710   5.560  12.179  0.7788  0.2281 -0.0985
18915TIP3   OH278159   4.162   4.676  14.595 -0.2010  0.0907  0.0582
18915TIP3    H178160   4.250   4.660  14.562 -0.4384  0.9597 -1.0619
18915TIP3    H278161   4.106   4.616  14.546 -0.3792  0.3859 -0.1029
18916TIP3   OH278162   4.069   4.084  12.198  0.9140  0.2290  0.6000
18916TIP3    H178163   4.043   4.174  12.180 -1.9640 -0.7772 -1.0001
18916TIP3    H278164   3.993   4.031  12.171  2.5585 -2.7014  1.2388
18917TIP3   OH278165   2.872   0.194  16.768  0.0544 -0.2745 -0.8142
18917TIP3    H178166   2.905   0.173  16.856 -0.4238 -0.5207 -0.6902
18917TIP3    H278167   2.820   0.273  16.780  1.9657  1.1205 -1.3108
18918TIP3   OH278168   1.955   4.108  11.671 -0.2697 -0.1190 -0.0395
18918TIP3    H178169   2.023   4.047  11.641 -1.3497 -1.0958 -0.6245
18918TIP3    H278170   1.935   4.161  11.594 -0.0375  0.2879  0.1822
18919TIP3   OH278171   5.613   4.598   1.397  0.6516  0.0679  0.0619
18919TIP3    H178172   5.523   4.575   1.420  0.5663  1.1977  0.9668
18919TIP3    H278173   5.659   4.599   1.481  1.0987  1.1442 -0.1853
18920TIP3   OH278174   3.502   0.521   0.514 -0.2456  0.3525  0.4387
18920TIP3    H178175   3.415   0.482   0.517  0.3210 -1.1121 -1.0405
18920TIP3    H278176   3.487   0.613   0.536 -1.8996 -0.2138  1.9469
18921TIP3   OH278177   1.538   4.138   0.943 -0.1106 -1.0604 -0.4096
18921TIP3    H178178   1.575   4.142   0.855 -1.0074 -0.7190 -0.7865
18921TIP3    H278179   1.503   4.226   0.958  0.2920 -1.0303  0.4111
18922TIP3   OH278180   2.065   5.273   4.881  0.0809 -0.1941  0.1376
18922TIP3    H178181   2.104   5.186   4.890  0.1591 -0.3514 -1.4023
18922TIP3    H278182   2.043   5.280   4.788  0.5177  1.6270  0.1322
18923TIP3   OH278183   2.139   3.564   1.993  0.2588 -0.3402  0.1512
18923TIP3    H178184   2.214   3.506   1.979  0.3879 -0.5942  1.7315
18923TIP3    H278185   2.119   3.599   1.906  0.3305 -2.5634 -0.8280
18924TIP3   OH278186   6.051   1.395   6.357 -0.0331 -0.0508  0.3155
18924TIP3    H178187   6.112   1.324   6.337  0.7435  0.7841 -0.4152
18924TIP3    H278188   6.034   1.436   6.272 -0.1403  0.8714  0.7693
18925TIP3   OH278189   6.232   2.786   2.588 -0.3671 -0.5305 -0.2567
18925TIP3    H178190   6.236   2.694   2.615  1.2445 -1.4726 -3.2080
18925TIP3    H278191   6.143   2.798   2.555 -1.0318 -0.5457  1.4212
18926TIP3   OH278192   2.696   4.734  14.668  0.3966  0.4463  0.5764
18926TIP3    H178193   2.739   4.742  14.583  0.1791  1.1696  0.5325
18926TIP3    H278194   2.763   4.696  14.725  0.3563 -0.6232 -0.0527
18927TIP3   OH278195   0.762   0.117  14.682  0.1690 -0.0212 -0.4323
18927TIP3    H178196   0.808   0.063  14.617 -0.6389  1.9236 -2.7512
18927TIP3    H278197   0.785   0.207  14.660 -0.5303  0.7683  1.7328
18928TIP3   OH278198   5.223   6.391  16.819  0.5927  0.3263 -0.1751
18928TIP3    H178199   5.158   6.357  16.881  0.7624 -0.9803 -0.6754
18928TIP3    H278200   5.173   6.449  16.761 -0.0669 -0.3872 -0.3339
18929TIP3   OH278201   3.344   4.366  14.481  1.1095 -0.6652 -0.1145
18929TIP3    H178202   3.345   4.461  14.470 -2.2342 -0.6021 -0.8188
18929TIP3    H278203   3.366   4.332  14.394  1.0542 -0.5333 -0.1796
18930TIP3   OH278204   1.967   2.394   5.079 -0.2631  0.3370  0.2468
18930TIP3    H178205   1.886   2.398   5.130 -0.3030 -1.3045  0.3649
18930TIP3    H278206   1.960   2.313   5.029  1.3474  0.1082  0.3337
18931TIP3   OH278207   2.232   0.289   3.769  0.0489 -0.3268  0.4819
18931TIP3    H178208   2.283   0.297   3.689  1.2179  1.0191  1.3195
18931TIP3    H278209   2.197   0.200   3.767  0.8180 -0.6119 -1.0648
18932TIP3   OH278210   5.404   0.699   2.994  0.0926 -0.6298  0.1633
18932TIP3    H178211   5.492   0.692   2.956 -0.3462  2.0502 -1.6518
18932TIP3    H278212   5.417   0.687   3.088  2.5003  0.1067  0.0026
18933TIP3   OH278213   4.420   4.568  14.592  0.1616 -0.0489  0.5088
18933TIP3    H178214   4.444   4.487  14.547 -1.4441 -0.7669  0.8861
18933TIP3    H278215   4.437   4.550  14.684 -2.0999 -0.7383  0.8402
18934TIP3   OH278216   0.126   1.498  16.006  0.4802 -0.5429 -0.8389
18934TIP3    H178217   0.190   1.488  15.936 -0.8191  0.7651 -2.2743
18934TIP3    H278218   0.046   1.528  15.963 -0.4289  0.1516  1.1713
18935TIP3   OH278219   4.545   0.729   2.314 -0.5790  0.3962  0.0500
18935TIP3    H178220   4.455   0.762   2.320 -1.1963 -1.2083  0.1844
18935TIP3    H278221   4.548   0.658   2.378  0.5315 -0.1163 -0.5474
18936TIP3   OH278222   2.748   2.010  11.469 -0.7463  0.6085  0.5781
18936TIP3    H178223   2.836   1.989  11.438 -1.3404 -0.3893 -0.5389
18936TIP3    H278224   2.746   2.106  11.471 -0.2904  0.7191 -1.4995
18937TIP3   OH278225   5.889   2.922  13.056  0.8025  0.4194  0.0456
18937TIP3    H178226   5.951   2.993  13.065  0.9920  0.2230  0.2849
18937TIP3    H278227   5.803   2.965  13.054  0.9185  0.6540  0.1280
18938TIP3   OH278228   5.156   4.582   3.979 -0.0098 -0.7547  0.4490
18938TIP3    H178229   5.217   4.525   4.027  0.9214 -0.1152  0.0613
18938TIP3    H278230   5.159   4.550   3.889  0.8548  0.1441  0.1357
18939TIP3   OH278231   6.641   4.246  16.724 -0.0616 -0.1661  0.1814
18939TIP3    H178232   6.590   4.206  16.654  0.0709 -0.2312  0.1219
18939TIP3    H278233   6.706   4.300  16.678 -1.2547  1.4153  0.2671
18940TIP3   OH278234   4.074   2.690  10.674  0.4748 -0.9142 -0.4274
18940TIP3    H178235   4.034   2.677  10.588  1.9655 -1.4914 -1.0596
18940TIP3    H278236   4.104   2.781  10.674 -0.1203 -0.7119 -0.2445
18941TIP3   OH278237   5.625   2.198  11.627  0.0192  0.6791  0.4065
18941TIP3    H178238   5.659   2.250  11.553  0.3045  0.1664  0.1701
18941TIP3    H278239   5.669   2.234  11.704 -1.0348  1.8942  0.4766
18942TIP3   OH278240   6.437   4.312   4.542 -0.1390  0.3475  0.5041
18942TIP3    H178241   6.363   4.271   4.498 -1.0854  1.1484  1.2768
18942TIP3    H278242   6.484   4.359   4.473  1.4169 -2.5267 -0.5388
18943TIP3   OH278243   6.424   0.778   4.244  0.1510  0.1016  0.4683
18943TIP3    H178244   6.457   0.800   4.156 -0.6249 -2.6374 -0.6158
18943TIP3    H278245   6.477   0.703   4.271 -0.9166 -0.3050  1.4951
18944TIP3   OH278246   1.296   5.747  11.495  0.1783 -0.9138 -0.4979
18944TIP3    H178247   1.375   5.716  11.451  0.0085 -2.0813 -0.0206
18944TIP3    H278248   1.227   5.687  11.465 -0.0829 -1.2544  0.7526
18945TIP3   OH278249   0.220   0.884   5.274  0.1919 -0.2629  0.4407
18945TIP3    H178250   0.202   0.944   5.347  0.7894  2.5886 -1.5734
18945TIP3    H278251   0.314   0.866   5.281  0.9909  2.5806 -1.2264
18946TIP3   OH278252   1.846   0.329   0.994 -0.0214 -0.5239 -0.0094
18946TIP3    H178253   1.794   0.265   1.042  0.9358 -1.7199 -0.5154
18946TIP3    H278254   1.819   0.414   1.030 -1.9657 -1.1189  0.0443
18947TIP3   OH278255   3.681   3.327  14.335  0.0650 -0.2782  0.7490
18947TIP3    H178256   3.588   3.331  14.313  0.3633  1.3940 -0.3443
18947TIP3    H278257   3.699   3.234  14.344 -1.3142 -0.7333 -0.7691
18948TIP3   OH278258   1.527   1.201   2.478 -0.7913 -0.0263 -0.1394
18948TIP3    H178259   1.575   1.268   2.429  0.5710 -1.0634 -0.2945
18948TIP3    H278260   1.583   1.124   2.473 -2.3987 -1.2406 -0.1127
18949TIP3   OH278261   1.872   2.931   4.837  0.2978  0.2332 -0.4707
18949TIP3    H178262   1.844   2.980   4.914  0.5439  1.0025 -0.8681
18949TIP3    H278263   1.907   2.997   4.777  4.0626 -0.7494  0.3996
18950TIP3   OH278264   4.498   2.784   0.829 -0.1380 -0.2139  0.4307
18950TIP3    H178265   4.420   2.839   0.836  0.2849  0.1897  2.5979
18950TIP3    H278266   4.465   2.695   0.841 -0.2581 -0.0253  1.5752
18951TIP3   OH278267   0.368   6.694  13.540  0.0559 -0.5689  0.0557
18951TIP3    H178268   0.445   6.640  13.558  0.1018 -0.3927  0.3913
18951TIP3    H278269   0.330   6.711  13.626 -0.1257 -0.3098 -0.0749
18952TIP3   OH278270   2.489   2.424   0.776  0.0935 -0.4312 -0.0210
18952TIP3    H178271   2.430   2.379   0.716 -1.2575 -0.0850  0.9861
18952TIP3    H278272   2.466   2.389   0.862 -1.4058  2.4472  0.8957
18953TIP3   OH278273   2.535   2.403  13.286  0.1241 -0.1715 -0.4532
18953TIP3    H178274   2.561   2.315  13.314  0.5056  0.6216  1.8900
18953TIP3    H278275   2.488   2.440  13.361 -2.1823  0.8056 -2.2402
18954TIP3   OH278276   6.227   4.036   6.295  0.3595  0.0292 -0.4413
18954TIP3    H178277   6.262   3.987   6.370 -0.8117 -0.1110  0.0410
18954TIP3    H278278   6.138   4.002   6.284  0.6612 -0.2613 -2.1843
18955TIP3   OH278279   2.147   5.364   2.899  0.3286 -0.3584 -0.3180
18955TIP3    H178280   2.194   5.280   2.894 -1.5022 -1.3797 -1.7357
18955TIP3    H278281   2.056   5.340   2.912 -0.3968  1.3660 -1.7822
18956TIP3   OH278282   1.903   4.834  15.118 -0.0686  0.2663 -0.5200
18956TIP3    H178283   1.896   4.893  15.193 -0.6345  1.9109 -1.7901
18956TIP3    H278284   1.987   4.856  15.077 -0.5477  0.6289 -1.3346
18957TIP3   OH278285   3.890   3.821   1.326  0.3419 -0.5131 -0.0068
18957TIP3    H178286   3.812   3.835   1.380 -0.1621 -1.2288 -0.5243
18957TIP3    H278287   3.942   3.900   1.339 -0.7106  0.2177 -0.0563
18958TIP3   OH278288   3.371   1.137   0.162  0.0182  0.6592 -0.5820
18958TIP3    H178289   3.391   1.203   0.228  0.0788  0.2691 -0.2055
18958TIP3    H278290   3.299   1.175   0.111 -1.0808  0.3324  0.6730
18959TIP3   OH278291   3.040   1.647   1.978 -0.1853  0.0086 -1.0395
18959TIP3    H178292   3.120   1.594   1.980 -0.2471 -0.2865 -3.1912
18959TIP3    H278293   2.969   1.583   1.970 -1.1702 -0.0078  4.4475
18960TIP3   OH278294   3.748   2.651  12.428  0.0337 -0.8193 -0.0774
18960TIP3    H178295   3.659   2.685  12.421  0.4334  0.4848  0.9274
18960TIP3    H278296   3.751   2.609  12.514  0.1763 -1.5739 -0.4375
18961TIP3   OH278297   1.978   3.978   0.285 -0.6358 -0.1977 -0.2018
18961TIP3    H178298   1.894   4.009   0.318 -0.8815  0.2068 -1.1822
18961TIP3    H278299   1.985   4.015   0.197  1.6059  1.7154  0.6787
18962TIP3   OH278300   0.367   3.532   5.984  0.0171 -0.3137 -0.2636
18962TIP3    H178301   0.456   3.563   5.968 -0.2049  1.1876  1.1496
18962TIP3    H278302   0.376   3.470   6.056  0.0982 -1.3554 -1.1582
18963TIP3   OH278303   4.806   6.500   0.948 -0.3361  0.3890 -0.1377
18963TIP3    H178304   4.767   6.554   0.880 -0.4114  2.3397  1.3831
18963TIP3    H278305   4.781   6.542   1.030 -0.1954 -1.8438  1.1384
18964TIP3   OH278306   5.853   6.548   1.027  0.4851  0.2147  0.0135
18964TIP3    H178307   5.806   6.581   1.103 -0.5257  0.2282 -0.5963
18964TIP3    H278308   5.919   6.488   1.063 -2.3669 -2.7540  0.7690
18965TIP3   OH278309   4.413   6.637  10.546 -0.6129 -0.1781 -0.0302
18965TIP3    H178310   4.491   6.593  10.578  0.5149  0.1862 -2.0757
18965TIP3    H278311   4.340   6.586  10.581  0.5669 -1.4986  0.6047
18966TIP3   OH278312   3.771   6.610   0.062 -0.2514 -0.1464 -0.2542
18966TIP3    H178313   3.807   6.697   0.080 -0.4126  0.2429 -1.6717
18966TIP3    H278314   3.845   6.550   0.075 -0.2011  0.1474  0.9843
18967TIP3   OH278315   2.316   6.209  10.602  0.3162  0.1317 -0.2540
18967TIP3    H178316   2.348   6.141  10.662  0.0028  1.3486  1.3576
18967TIP3    H278317   2.221   6.205  10.610  0.1856 -0.6820 -1.8513
18968TIP3   OH278318   0.374   4.122   6.064 -0.1423  0.1903 -0.2059
18968TIP3    H178319   0.361   4.203   6.115  0.1929  0.2192 -0.1647
18968TIP3    H278320   0.460   4.132   6.025 -0.4355  0.2041 -0.8549
18969TIP3   OH278321   6.606   1.771  14.363 -0.1796  0.1405  0.3237
18969TIP3    H178322   6.550   1.775  14.441  0.7600  0.1616  1.0107
18969TIP3    H278323   6.645   1.684  14.366 -1.7590 -0.7063 -1.3060
18970TIP3   OH278324   0.512   4.806  15.229 -0.4364  0.1330 -0.1041
18970TIP3    H178325   0.448   4.764  15.172 -0.6197  1.2007 -0.7062
18970TIP3    H278326   0.587   4.824  15.173 -0.9183  1.9100 -0.2585
18971TIP3   OH278327   3.529   6.247   4.057  0.0893 -0.3107 -0.1461
18971TIP3    H178328   3.474   6.217   3.985 -1.3275 -0.8554  1.0992
18971TIP3    H278329   3.566   6.330   4.027 -1.7561  0.2905 -0.8902
18972TIP3   OH278330   6.575   5.992  15.793  0.1136 -0.1509  0.4599
18972TIP3    H178331   6.593   5.942  15.873 -1.5307 -1.5487  0.0085
18972TIP3    H278332   6.594   6.082  15.817 -0.4594 -0.5136  2.4861
18973TIP3   OH278333   6.522   6.002  13.486  0.4769  0.7918  0.2830
18973TIP3    H178334   6.520   6.042  13.573 -0.4473  0.9604  0.2023
18973TIP3    H278335   6.537   5.910  13.503  0.6928  0.8826  0.6021
18974TIP3   OH278336   4.488   5.332  14.524 -0.3140  0.0940  0.6951
18974TIP3    H178337   4.515   5.360  14.437  0.0563 -0.0920  0.7494
18974TIP3    H278338   4.553   5.371  14.583 -1.6872  1.9368  1.0987
18975TIP3   OH278339   5.377   0.713  12.315 -0.4316 -0.0675 -0.1559
18975TIP3    H178340   5.326   0.721  12.235 -2.0657 -1.8286  0.6188
18975TIP3    H278341   5.360   0.794  12.363 -1.3319 -0.0128 -0.5551
18976TIP3   OH278342   6.732   5.852  12.064 -0.0250 -0.1152  0.0558
18976TIP3    H178343   6.804   5.829  12.005  0.1685 -0.2238  0.3360
18976TIP3    H278344   6.759   5.934  12.104 -0.6018  0.4909 -0.7509
18977TIP3   OH278345   2.119   6.340  16.164 -0.2665  0.0505 -0.7450
18977TIP3    H178346   2.061   6.372  16.095 -0.1037 -0.0131 -0.9151
18977TIP3    H278347   2.204   6.329  16.120  0.0852  0.9420 -0.3068
18978TIP3   OH278348   2.936   4.483   5.847 -0.2868  0.3624 -0.2103
18978TIP3    H178349   2.909   4.453   5.760 -0.7143  0.3580 -0.0768
18978TIP3    H278350   2.909   4.413   5.906  2.4480 -0.9431 -0.3564
18979TIP3   OH278351   6.666   2.744  17.002 -0.5181  0.2286  0.9494
18979TIP3    H178352   6.754   2.780  17.019  0.8293 -2.2062 -0.3916
18979TIP3    H278353   6.650   2.761  16.909 -1.0613 -0.1906  0.9623
18980TIP3   OH278354   5.828   4.359  16.426  0.2456 -0.4258  0.1445
18980TIP3    H178355   5.790   4.326  16.507 -2.1397  0.7593 -0.3957
18980TIP3    H278356   5.921   4.372  16.446 -0.3917  0.4982  2.9053
18981TIP3   OH278357   3.679   0.446  10.584  0.2202 -0.1179 -0.4820
18981TIP3    H178358   3.600   0.447  10.530 -0.8378 -1.8649  0.9387
18981TIP3    H278359   3.738   0.509  10.541 -1.5678  0.5528 -2.0936
18982TIP3   OH278360   2.823   3.121   4.557 -0.0399  0.0357  0.5832
18982TIP3    H178361   2.855   3.063   4.626 -1.1684 -0.4226  0.7494
18982TIP3    H278362   2.819   3.207   4.597  0.1082 -0.0728  0.8341
18983TIP3   OH278363   4.283   3.458   3.222 -0.2681 -0.3886 -0.4608
18983TIP3    H178364   4.271   3.372   3.181  0.8503 -2.5057  3.1520
18983TIP3    H278365   4.251   3.446   3.312  0.8166  2.7276  0.4668
18984TIP3   OH278366   2.168   0.885  11.688 -0.0223 -0.3138 -0.0617
18984TIP3    H178367   2.150   0.836  11.608 -0.5672 -0.9255  0.4195
18984TIP3    H278368   2.089   0.936  11.704  0.9010  1.5327 -1.0890
18985TIP3   OH278369   5.272   6.075   5.074  0.0648 -0.4597 -0.3136
18985TIP3    H178370   5.274   6.089   4.979 -1.1279 -1.7940 -0.5752
18985TIP3    H278371   5.315   6.153   5.110  0.0155  0.3679 -1.9126
18986TIP3   OH278372   0.125   3.307   5.543  0.7606 -0.1618  0.0733
18986TIP3    H178373   0.058   3.374   5.526 -0.5675 -0.7589  2.4216
18986TIP3    H278374   0.107   3.238   5.479 -0.9263 -0.2862  0.6144
18987TIP3   OH278375   6.676   3.245  14.574 -0.6519 -0.0352  0.0485
18987TIP3    H178376   6.693   3.288  14.658 -2.0346  1.0496 -0.1951
18987TIP3    H278377   6.756   3.257  14.524  0.1542 -0.5962  1.1512
18988TIP3   OH278378   3.999   4.500   4.673 -0.0440 -0.0632 -0.3794
18988TIP3    H178379   3.937   4.470   4.607  2.0657 -3.2437 -1.1714
18988TIP3    H278380   4.085   4.490   4.632  1.2087  0.3136  1.9550
18989TIP3   OH278381   6.284   2.512   2.599 -0.1793 -0.1846  0.3737
18989TIP3    H178382   6.293   2.422   2.629 -0.6222 -0.6210 -0.7705
18989TIP3    H278383   6.331   2.515   2.515 -2.9226 -0.2391 -1.2710
18990TIP3   OH278384   0.379   5.666  11.369  0.3773  0.8867 -0.1060
18990TIP3    H178385   0.466   5.627  11.378 -0.3160 -0.9602 -0.9921
18990TIP3    H278386   0.358   5.658  11.276 -1.7926 -1.2185  0.4596
18991TIP3   OH278387   1.529   2.764  12.308  0.1250 -0.1685  0.0154
18991TIP3    H178388   1.451   2.815  12.287 -0.7495  0.0844  3.2304
18991TIP3    H278389   1.597   2.829  12.325  0.2170 -0.2472 -0.0535
18992TIP3   OH278390   6.085   0.535   4.029  0.1744  0.1344 -0.2566
18992TIP3    H178391   6.170   0.511   4.065  0.1361  2.4849  1.6515
18992TIP3    H278392   6.101   0.617   3.982 -0.8275 -0.0383 -0.9360
18993TIP3   OH278393   4.836   5.844  16.710  0.4177  0.0230  0.1692
18993TIP3    H178394   4.826   5.904  16.784  1.0333 -0.2504  0.4810
18993TIP3    H278395   4.791   5.764  16.737 -0.6034  0.4166 -0.3400
18994TIP3   OH278396   0.849   2.255  13.546 -0.3308  0.2521  0.2001
18994TIP3    H178397   0.937   2.238  13.579  0.3319  0.3962 -1.4221
18994TIP3    H278398   0.860   2.326  13.484 -1.8022  1.0898  0.8499
18995TIP3   OH278399   5.091   0.556  12.233 -0.8038  0.4654 -0.1743
18995TIP3    H178400   5.152   0.520  12.168 -0.5688  3.2151 -1.6121
18995TIP3    H278401   5.028   0.486  12.248  0.8686 -1.3342 -1.0621
18996TIP3   OH278402   0.437   2.874   1.056  0.0049  0.3030  0.0575
18996TIP3    H178403   0.527   2.904   1.046  0.5412 -0.5529  1.7767
18996TIP3    H278404   0.414   2.835   0.971  2.2182 -1.8076  0.3083
18997TIP3   OH278405   4.447   4.664   3.788  0.0732 -0.8137  0.2685
18997TIP3    H178406   4.424   4.617   3.708  2.2851 -1.8548  0.1708
18997TIP3    H278407   4.432   4.600   3.858  0.3377 -0.6805  0.4468
18998TIP3   OH278408   3.901   2.274  16.332  0.0669  0.0986  1.1472
18998TIP3    H178409   3.832   2.281  16.398 -0.5003  0.4812  0.5224
18998TIP3    H278410   3.983   2.273  16.383 -0.4110 -1.0143  1.9298
18999TIP3   OH278411   3.519   0.363   3.007  0.1490 -0.1646  0.3149
18999TIP3    H178412   3.545   0.423   3.077  2.1206 -0.2015 -0.3142
18999TIP3    H278413   3.588   0.296   3.007  1.9320  1.3607 -3.4778
19000TIP3   OH278414   2.273   1.811   4.009  0.2620  0.1232  0.4586
19000TIP3    H178415   2.361   1.848   4.019  0.8124 -0.9154 -0.3034
19000TIP3    H278416   2.268   1.788   3.916 -0.4445 -0.7341  0.6976
19001TIP3   OH278417   4.179   0.458   5.470 -0.1336 -0.1876 -0.9216
19001TIP3    H178418   4.197   0.550   5.491  0.8137 -0.7002  0.7548
19001TIP3    H278419   4.092   0.442   5.506  0.5987 -0.4856  0.8118
19002TIP3   OH278420   6.191   2.369  13.880 -0.6110  0.0256  0.0092
19002TIP3    H178421   6.282   2.397  13.868 -0.4675 -0.7992 -0.9587
19002TIP3    H278422   6.194   2.308  13.954 -0.5065  0.5976  0.4766
19003TIP3   OH278423   6.475   0.647   1.858 -0.3694 -0.8448  0.0099
19003TIP3    H178424   6.458   0.604   1.942 -1.1111  1.5195  1.1492
19003TIP3    H278425   6.399   0.625   1.804  0.0302 -2.2291 -0.0437
19004TIP3   OH278426   1.925   5.587   0.015  0.4807  0.1918 -0.1034
19004TIP3    H178427   1.831   5.602   0.011  0.4816  0.0206 -1.0372
19004TIP3    H278428   1.960   5.629  -0.065  1.6628  3.4060  1.9071
19005TIP3   OH278429   1.646   2.001  11.923  0.0126  0.3159  0.2385
19005TIP3    H178430   1.637   2.042  11.837  1.1279  2.0100  0.8647
19005TIP3    H278431   1.730   1.954  11.919  0.2280  0.6697  0.4770
19006TIP3   OH278432   0.408   1.151   5.023 -0.5159  0.0675  0.4306
19006TIP3    H178433   0.368   1.238   5.029 -1.9828 -0.4850 -0.6310
19006TIP3    H278434   0.502   1.166   5.033 -0.6780  1.8668 -0.4389
19007TIP3   OH278435   1.118   1.779  13.861  0.1184  0.2166 -0.1551
19007TIP3    H178436   1.075   1.803  13.779 -0.7762 -2.4595 -0.5673
19007TIP3    H278437   1.133   1.685  13.854  1.0265  0.0915  2.3157
19008TIP3   OH278438   2.757   2.312  15.611  0.3194 -0.7295  0.2309
19008TIP3    H178439   2.677   2.262  15.596  0.9822 -1.9202  0.4816
19008TIP3    H278440   2.741   2.396  15.568 -0.8047 -1.1816 -0.2976
19009TIP3   OH278441   2.378   3.214   2.091 -0.2789 -0.0670 -0.0505
19009TIP3    H178442   2.367   3.131   2.137  1.1141  0.2934  0.9974
19009TIP3    H278443   2.307   3.216   2.027 -2.8373 -0.2402  2.5980
19010TIP3   OH278444   5.771   2.542  11.558 -0.2974 -0.0745 -0.1380
19010TIP3    H178445   5.736   2.620  11.515  1.3063  0.0867 -1.2494
19010TIP3    H278446   5.737   2.469  11.507 -0.9233 -0.0657  0.2502
19011TIP3   OH278447   0.077   5.177  14.011  0.4856 -0.0280 -0.0436
19011TIP3    H178448   0.166   5.195  13.981  0.7637 -0.1972  0.6451
19011TIP3    H278449   0.061   5.086  13.986  0.6826 -0.1417  0.2405
19012TIP3   OH278450   0.404   6.252  16.512  0.1240 -0.1876  0.4712
19012TIP3    H178451   0.447   6.219  16.591 -0.3966 -1.0461  0.4126
19012TIP3    H278452   0.422   6.187  16.445  1.1430  0.8716 -0.3270
19013TIP3   OH278453   4.542   1.564  17.218  0.7318  0.1811 -0.0073
19013TIP3    H178454   4.614   1.586  17.159  1.5146  0.3989  0.9867
19013TIP3    H278455   4.506   1.482  17.185  0.4632  0.8259 -1.3774
19014TIP3   OH278456   0.676   0.062   4.648  0.2718 -0.3107  0.3745
19014TIP3    H178457   0.625   0.084   4.726  0.3785  1.7950 -0.0953
19014TIP3    H278458   0.613   0.021   4.589 -0.6802  1.3035  0.2182
19015TIP3   OH278459   1.337   4.691   6.150  0.3783  0.5670  0.5634
19015TIP3    H178460   1.427   4.712   6.174  0.3866  1.7010 -0.3426
19015TIP3    H278461   1.336   4.595   6.143  1.4807  0.5290  0.7029
19016TIP3   OH278462   4.152   2.589  14.405  0.2010 -0.1607  0.4722
19016TIP3    H178463   4.132   2.536  14.328  0.8600  0.0037  0.1742
19016TIP3    H278464   4.070   2.594  14.453 -1.0354  2.1914 -1.6849
19017TIP3   OH278465   3.104   5.197  12.877 -0.6164  0.0507  0.2602
19017TIP3    H178466   3.078   5.110  12.847 -1.3289  0.9645 -2.0189
19017TIP3    H278467   3.199   5.194  12.878 -0.4734  0.1090 -2.9629
19018TIP3   OH278468   3.960   0.737  12.698  0.7890  0.3741 -0.1720
19018TIP3    H178469   4.021   0.734  12.772 -0.8014 -2.2212  1.1922
19018TIP3    H278470   3.998   0.681  12.632 -1.4233 -4.3374  2.0564
19019TIP3   OH278471   3.134   4.066   1.267  0.2069  0.2274  0.0094
19019TIP3    H178472   3.229   4.051   1.269 -0.1068 -2.0699  2.6809
19019TIP3    H278473   3.104   4.015   1.192  0.9923  0.4258 -0.4560
19020TIP3   OH278474   0.664   4.765  12.152 -0.5993 -0.3078  0.1005
19020TIP3    H178475   0.658   4.860  12.162 -1.3332 -0.3843  0.4718
19020TIP3    H278476   0.679   4.733  12.240  1.1364 -0.4520 -0.2168
19021TIP3   OH278477   3.126   3.570  12.332  0.6028  0.0709 -0.3565
19021TIP3    H178478   3.165   3.485  12.314  0.0860 -0.5963  1.5170
19021TIP3    H278479   3.148   3.588  12.423 -0.8398  1.1007 -0.1812
19022TIP3   OH278480   0.829   3.174  11.498  0.3130  0.4456 -0.0893
19022TIP3    H178481   0.821   3.092  11.546  0.6502 -1.1960 -2.6729
19022TIP3    H278482   0.903   3.219  11.540 -0.5442 -0.0178  2.0336
19023TIP3   OH278483   6.391   3.176   2.238  0.2174  0.1111  0.0390
19023TIP3    H178484   6.388   3.125   2.319 -0.5603  2.3741  1.5269
19023TIP3    H278485   6.301   3.178   2.207  0.5274 -0.8434 -1.0069
19024TIP3   OH278486   5.605   3.843  14.574 -0.0069  0.1652 -0.5407
19024TIP3    H178487   5.603   3.909  14.644  1.7503 -0.9292  0.6360
19024TIP3    H278488   5.669   3.778  14.605  1.0901 -0.2149 -3.3314
19025TIP3   OH278489   1.538   1.163   1.858  0.1219 -0.3888 -0.2089
19025TIP3    H178490   1.462   1.133   1.907 -0.8168  0.2305 -1.2447
19025TIP3    H278491   1.534   1.115   1.775  0.3242  0.3300 -0.6466
19026TIP3   OH278492   0.127   4.634   0.602  0.1282  0.2609  0.4363
19026TIP3    H178493   0.181   4.708   0.574  3.1895 -2.2686 -0.8927
19026TIP3    H278494   0.056   4.631   0.538  0.9539  1.0305 -0.5647
19027TIP3   OH278495   3.780   6.485  13.198 -0.0715  0.1799  0.5627
19027TIP3    H178496   3.756   6.503  13.107 -2.4137 -0.4961  0.9697
19027TIP3    H278497   3.733   6.552  13.249 -2.4594 -2.0249  1.5086
19028TIP3   OH278498   3.060   2.001   6.450 -0.7809 -0.9135 -0.2310
19028TIP3    H178499   3.156   2.003   6.459 -0.6075  1.3673 -1.7414
19028TIP3    H278500   3.045   1.963   6.364 -0.9587  2.0756 -1.6365
19029TIP3   OH278501   5.496   1.746  13.033  0.7815 -0.4401 -0.1848
19029TIP3    H178502   5.453   1.720  12.951  0.6851 -1.0018  0.0397
19029TIP3    H278503   5.481   1.672  13.092  1.0833 -0.1511  0.2546
19030TIP3   OH278504   2.363   5.990   0.373 -0.1648 -0.2881 -0.0847
19030TIP3    H178505   2.369   5.901   0.339  0.5501 -0.2392 -0.1107
19030TIP3    H278506   2.273   6.016   0.356  0.0926 -0.3672 -1.7362
19031TIP3   OH278507   4.114   3.691  13.738  0.1299  0.9276 -0.5220
19031TIP3    H178508   4.203   3.670  13.765  0.7328  1.7270 -1.7956
19031TIP3    H278509   4.059   3.657  13.809  1.3833 -0.1838 -0.0365
19032TIP3   OH278510   4.833   4.798   3.804  0.1230 -0.1945 -0.2487
19032TIP3    H178511   4.746   4.794   3.765  0.1417 -0.2695 -0.2815
19032TIP3    H278512   4.832   4.878   3.857  0.8675  1.1984 -2.2297
19033TIP3   OH278513   1.609   2.147  11.677  0.1824  0.1876  0.7083
19033TIP3    H178514   1.672   2.079  11.653  0.1717 -0.3071  2.0244
19033TIP3    H278515   1.611   2.208  11.603  0.9031 -0.7324 -0.0612
19034TIP3   OH278516   1.321   4.842   1.673 -0.7975  0.4361  0.5336
19034TIP3    H178517   1.377   4.856   1.750  1.5699  2.1677 -1.3426
19034TIP3    H278518   1.379   4.859   1.599 -3.0012 -1.0845 -1.6751
19035TIP3   OH278519   4.296   0.608   4.838 -0.5089 -0.2391 -0.5559
19035TIP3    H178520   4.346   0.559   4.773 -0.5231 -0.3012 -0.5193
19035TIP3    H278521   4.221   0.552   4.858 -1.2764  0.3914 -1.5482
19036TIP3   OH278522   1.296   1.768  16.449  0.1897 -0.5746 -0.4806
19036TIP3    H178523   1.234   1.841  16.448 -0.4498 -1.0734  0.5858
19036TIP3    H278524   1.304   1.742  16.357  1.1763  1.4313 -1.0088
19037TIP3   OH278525   1.709   6.647   1.877  0.5029 -0.1506  0.1088
19037TIP3    H178526   1.663   6.719   1.920 -0.6680 -1.0107  0.3389
19037TIP3    H278527   1.723   6.678   1.788  2.3288  1.3740  0.8459
19038TIP3   OH278528   0.118   1.414  14.660 -0.3807 -0.3959  0.7871
19038TIP3    H178529   0.114   1.424  14.755 -1.8780 -0.4916  0.7576
19038TIP3    H278530   0.026   1.416  14.632 -0.0861 -2.2831 -0.4567
19039TIP3   OH278531   4.236   2.598  14.777 -0.5169  0.5353 -0.2232
19039TIP3    H178532   4.322   2.562  14.797 -0.8020  0.4642  1.0021
19039TIP3    H278533   4.246   2.639  14.691  0.1666 -1.2652 -1.0457
19040TIP3   OH278534   2.890   4.115  12.659  0.0883 -0.2056  0.5667
19040TIP3    H178535   2.851   4.193  12.620 -1.1038 -0.7753  0.5717
19040TIP3    H278536   2.817   4.070  12.702  0.9723 -0.7079  1.6069
19041TIP3   OH278537   6.183   3.538  11.321 -0.3399  0.1193 -0.0894
19041TIP3    H178538   6.176   3.454  11.276  1.6103 -0.7243  1.0001
19041TIP3    H278539   6.191   3.603  11.252  2.3335 -1.0964 -1.0551
19042TIP3   OH278540   1.319   0.898   0.924 -0.7312 -0.4128  0.2477
19042TIP3    H178541   1.307   0.836   0.996 -0.0882  0.9663  1.6225
19042TIP3    H278542   1.277   0.978   0.956  0.2434  0.4554 -0.5802
19043TIP3   OH278543   2.207   3.585  12.067 -0.1100 -0.6993 -0.2629
19043TIP3    H178544   2.289   3.605  12.111 -0.3886 -0.5105  0.1824
19043TIP3    H278545   2.140   3.599  12.134 -0.7804  1.8897 -1.3450
19044TIP3   OH278546   3.983   0.950   6.726  0.2937 -0.2108  0.0457
19044TIP3    H178547   4.033   0.872   6.750 -0.4030 -0.9186 -0.7055
19044TIP3    H278548   4.042   1.023   6.745  1.7113 -1.0203 -1.0059
19045TIP3   OH278549   4.627   4.163   4.260  0.1211 -0.6717 -0.2857
19045TIP3    H178550   4.627   4.128   4.349  0.2547  0.7707  0.3113
19045TIP3    H278551   4.576   4.100   4.209  0.1966 -1.6132  0.7637
19046TIP3   OH278552   3.416   4.245   2.029 -0.2508 -0.4874 -0.4656
19046TIP3    H178553   3.400   4.335   2.055  1.1876 -0.1702 -0.5559
19046TIP3    H278554   3.474   4.210   2.097  1.0668 -0.5984 -1.5807
19047TIP3   OH278555   4.153   3.938   5.296  0.4395 -0.2871  0.5368
19047TIP3    H178556   4.176   3.860   5.247  0.0121 -0.2277  0.2386
19047TIP3    H278557   4.233   3.962   5.341  0.5360 -0.9883  0.7574
19048TIP3   OH278558   4.667   0.470  12.189 -0.1997  0.4532  0.0228
19048TIP3    H178559   4.580   0.432  12.200  0.0973 -0.5539 -0.9475
19048TIP3    H278560   4.724   0.418  12.246 -0.0072  0.2206 -0.3746
19049TIP3   OH278561   2.786   1.172   2.479 -0.1154  0.2198  0.6522
19049TIP3    H178562   2.800   1.249   2.534  2.0608  1.0013 -0.8359
19049TIP3    H278563   2.718   1.197   2.418 -1.5009 -0.1342  1.9992
19050TIP3   OH278564   0.459   4.979   4.861  0.3070  0.6502  0.0018
19050TIP3    H178565   0.493   5.043   4.924  1.9186 -0.5691  0.4223
19050TIP3    H278566   0.469   4.895   4.905 -0.2300 -0.0614 -1.2044
19051TIP3   OH278567   0.568   4.441   5.963 -0.3149  0.1350 -0.6363
19051TIP3    H178568   0.657   4.466   5.939  0.3297 -1.7047 -0.3742
19051TIP3    H278569   0.566   4.447   6.059  0.0685 -1.3311 -0.5092
19052TIP3   OH278570   6.008   3.541   2.762  0.0819  0.1010  0.4927
19052TIP3    H178571   6.038   3.574   2.846  1.4021  1.3288 -0.4070
19052TIP3    H278572   5.957   3.613   2.725  0.8239  0.1824 -0.4029
19053TIP3   OH278573   2.253   3.064  11.852  0.1927 -0.2939  0.6573
19053TIP3    H178574   2.278   3.042  11.942  3.5500 -2.9331 -0.6689
19053TIP3    H278575   2.270   2.983  11.802 -2.5632  0.6897 -2.2439
19054TIP3   OH278576   2.810   2.729  13.415  0.2856 -0.1502  1.0874
19054TIP3    H178577   2.820   2.824  13.412  1.9604 -0.3217 -0.3469
19054TIP3    H278578   2.834   2.704  13.505  1.8806  0.6107  0.8964
19055TIP3   OH278579   2.047   0.333  16.339  0.7725 -0.4072  0.2703
19055TIP3    H178580   2.140   0.341  16.363  1.1748 -0.7963 -1.0389
19055TIP3    H278581   2.023   0.244  16.364  0.4237  0.0561  1.6278
19056TIP3   OH278582   6.421   2.132  16.933  0.6608 -0.0355  0.4791
19056TIP3    H178583   6.391   2.156  16.846  1.6794  0.9882  0.3846
19056TIP3    H278584   6.351   2.077  16.968 -0.3296  0.5527 -0.5065
19057TIP3   OH278585   3.259   5.790   3.758 -0.2559 -0.2217 -0.3319
19057TIP3    H178586   3.168   5.760   3.754 -0.4128  0.2466 -0.2264
19057TIP3    H278587   3.308   5.722   3.711 -0.7287 -0.1970 -0.8706
19058TIP3   OH278588   1.518   2.446  15.507 -0.5938  0.1773  0.2307
19058TIP3    H178589   1.518   2.525  15.452 -0.2841 -0.6432 -1.0051
19058TIP3    H278590   1.466   2.383  15.457 -1.7312 -0.0795  1.7025
19059TIP3   OH278591   1.324   2.746   5.458 -0.1391  0.1267  0.0289
19059TIP3    H178592   1.243   2.707   5.491 -0.7471  1.5347  0.2618
19059TIP3    H278593   1.380   2.751   5.535  0.7113 -2.0342 -0.3722
19060TIP3   OH278594   4.505   1.405   4.114 -0.1187 -0.4624 -0.2325
19060TIP3    H178595   4.415   1.376   4.096 -0.3754 -0.6867  1.2658
19060TIP3    H278596   4.543   1.334   4.165  1.0883 -0.5715 -1.2556
19061TIP3   OH278597   3.881   2.997   2.381  0.2024 -0.2160 -0.1942
19061TIP3    H178598   3.800   3.031   2.417 -0.6718 -0.8412 -1.4876
19061TIP3    H278599   3.854   2.931   2.318  1.7861 -2.2996  1.1657
19062TIP3   OH278600   1.736   2.012  15.863  0.5104  0.5376 -0.6567
19062TIP3    H178601   1.695   1.934  15.901  0.3982  0.2498 -1.3545
19062TIP3    H278602   1.801   2.039  15.929  0.1378  0.2131 -0.1446
19063TIP3   OH278603   3.254   3.260  15.406  0.7573 -0.3087 -0.1360
19063TIP3    H178604   3.325   3.203  15.377  2.2316  1.1884  0.3632
19063TIP3    H278605   3.237   3.317  15.331  0.6767 -0.1153  0.0277
19064TIP3   OH278606   2.431   3.559  16.957  0.8840  0.3719  0.1123
19064TIP3    H178607   2.429   3.541  17.051  0.9539 -2.9790 -0.4075
19064TIP3    H278608   2.349   3.605  16.940 -0.4480 -1.3427  1.4849
19065TIP3   OH278609   4.161   0.575  10.295  0.1823  0.0315  0.1342
19065TIP3    H178610   4.222   0.649  10.289  0.9278 -0.3573  2.1243
19065TIP3    H278611   4.103   0.598  10.367  0.0889 -1.0628  0.4267
19066TIP3   OH278612   1.486   5.736   5.304 -0.4886 -0.0500 -0.2845
19066TIP3    H178613   1.392   5.757   5.307 -0.2016  1.3178  0.1432
19066TIP3    H278614   1.519   5.766   5.389  0.4588  0.1418 -0.7076
19067TIP3   OH278615   0.758   3.475  12.299  0.1612 -0.0993 -0.4800
19067TIP3    H178616   0.811   3.429  12.234  0.2436  2.2530 -2.2175
19067TIP3    H278617   0.675   3.428  12.299  0.5906 -0.9028 -1.3741
19068TIP3   OH278618   0.894   3.857   1.500  0.1461  0.1434  0.1025
19068TIP3    H178619   0.920   3.864   1.591  0.3384 -0.6757  0.1160
19068TIP3    H278620   0.907   3.945   1.464  1.9021  0.0235  0.3690
19069TIP3   OH278621   0.103   0.122  13.610  0.2683 -0.5437  0.0425
19069TIP3    H178622   0.034   0.057  13.616  1.1317 -1.4591  0.2990
19069TIP3    H278623   0.105   0.164  13.696  0.2246 -0.7195  0.1297
19070TIP3   OH278624   1.751   1.596   6.687  0.1650  0.4879  0.5917
19070TIP3    H178625   1.830   1.620   6.639  0.7284 -0.7591  0.8326
19070TIP3    H278626   1.741   1.502   6.670 -1.5260  0.7136  0.2086
19071TIP3   OH278627   3.295   6.103   1.297 -0.1708 -0.2896  0.0014
19071TIP3    H178628   3.304   6.114   1.392 -1.6556 -0.5133  0.1869
19071TIP3    H278629   3.376   6.140   1.261 -0.6122  2.0088  1.1918
19072TIP3   OH278630   6.291   1.298  13.136  0.7264 -0.5461 -0.4889
19072TIP3    H178631   6.351   1.316  13.210  1.6164  1.1616 -1.5384
19072TIP3    H278632   6.204   1.307  13.174  1.1309  2.2240  0.0684
19073TIP3   OH278633   1.371   0.435  15.074  0.4216  0.4686  0.3270
19073TIP3    H178634   1.420   0.354  15.078  0.5521  0.4890 -0.7085
19073TIP3    H278635   1.296   0.421  15.132 -1.1264 -1.4719 -1.9946
19074TIP3   OH278636   2.096   5.106  16.171 -0.1436 -0.3345 -0.3893
19074TIP3    H178637   2.004   5.081  16.180  0.3725 -1.9622  0.9331
19074TIP3    H278638   2.109   5.174  16.238 -0.7213  1.0354 -1.6272
19075TIP3   OH278639   5.321   1.972   1.941 -0.0524 -0.0495 -0.1676
19075TIP3    H178640   5.353   1.891   1.901  1.7862  0.8773 -0.7080
19075TIP3    H278641   5.298   1.947   2.031  0.7210 -1.1238 -0.2447
19076TIP3   OH278642   3.457   5.796  16.547  0.8972  0.0105 -0.0798
19076TIP3    H178643   3.466   5.840  16.632 -0.6867  0.7091 -0.2212
19076TIP3    H278644   3.374   5.830  16.513  0.4514 -1.8746 -0.9498
19077TIP3   OH278645   2.580   0.249  13.154  0.3639 -0.2471 -0.4630
19077TIP3    H178646   2.559   0.307  13.228 -0.5135  0.5375 -1.2956
19077TIP3    H278647   2.511   0.183  13.155 -0.0131  0.1386 -0.9630
19078TIP3   OH278648   0.040   6.754  15.877 -0.0865  0.3826 -0.2398
19078TIP3    H178649   0.132   6.731  15.870  0.0451  1.0903 -0.8940
19078TIP3    H278650   0.015   6.725  15.965  1.5739  2.9498  1.1990
19079TIP3   OH278651   4.732   5.328  15.226  0.2334 -1.2506 -0.1121
19079TIP3    H178652   4.775   5.341  15.311  0.7163  1.6384 -0.7104
19079TIP3    H278653   4.796   5.278  15.176  1.1793 -0.5467  0.3475
19080TIP3   OH278654   5.675   0.969  14.631 -0.1031  0.0429  0.2367
19080TIP3    H178655   5.659   0.883  14.672  0.0254 -1.0892 -1.9661
19080TIP3    H278656   5.589   1.011  14.631 -1.1250 -1.7818 -2.2072
19081TIP3   OH278657   0.753   6.213   1.811  0.6404  0.0480  0.8566
19081TIP3    H178658   0.697   6.265   1.754  1.0960 -0.8270 -0.4256
19081TIP3    H278659   0.840   6.222   1.775  0.3169 -4.6569 -1.9998
19082TIP3   OH278660   4.704   6.269   0.720  0.3125  0.4265 -0.1074
19082TIP3    H178661   4.672   6.336   0.659  0.0351  0.3692 -0.0297
19082TIP3    H278662   4.668   6.187   0.685  2.9359 -0.0939 -1.8109
19083TIP3   OH278663   6.055   1.515   6.124  0.3635  0.1568 -0.1973
19083TIP3    H178664   6.126   1.528   6.061  0.4968  0.1132 -0.0540
19083TIP3    H278665   6.005   1.597   6.120  0.7619  0.4230  0.1390
19084TIP3   OH278666   4.746   1.391   3.099  0.0993 -0.2012  0.1797
19084TIP3    H178667   4.731   1.484   3.117 -0.7620 -0.2816 -0.0523
19084TIP3    H278668   4.687   1.345   3.158  1.5996 -0.6772  1.3654
19085TIP3   OH278669   5.036   1.080  12.214 -0.1333 -0.3924 -0.1983
19085TIP3    H178670   5.000   1.110  12.130  0.7694 -0.4670 -0.6294
19085TIP3    H278671   5.061   0.989  12.197  0.4553 -0.2738  0.0151
19086TIP3   OH278672   6.504   4.105  14.368  0.2298 -0.4037  0.4197
19086TIP3    H178673   6.449   4.107  14.290 -0.3299  0.4514  0.8275
19086TIP3    H278674   6.511   4.012  14.389  0.7801 -0.6918 -0.9107
19087TIP3   OH278675   5.299   4.208  12.264  0.2609  0.0823 -0.3516
19087TIP3    H178676   5.211   4.182  12.235 -0.5323  1.0822  1.0383
19087TIP3    H278677   5.355   4.136  12.237 -0.8064 -0.1200 -2.1811
19088TIP3   OH278678   5.968   1.910   5.906  0.1651  0.3092  0.2964
19088TIP3    H178679   6.004   1.945   5.825  0.8906  0.2296  0.5771
19088TIP3    H278680   6.041   1.865   5.948 -0.8492 -2.0202 -0.2897
19089TIP3   OH278681   0.752   0.753   0.046 -0.3348  0.5973  0.1469
19089TIP3    H178682   0.804   0.739  -0.033 -0.5283 -2.9622  0.4675
19089TIP3    H278683   0.804   0.814   0.099  2.6890 -1.3025 -0.3537
19090TIP3   OH278684   5.902   4.138  13.296 -0.6706  0.5002  0.2507
19090TIP3    H178685   5.983   4.089  13.288 -0.6750  0.6438 -0.7680
19090TIP3    H278686   5.903   4.173  13.385  1.0994  1.7605 -0.2277
19091TIP3   OH278687   4.117   4.374   2.193 -0.0246 -0.0286 -0.1417
19091TIP3    H178688   4.186   4.369   2.127 -0.5470 -1.3484 -0.6129
19091TIP3    H278689   4.056   4.304   2.170 -2.6730  2.3754 -1.0172
19092TIP3   OH278690   6.736   1.951   4.526  0.1632 -0.2175  0.0230
19092TIP3    H178691   6.661   1.956   4.467  1.3927 -0.7187 -1.6565
19092TIP3    H278692   6.806   1.997   4.480  1.7186 -2.3054  0.1485
19093TIP3   OH278693   1.522   0.620   4.585 -0.6294  0.1737 -0.0968
19093TIP3    H178694   1.551   0.537   4.621  0.6349  1.5617  2.3944
19093TIP3    H278695   1.600   0.676   4.585 -1.9919  2.2463  1.2603
19094TIP3   OH278696   3.853   0.430  15.700 -0.3078 -0.5529  0.0608
19094TIP3    H178697   3.839   0.462  15.611 -1.3144 -1.5738 -0.1733
19094TIP3    H278698   3.773   0.382  15.721  0.3670 -1.2683  1.0893
19095TIP3   OH278699   4.478   0.934   1.494 -0.2007  0.2178 -0.4011
19095TIP3    H178700   4.444   0.860   1.545 -0.7118 -0.4965 -1.7099
19095TIP3    H278701   4.469   0.905   1.403  0.8214  1.3853 -0.8904
19096TIP3   OH278702   1.820   4.422   5.708 -0.1244 -0.2175  0.0408
19096TIP3    H178703   1.884   4.353   5.724  0.0117 -0.0425  0.2802
19096TIP3    H278704   1.782   4.440   5.795  0.0406  0.1925  0.0341
19097TIP3   OH278705   5.412   5.849  15.443  0.6061 -0.2746 -0.3244
19097TIP3    H178706   5.467   5.803  15.507 -1.5817 -0.2073  1.7540
19097TIP3    H278707   5.465   5.924  15.416  3.1665 -2.4215 -1.7438
19098TIP3   OH278708   4.255   2.791   4.573  0.2522  0.1515 -0.2009
19098TIP3    H178709   4.272   2.879   4.605  0.6956 -0.1073  0.2893
19098TIP3    H278710   4.170   2.768   4.611  0.3755  0.1725  0.0907
19099TIP3   OH278711   3.150   2.461   2.731 -0.1290 -0.1380  0.8885
19099TIP3    H178712   3.145   2.441   2.824  0.4811 -0.2187  0.9110
19099TIP3    H278713   3.230   2.417   2.701 -1.4977 -2.0404 -0.1743
19100TIP3   OH278714   0.309   5.388   0.194 -0.3959 -0.5589  0.4002
19100TIP3    H178715   0.315   5.447   0.119  0.2414 -1.1138 -0.0117
19100TIP3    H278716   0.313   5.445   0.270  0.4201 -0.0707  0.0184
19101TIP3   OH278717   5.773   3.688  12.229  0.8330  0.0833  0.8543
19101TIP3    H178718   5.747   3.741  12.304  2.5808  0.6870  1.0905
19101TIP3    H278719   5.745   3.599  12.250 -1.1189  0.6840  0.9714
19102TIP3   OH278720   0.270   3.044  14.179  0.3235 -0.1883 -0.0541
19102TIP3    H178721   0.261   2.949  14.174  0.6408 -0.2866  1.0436
19102TIP3    H278722   0.333   3.058  14.249  2.5621  0.7438 -2.1010
19103TIP3   OH278723   0.887   0.832   5.810  0.0161 -0.0645 -0.3791
19103TIP3    H178724   0.949   0.780   5.862 -0.9769 -1.1565 -0.2272
19103TIP3    H278725   0.914   0.818   5.719  1.6602  1.7153 -0.2200
19104TIP3   OH278726   1.717   2.575   4.375  0.0999 -0.1138 -0.2566
19104TIP3    H178727   1.752   2.528   4.450  1.9973 -0.8260 -1.5242
19104TIP3    H278728   1.653   2.514   4.336  2.5340 -1.7989 -1.8840
19105TIP3   OH278729   3.533   5.509   4.677  0.2229  0.2595  0.3254
19105TIP3    H178730   3.607   5.488   4.734 -0.4875  0.0299  1.1964
19105TIP3    H278731   3.470   5.438   4.694 -0.5421  0.9076  0.2473
19106TIP3   OH278732   1.323   1.687   2.653  0.2810 -0.0944 -0.5702
19106TIP3    H178733   1.382   1.753   2.617  1.2230 -0.9539 -0.6524
19106TIP3    H278734   1.330   1.613   2.593  1.9595 -1.6019  1.3515
19107TIP3   OH278735   3.523   2.017  13.928  0.0744 -0.4390 -0.4528
19107TIP3    H178736   3.553   1.970  14.006  1.3640  1.0640  0.0099
19107TIP3    H278737   3.474   2.092  13.962 -0.8423 -0.7027 -1.1487
19108TIP3   OH278738   4.595   5.193   1.926 -0.2810 -0.1529 -0.4128
19108TIP3    H178739   4.511   5.166   1.888 -0.4358  0.5202 -0.5572
19108TIP3    H278740   4.595   5.288   1.919 -0.3502  0.0002  1.3727
19109TIP3   OH278741   4.155   5.971  15.359  0.2330  0.1135 -0.1328
19109TIP3    H178742   4.138   5.932  15.273 -0.9611  0.5862 -0.1183
19109TIP3    H278743   4.069   5.985  15.397  0.7442 -1.2727  1.6968
19110TIP3   OH278744   6.318   1.826  11.520 -0.2759  0.0211 -0.2476
19110TIP3    H178745   6.258   1.870  11.581  0.7050 -0.8325  1.4000
19110TIP3    H278746   6.281   1.739  11.508  1.0373 -0.8286  1.4970
19111TIP3   OH278747   5.803   6.153   1.079  0.3296 -0.1515 -0.7353
19111TIP3    H178748   5.798   6.058   1.071  0.5961 -0.2790  0.4501
19111TIP3    H278749   5.712   6.180   1.095  0.6086 -0.5722  2.1331
19112TIP3   OH278750   0.071   4.043  16.340 -0.3179 -0.2247 -0.5189
19112TIP3    H178751   0.126   4.116  16.372 -0.6656  0.2001 -0.8811
19112TIP3    H278752   0.075   3.978  16.410  0.6845 -0.2167 -0.5565
19113TIP3   OH278753   1.199   1.434   0.108 -0.3700  0.5019 -0.0745
19113TIP3    H178754   1.168   1.500   0.046 -1.3473  1.4324  1.3101
19113TIP3    H278755   1.138   1.361   0.098 -2.0834  1.6259  1.4087
19114TIP3   OH278756   3.955   0.797  16.733  0.8994 -0.8341 -0.0101
19114TIP3    H178757   3.974   0.712  16.772  0.8547 -0.3411  1.1022
19114TIP3    H278758   4.028   0.813  16.673  0.6410 -1.8858 -0.6297
19115TIP3   OH278759   1.344   4.422   2.236 -0.1418  0.2600  0.1377
19115TIP3    H178760   1.420   4.419   2.295  0.0082 -1.5602 -0.0856
19115TIP3    H278761   1.318   4.330   2.226 -2.3917  0.8468  0.1936
19116TIP3   OH278762   3.753   6.372   4.520  0.3480 -0.1477 -0.6264
19116TIP3    H178763   3.737   6.465   4.538  0.5254 -0.2390  0.0658
19116TIP3    H278764   3.700   6.352   4.443  1.5755  0.9334 -1.7982
19117TIP3   OH278765   3.844   6.420   3.262 -0.0283  0.1639  0.5269
19117TIP3    H178766   3.842   6.398   3.169  0.6364  2.2960 -0.0464
19117TIP3    H278767   3.762   6.386   3.296 -0.7560  0.2250 -1.0718
19118TIP3   OH278768   2.409   4.692  13.015  0.1375  0.2385 -0.0413
19118TIP3    H178769   2.402   4.667  13.107 -0.5963 -1.0686 -0.4297
19118TIP3    H278770   2.329   4.741  12.997 -0.5097 -0.9026 -0.3750
19119TIP3   OH278771   1.473   1.195   4.222 -0.2726  0.2856  0.6968
19119TIP3    H178772   1.470   1.103   4.197  1.3148 -0.1391  1.9233
19119TIP3    H278773   1.440   1.242   4.145  0.1640 -1.2261 -0.4568
19120TIP3   OH278774   1.418   3.031   1.905  0.2859  0.3465  0.6250
19120TIP3    H178775   1.426   3.126   1.891 -1.6198  0.5401  0.4734
19120TIP3    H278776   1.455   3.016   1.992  1.2801  1.1032  0.3490
19121TIP3   OH278777   5.825   1.781  12.691 -0.1340  0.0705  0.2704
19121TIP3    H178778   5.884   1.761  12.618 -1.1012  0.4052 -0.6304
19121TIP3    H278779   5.873   1.846  12.743  0.3048  0.3230 -0.4373
19122TIP3   OH278780   3.154   4.812  13.706  0.0919 -0.0385  0.5258
19122TIP3    H178781   3.108   4.736  13.740 -0.1733 -0.4574 -0.6968
19122TIP3    H278782   3.245   4.798  13.730  0.1040 -0.9528 -0.0124
19123TIP3   OH278783   1.335   6.393  15.220 -0.8962  0.1680 -0.4258
19123TIP3    H178784   1.300   6.331  15.284 -0.4117  0.7687  0.4536
19123TIP3    H278785   1.425   6.364  15.205 -0.8818  0.2606 -0.5207
19124TIP3   OH278786   4.000   5.976   1.075 -0.4256  0.2954 -0.1640
19124TIP3    H178787   3.905   5.973   1.082 -0.4038 -1.0345 -0.0296
19124TIP3    H278788   4.021   5.911   1.007  0.3961  0.3411  0.0342
19125TIP3   OH278789   6.389   1.104   5.510  0.3712 -0.5847  0.2931
19125TIP3    H178790   6.339   1.038   5.462  0.7747 -0.0350 -0.9061
19125TIP3    H278791   6.382   1.077   5.602 -3.2209  0.1916  0.3717
19126TIP3   OH278792   3.305   6.275  16.438  0.2863 -0.3672  0.2846
19126TIP3    H178793   3.323   6.367  16.457  1.2652 -0.1363 -1.5624
19126TIP3    H278794   3.352   6.227  16.506 -0.3921  0.4655  1.3834
19127TIP3   OH278795   1.001   3.539   6.290  0.6509 -0.0361 -0.4421
19127TIP3    H178796   0.947   3.461   6.303 -0.6126  0.4114 -2.4688
19127TIP3    H278797   1.088   3.513   6.319  0.0167 -1.8270 -0.0156
19128TIP3   OH278798   0.395   5.836   1.116 -0.1956  0.1631 -0.0915
19128TIP3    H178799   0.313   5.792   1.141  0.0695  0.7777  2.0536
19128TIP3    H278800   0.369   5.926   1.099 -0.1497  0.0564 -0.7631
19129TIP3   OH278801   2.329   0.369   3.997  0.0757  0.3251  0.3287
19129TIP3    H178802   2.289   0.340   3.915 -0.2174  1.6096 -0.0132
19129TIP3    H278803   2.398   0.305   4.015 -0.7861 -0.7569 -0.1739
19130TIP3   OH278804   4.892   6.372  16.083  0.1130  0.3592  0.5221
19130TIP3    H178805   4.829   6.444  16.076  0.1933  0.4734  0.9612
19130TIP3    H278806   4.933   6.384  16.169  0.1481 -0.1952  0.5855
19131TIP3   OH278807   1.864   5.273   6.040 -0.7678 -0.0101 -0.1650
19131TIP3    H178808   1.913   5.349   6.072  1.0727 -1.4443  0.6458
19131TIP3    H278809   1.803   5.252   6.111 -0.1883 -0.1842  0.2950
19132TIP3   OH278810   2.031   0.039   0.585  0.2859 -0.1245 -0.6939
19132TIP3    H178811   1.973   0.060   0.512 -1.4642 -0.7010  0.4721
19132TIP3    H278812   2.033  -0.057   0.587 -1.9181 -0.2311  1.5935
19133TIP3   OH278813   4.859   5.720  14.227  0.0911 -0.3274 -0.0026
19133TIP3    H178814   4.886   5.810  14.212 -2.8004  0.5642 -0.4314
19133TIP3    H278815   4.819   5.721  14.314 -1.1680 -0.8528 -0.5533
19134TIP3   OH278816   2.076   0.223   1.127  0.2739 -0.0930 -0.1135
19134TIP3    H178817   2.021   0.174   1.188 -0.8795 -0.3223 -1.3070
19134TIP3    H278818   2.015   0.260   1.063  1.4631 -0.0539 -1.2732
19135TIP3   OH278819   0.335   4.374   1.080 -0.3336  0.1517  0.5149
19135TIP3    H178820   0.301   4.351   1.166  0.9500  0.6127  1.1687
19135TIP3    H278821   0.429   4.384   1.093 -0.1874  0.7603 -0.8279
19136TIP3   OH278822   4.673   0.292   1.387  0.3389  0.2286 -0.2492
19136TIP3    H178823   4.671   0.234   1.310  0.9643 -0.6184  0.3465
19136TIP3    H278824   4.704   0.376   1.353  2.3667 -0.6274 -0.6555
19137TIP3   OH278825   0.264   2.233  14.698  0.2630  1.2550  0.0734
19137TIP3    H178826   0.197   2.202  14.759  0.9200  0.0895  0.2299
19137TIP3    H278827   0.226   2.221  14.612 -0.7072  2.9902  0.2186
19138TIP3   OH278828   5.673   3.126   3.107  0.2540 -0.0709  0.6816
19138TIP3    H178829   5.603   3.182   3.140 -0.4553 -0.4006 -0.2320
19138TIP3    H278830   5.629   3.045   3.082  1.1156 -0.6576  1.0278
19139TIP3   OH278831   2.468   2.294  14.622 -0.2402  0.3083 -0.0642
19139TIP3    H178832   2.453   2.333  14.709  1.0612  0.0908  0.2876
19139TIP3    H278833   2.418   2.212  14.623  2.4359 -1.4727  1.8583
19140TIP3   OH278834   4.846   4.019  11.501  0.1610  0.2822 -0.1502
19140TIP3    H178835   4.826   4.107  11.468 -0.2659  0.4713  0.5933
19140TIP3    H278836   4.854   3.966  11.422  2.8260  1.4366 -0.7761
19141TIP3   OH278837   5.396   3.193   5.366 -0.4449 -0.5966 -0.2108
19141TIP3    H178838   5.445   3.249   5.427 -0.8655 -1.2283  0.7335
19141TIP3    H278839   5.454   3.183   5.291  0.0946  0.1959  0.0767
19142TIP3   OH278840   1.721   2.874   5.529 -0.3590  0.2750 -0.4349
19142TIP3    H178841   1.772   2.801   5.494 -0.9187 -0.1590 -0.3769
19142TIP3    H278842   1.649   2.885   5.466 -0.3462  0.6953 -0.3791
19143TIP3   OH278843   0.680   6.415   5.281  0.2234 -0.2248 -0.6036
19143TIP3    H178844   0.652   6.479   5.346  0.7165 -0.3351 -0.2775
19143TIP3    H278845   0.723   6.346   5.332 -0.7315 -1.0626 -0.8959
19144TIP3   OH278846   4.398   0.278  16.147 -0.5184 -0.1301 -0.7218
19144TIP3    H178847   4.429   0.245  16.232  1.6875 -3.6697 -2.6093
19144TIP3    H278848   4.325   0.221  16.125 -0.1599 -0.2081 -1.7633
19145TIP3   OH278849   2.331   3.321  17.401 -0.3781 -1.0924  0.2596
19145TIP3    H178850   2.338   3.406  17.357  0.9429 -1.8850 -1.1568
19145TIP3    H278851   2.265   3.335  17.469 -0.3777  0.9872 -0.0988
19146TIP3   OH278852   1.102   3.085  15.745 -0.4386 -0.3552  0.1836
19146TIP3    H178853   1.074   3.036  15.822 -0.5261  1.1320  1.1488
19146TIP3    H278854   1.155   3.024  15.695  0.0016 -1.2282  1.6668
19147TIP3   OH278855   4.435   0.721  13.848 -0.4380 -0.1277  0.1921
19147TIP3    H178856   4.446   0.631  13.816  0.3019 -1.4647  3.6830
19147TIP3    H278857   4.510   0.769  13.812  0.6657 -1.6585  0.3490
19148TIP3   OH278858   3.939   4.347   6.081  0.0184 -0.1305 -0.2132
19148TIP3    H178859   3.874   4.378   6.018 -0.6958 -0.7227  0.2348
19148TIP3    H278860   3.892   4.289   6.139  0.7827  0.0273  0.5865
19149TIP3   OH278861   2.923   4.401   5.546  0.2130  0.1971 -0.0690
19149TIP3    H178862   2.839   4.408   5.501 -0.5510  0.0352  1.3014
19149TIP3    H278863   2.943   4.307   5.544 -0.3016  0.0641  0.7715
19150TIP3   OH278864   2.727   1.791  14.107 -0.3473  0.4836  0.5781
19150TIP3    H178865   2.723   1.877  14.149 -1.7162  1.0134 -0.5527
19150TIP3    H278866   2.636   1.767  14.092  0.0317  0.6780 -2.7343
19151TIP3   OH278867   6.287   5.603   1.013  0.2731  0.3254  0.1975
19151TIP3    H178868   6.321   5.691   1.030 -0.3212  0.4643  0.6828
19151TIP3    H278869   6.199   5.604   1.049  0.4224 -0.6159  0.6034
19152TIP3   OH278870   0.627   0.725   3.836 -0.5316 -0.4972 -0.4572
19152TIP3    H178871   0.722   0.738   3.840 -0.3840 -0.5052 -2.5228
19152TIP3    H278872   0.611   0.644   3.884  0.5417 -0.6373 -0.3177
19153TIP3   OH278873   0.946   2.570  12.908  0.4564  0.0737 -0.2020
19153TIP3    H178874   0.857   2.603  12.900  0.3917 -0.0567 -0.0334
19153TIP3    H278875   0.972   2.594  12.997  1.1121  1.3929 -0.7220
19154TIP3   OH278876   4.065   6.102   2.910 -0.1073 -0.3534  0.5394
19154TIP3    H178877   4.097   6.025   2.957  1.2131  0.1269  0.4825
19154TIP3    H278878   3.996   6.137   2.966 -0.4923 -1.3737  0.7273
19155TIP3   OH278879   5.758   3.166   3.850 -0.3188 -0.1116 -0.4464
19155TIP3    H178880   5.835   3.189   3.798  0.8197  0.4788  1.3855
19155TIP3    H278881   5.792   3.154   3.939 -2.3126 -0.0831  0.3778
19156TIP3   OH278882   6.109   2.515  14.688  0.3847  0.2272  0.3458
19156TIP3    H178883   6.072   2.435  14.651 -1.4169  0.6979  1.0336
19156TIP3    H278884   6.186   2.486  14.737  0.1860 -0.9641 -0.0228
19157TIP3   OH278885   0.105   1.857  16.474  0.2738  0.1980 -0.0950
19157TIP3    H178886   0.128   1.942  16.511  0.2149  1.2599 -2.3163
19157TIP3    H278887   0.186   1.807  16.477  0.0464 -0.1211  2.2431
19158TIP3   OH278888   6.244   4.834   3.374  0.2248 -0.2568 -0.1631
19158TIP3    H178889   6.185   4.793   3.437  1.0777 -1.5629 -0.1689
19158TIP3    H278890   6.188   4.891   3.322 -0.9455 -1.1076  0.1345
19159TIP3   OH278891   4.484   2.221  15.871  0.0779  0.1996 -0.1044
19159TIP3    H178892   4.554   2.267  15.825  0.6108 -0.9432 -0.4952
19159TIP3    H278893   4.426   2.290  15.904  1.6855  1.2225  0.7217
19160TIP3   OH278894   5.212   6.403   2.177  0.4851  0.3457 -0.1055
19160TIP3    H178895   5.243   6.493   2.172  3.0514 -0.2922  2.0904
19160TIP3    H278896   5.138   6.407   2.238  0.8632  0.9470  0.3295
19161TIP3   OH278897   1.369   1.238  12.381 -0.6300 -0.3198 -0.2337
19161TIP3    H178898   1.280   1.259  12.409 -0.3139  0.2707  0.3880
19161TIP3    H278899   1.409   1.198  12.458  0.3021  1.4545  0.2766
19162TIP3   OH278900   3.210   6.311   1.708  0.0415 -0.4639 -0.2355
19162TIP3    H178901   3.274   6.360   1.760 -0.2328 -0.0278 -0.3032
19162TIP3    H278902   3.172   6.248   1.769 -0.8938  0.6099  0.3317
19163TIP3   OH278903   1.895   1.275   6.349 -0.4769 -0.1085  0.4607
19163TIP3    H178904   1.942   1.237   6.423  1.2882  0.8320 -0.1188
19163TIP3    H278905   1.963   1.314   6.295 -1.4135 -2.3498 -2.6701
19164TIP3   OH278906   0.879   1.681  13.704 -0.6932  0.3924  0.1686
19164TIP3    H178907   0.832   1.660  13.624  0.2628  1.3317 -0.6682
19164TIP3    H278908   0.903   1.596  13.741 -2.8008 -0.1077  0.5096
19165TIP3   OH278909   1.882   0.242   3.883  0.7425  0.1926  0.5956
19165TIP3    H178910   1.969   0.213   3.911  0.6994  0.6912  1.2531
19165TIP3    H278911   1.853   0.301   3.952 -0.4913 -0.6514  0.8255
19166TIP3   OH278912   1.668   0.671   2.352  0.1424  0.0445 -0.2454
19166TIP3    H178913   1.700   0.613   2.421  0.6310 -1.2849 -1.5428
19166TIP3    H278914   1.575   0.683   2.373 -0.4616 -2.7544 -0.9256
19167TIP3   OH278915   2.185   5.218  15.305  0.7845  0.2640 -0.2651
19167TIP3    H178916   2.193   5.240  15.212 -0.5515  0.1759 -0.4117
19167TIP3    H278917   2.115   5.274  15.338  0.3995 -0.5859  0.3995
19168TIP3   OH278918   4.484   3.608   3.710  0.6926 -0.2676 -0.3864
19168TIP3    H178919   4.461   3.701   3.705  1.6040  0.0361  0.6957
19168TIP3    H278920   4.553   3.597   3.644  0.7867 -0.1059 -0.3149
19169TIP3   OH278921   3.447   6.144  14.265 -0.9450 -0.1541 -0.3088
19169TIP3    H178922   3.486   6.058  14.251 -2.0256 -0.3577 -2.4861
19169TIP3    H278923   3.485   6.175  14.347  0.7662 -1.9702 -0.3545
19170TIP3   OH278924   6.498   2.890  14.328  0.1970  0.2221  0.9031
19170TIP3    H178925   6.537   2.817  14.375 -0.3545 -1.4949 -1.1126
19170TIP3    H278926   6.568   2.922  14.271 -0.0823 -0.0476  0.3936
19171TIP3   OH278927   2.883   5.686  15.121 -0.1526  0.1779  0.0962
19171TIP3    H178928   2.934   5.715  15.196 -0.1409  2.1373 -0.6237
19171TIP3    H278929   2.902   5.750  15.053 -2.4412  0.1201 -0.6713
19172TIP3   OH278930   3.617   3.264  13.546  0.3395  0.5960 -0.6103
19172TIP3    H178931   3.584   3.264  13.456 -0.6069 -0.5506 -0.2938
19172TIP3    H278932   3.548   3.307  13.597 -0.9405 -2.0788  0.0998
19173TIP3   OH278933   4.200   5.146   4.574  0.1723 -0.1950 -0.0458
19173TIP3    H178934   4.275   5.094   4.545 -0.2633 -0.8707  0.0105
19173TIP3    H278935   4.123   5.092   4.553 -0.2617  0.1892  0.5069
19174TIP3   OH278936   5.690   5.381  15.913  0.2661 -0.2089  0.3042
19174TIP3    H178937   5.740   5.308  15.950  0.7413 -0.4923 -0.8618
19174TIP3    H278938   5.727   5.459  15.954  2.4099 -0.3206 -1.2835
19175TIP3   OH278939   4.583   3.835  13.271 -0.2742 -0.6794 -0.5164
19175TIP3    H178940   4.583   3.791  13.186 -1.7451 -0.6095 -0.5695
19175TIP3    H278941   4.556   3.925  13.251  1.1631 -0.1560 -0.2022
19176TIP3   OH278942   2.391   4.935   4.188 -0.6300  0.2674  0.3031
19176TIP3    H178943   2.473   4.963   4.147 -1.5628  2.4973 -0.1943
19176TIP3    H278944   2.377   4.846   4.155  0.3151  0.7914 -1.6570
19177TIP3   OH278945   1.795   4.764   4.682 -0.4863  0.3209  0.0487
19177TIP3    H178946   1.844   4.789   4.760 -0.4303 -0.8004  0.3831
19177TIP3    H278947   1.863   4.753   4.614  0.2491 -3.9620  1.1601
19178TIP3   OH278948   0.066   1.835  11.315  0.4551 -0.4637 -0.4768
19178TIP3    H178949   0.133   1.893  11.276  1.6787 -1.0253  0.7187
19178TIP3    H278950   0.011   1.894  11.367  0.5190 -0.1082 -0.8060
19179TIP3   OH278951   5.914   4.827   0.246 -0.0931 -0.7891 -0.5873
19179TIP3    H178952   5.963   4.811   0.165  0.8625 -0.7519 -0.0324
19179TIP3    H278953   5.822   4.827   0.219  0.1963 -1.0895 -1.6186
19180TIP3   OH278954   4.446   5.281   2.632  0.5595 -0.0530 -0.4037
19180TIP3    H178955   4.446   5.323   2.718  0.4084 -1.2719  0.2064
19180TIP3    H278956   4.365   5.312   2.591 -0.0244 -0.4658  0.4048
19181TIP3   OH278957   1.981   5.389  15.349  0.1070 -0.2594 -0.2090
19181TIP3    H178958   1.990   5.483  15.331 -1.8444 -0.0278 -0.2000
19181TIP3    H278959   1.995   5.382  15.444 -0.3911  0.1522 -0.0922
19182TIP3   OH278960   2.738   2.163   4.294 -0.5182  0.6011  0.2114
19182TIP3    H178961   2.806   2.117   4.245  0.6644  3.1606 -0.7239
19182TIP3    H278962   2.675   2.190   4.228 -1.9396 -0.8387  0.9380
19183TIP3   OH278963   4.367   6.185   1.288  0.2723 -0.2383  0.5007
19183TIP3    H178964   4.357   6.167   1.382  0.6490 -0.8546  0.4336
19183TIP3    H278965   4.382   6.279   1.283 -1.5112  0.1038  0.9013
19184TIP3   OH278966   5.203   2.115   1.459  0.3265  0.1276  0.6042
19184TIP3    H178967   5.117   2.134   1.423 -1.3542 -1.4554  3.3904
19184TIP3    H278968   5.249   2.199   1.459 -0.6824  0.7800 -2.0486
19185TIP3   OH278969   5.868   1.646   2.516 -0.0456 -0.0615 -0.0625
19185TIP3    H178970   5.861   1.574   2.453  2.2052 -0.3497 -0.0521
19185TIP3    H278971   5.889   1.722   2.463  0.4652 -0.0157  0.2010
19186TIP3   OH278972   4.741   4.923  13.081 -0.2727  0.2867 -0.2629
19186TIP3    H178973   4.729   4.942  12.988  0.7510 -1.1881 -0.7349
19186TIP3    H278974   4.659   4.883  13.108 -0.4551  0.4112 -0.6239
19187TIP3   OH278975   5.310   0.773   5.596  0.7059  0.1532  0.5323
19187TIP3    H178976   5.259   0.837   5.547  0.8355  0.1351  0.3723
19187TIP3    H278977   5.305   0.693   5.545  0.5153  0.0240  0.7507
19188TIP3   OH278978   3.011   6.417   0.925 -0.7523 -0.8333 -0.0983
19188TIP3    H178979   3.025   6.336   0.877  1.7583 -0.6308  0.1745
19188TIP3    H278980   3.067   6.481   0.882  1.1754 -0.5066  2.6524
19189TIP3   OH278981   1.850   1.250   2.737 -0.8972  0.0563 -0.1078
19189TIP3    H178982   1.917   1.191   2.773  0.9594  2.3326  0.4310
19189TIP3    H278983   1.827   1.211   2.653  1.6741 -0.4874 -0.6623
19190TIP3   OH278984   0.412   2.455  13.223 -0.2082 -0.0254  0.2136
19190TIP3    H178985   0.353   2.383  13.247 -0.7297 -0.6276 -2.5409
19190TIP3    H278986   0.365   2.534  13.250 -0.4652 -0.6241  1.6061
19191TIP3   OH278987   2.293   1.663   2.435 -0.0020  0.4676 -0.4826
19191TIP3    H178988   2.384   1.691   2.428 -0.2356  1.8050  1.1733
19191TIP3    H278989   2.266   1.692   2.522 -2.2637  0.8060 -1.2390
19192TIP3   OH278990   6.104   4.911   2.020 -0.0989 -0.1138  0.1360
19192TIP3    H178991   6.129   4.966   1.946  0.2973  0.6242  0.7860
19192TIP3    H278992   6.009   4.912   2.020 -0.0990  0.5257  0.0862
19193TIP3   OH278993   5.130   2.615   2.804  0.0618  0.1565  0.6522
19193TIP3    H178994   5.120   2.553   2.876 -1.8850  2.0394  2.1412
19193TIP3    H278995   5.220   2.602   2.774  0.3384 -2.0058  2.1528
19194TIP3   OH278996   4.825   6.617  13.742  0.1161 -0.4567 -0.5245
19194TIP3    H178997   4.909   6.581  13.714 -1.2655 -2.9445 -1.8178
19194TIP3    H278998   4.798   6.561  13.815 -0.9278 -0.4437 -0.8858
19195TIP3   OH278999   3.200   4.641   3.804 -0.3721 -0.4725 -0.4577
19195TIP3    H179000   3.280   4.623   3.852 -1.3794  0.6772  1.8289
19195TIP3    H279001   3.144   4.565   3.821 -0.0320 -0.9743 -1.5099
19196TIP3   OH279002   3.022   4.229   2.105 -0.0650 -0.7294  0.0527
19196TIP3    H179003   2.945   4.249   2.159 -0.1219 -1.8104  0.4064
19196TIP3    H279004   3.091   4.211   2.169  1.0916  2.1401 -0.2203
19197TIP3   OH279005   5.539   3.111  12.289  0.4603  0.3506  0.0973
19197TIP3    H179006   5.479   3.154  12.350 -0.2330 -0.0973 -0.2444
19197TIP3    H279007   5.512   3.144  12.203  1.8874  1.5223  0.0725
19198TIP3   OH279008   0.181   2.855   0.300  0.2349  0.0980 -0.4489
19198TIP3    H179009   0.101   2.906   0.312  1.1123  1.1279  1.7988
19198TIP3    H279010   0.251   2.918   0.315  1.4524 -1.0655 -1.0608
19199TIP3   OH279011   6.230   6.646  10.899  0.2125  0.0043  0.9323
19199TIP3    H179012   6.205   6.574  10.841 -0.5259 -0.1586  1.4428
19199TIP3    H279013   6.189   6.723  10.860  0.5044  0.0545  0.7190
19200TIP3   OH279014   2.481   0.757   2.262 -0.5328 -0.2147  0.0563
19200TIP3    H179015   2.504   0.715   2.345  1.1412 -1.6808 -1.0537
19200TIP3    H279016   2.510   0.847   2.271 -2.6968  0.3637  1.9240
19201TIP3   OH279017   6.646   2.320   1.933 -0.1133 -0.1462  0.1260
19201TIP3    H179018   6.663   2.353   1.845 -2.0793  2.8140  0.7239
19201TIP3    H279019   6.729   2.334   1.980  0.5619 -0.5997 -0.9028
19202TIP3   OH279020   0.786   3.703  16.612 -0.1527  0.3688  0.2888
19202TIP3    H179021   0.838   3.736  16.540  0.0988 -1.9294 -0.6691
19202TIP3    H279022   0.697   3.696  16.577 -0.0194 -0.8072  0.1586
19203TIP3   OH279023   6.049   3.018   5.497  0.0110 -0.5118  0.4438
19203TIP3    H179024   6.119   3.045   5.556  0.8908 -0.7592 -0.4688
19203TIP3    H279025   6.007   2.945   5.542 -0.3294  0.2923  1.4612
19204TIP3   OH279026   2.130   2.004  11.706 -0.3192  0.2189  0.0861
19204TIP3    H179027   2.077   1.965  11.776 -1.5814 -0.1776 -1.0468
19204TIP3    H279028   2.142   2.095  11.732 -2.7728  0.7083 -0.2605
19205TIP3   OH279029   3.650   0.978   1.249 -0.2288  0.2644  0.4118
19205TIP3    H179030   3.702   1.048   1.209 -2.6911  0.1314 -3.5520
19205TIP3    H279031   3.692   0.898   1.220 -1.5649  0.1712 -1.4205
19206TIP3   OH279032   2.802   2.856  15.815 -0.0212  0.3517 -0.9885
19206TIP3    H179033   2.862   2.919  15.775  0.0050  0.5498 -0.6443
19206TIP3    H279034   2.818   2.774  15.768  2.6891 -0.4214  1.0366
19207TIP3   OH279035   6.414   1.288  11.763  0.4627  0.3930 -0.4912
19207TIP3    H179036   6.496   1.336  11.775  1.3067 -0.9498 -0.7079
19207TIP3    H279037   6.421   1.250  11.676  0.5551 -1.4378  0.2741
19208TIP3   OH279038   1.560   5.443   0.262 -0.0216 -0.0235  0.1993
19208TIP3    H179039   1.473   5.481   0.278  0.3005  1.3995 -1.1520
19208TIP3    H279040   1.620   5.516   0.277  0.5006  0.7848 -4.3732
19209TIP3   OH279041   2.446   2.731  12.089  0.0457 -0.0788  0.2992
19209TIP3    H179042   2.465   2.654  12.036 -1.3982 -0.9147  0.9351
19209TIP3    H279043   2.530   2.775  12.098  0.3976  0.0519 -2.5442
19210TIP3   OH279044   6.667   3.579  17.197  0.4574 -0.5157  0.2323
19210TIP3    H179045   6.659   3.646  17.265  1.4387 -1.3905  1.2455
19210TIP3    H279046   6.668   3.496  17.245  0.8029 -1.1700 -0.8775
19211TIP3   OH279047   1.123   4.073   6.669 -0.2906 -0.7269  0.0152
19211TIP3    H179048   1.062   4.137   6.706 -1.3779 -0.2916 -2.3541
19211TIP3    H279049   1.133   4.007   6.738  0.8543  1.8912  2.5557
19212TIP3   OH279050   4.222   5.775   2.723  0.6813 -0.1948 -0.3068
19212TIP3    H179051   4.275   5.805   2.795  0.4821  1.0077 -0.6446
19212TIP3    H279052   4.282   5.724   2.668  1.1476  0.0076  0.0135
19213TIP3   OH279053   4.294   5.442   4.076  0.2533  0.3163  0.1387
19213TIP3    H179054   4.243   5.437   3.995  1.8408  0.4828 -0.9228
19213TIP3    H279055   4.254   5.377   4.134  0.2338 -1.1603 -1.4616
19214TIP3   OH279056   5.966   6.074  16.893 -0.7831  0.5873 -0.0283
19214TIP3    H179057   5.961   6.119  16.977  1.8538 -0.4073  0.7791
19214TIP3    H279058   5.992   6.142  16.831  0.3557  0.7631  0.6129
19215TIP3   OH279059   3.854   2.553   3.008 -0.1263 -0.2569 -0.1487
19215TIP3    H179060   3.928   2.609   3.032  1.2996 -1.8012 -0.7516
19215TIP3    H279061   3.812   2.532   3.092  0.1841  0.5354  0.2175
19216TIP3   OH279062   0.833   3.506   6.615 -0.0736  0.2990  0.3103
19216TIP3    H179063   0.825   3.453   6.535  1.3669  0.0248  0.3163
19216TIP3    H279064   0.771   3.466   6.676  0.2462 -0.7583 -0.0237
19217TIP3   OH279065   4.762   0.187   5.513 -0.3497 -0.7434 -0.1505
19217TIP3    H179066   4.731   0.134   5.587 -1.0424 -0.7353 -0.4260
19217TIP3    H279067   4.742   0.277   5.538 -1.4918 -0.8076 -0.7465
19218TIP3   OH279068   1.861   4.303   1.964  0.1894  0.2497  0.1100
19218TIP3    H179069   1.838   4.394   1.982  1.3998  0.8014 -1.0037
19218TIP3    H279070   1.839   4.256   2.045  0.1833  1.6302  0.9357
19219TIP3   OH279071   4.202   0.591   3.044 -0.3256 -0.4183 -0.1987
19219TIP3    H179072   4.108   0.586   3.023 -0.6145 -0.7139  1.1136
19219TIP3    H279073   4.224   0.504   3.076  0.2899 -0.2133 -0.0627
19220TIP3   OH279074   1.259   0.390   4.992  0.3191  0.4557  0.4152
19220TIP3    H179075   1.163   0.387   4.995  0.2523  1.5243 -0.1564
19220TIP3    H279076   1.286   0.373   5.082 -0.3656 -0.8136  0.3979
19221TIP3   OH279077   3.168   3.017  14.234 -0.3015 -0.1631  0.0736
19221TIP3    H179078   3.193   2.925  14.218 -2.3771 -0.8241  0.4250
19221TIP3    H279079   3.173   3.027  14.329 -2.5178 -0.7174  0.3034
19222TIP3   OH279080   3.385   6.644   5.777 -0.2468 -0.0505  0.0158
19222TIP3    H179081   3.467   6.644   5.826  0.4572  0.8011 -1.1291
19222TIP3    H279082   3.408   6.679   5.691 -1.4541 -1.4706 -0.9386
19223TIP3   OH279083   6.345   2.268  17.325 -0.4983 -0.7944 -0.0208
19223TIP3    H179084   6.338   2.322  17.404 -0.3478 -0.4861 -0.2136
19223TIP3    H279085   6.263   2.219  17.322 -1.0211  0.0890 -0.3203
19224TIP3   OH279086   4.336   2.274   2.517  0.0826  0.6548 -0.0632
19224TIP3    H179087   4.370   2.253   2.430  0.7199 -0.2397  0.3847
19224TIP3    H279088   4.268   2.209   2.534  1.7180 -0.8545  1.1222
19225TIP3   OH279089   2.511   3.485   0.779  0.1099  0.3278 -0.3009
19225TIP3    H179090   2.425   3.513   0.811  0.2225  1.8689 -1.2381
19225TIP3    H279091   2.501   3.391   0.763 -0.9656  0.2047  0.9113
19226TIP3   OH279092   6.096   3.851  13.509 -0.2602  0.2284  0.9782
19226TIP3    H179093   6.074   3.860  13.417  0.2534  1.6159  0.9686
19226TIP3    H279094   6.036   3.784  13.542  0.2891 -1.1020 -0.5966
19227TIP3   OH279095   1.724   0.172  11.500 -0.2634 -0.0874 -0.4739
19227TIP3    H179096   1.814   0.158  11.529 -0.3848  0.2274  0.0725
19227TIP3    H279097   1.732   0.213  11.414  0.1254  0.5562 -0.1369
19228TIP3   OH279098   5.328   3.614   1.578 -0.4683 -0.6912 -0.5568
19228TIP3    H179099   5.325   3.681   1.510  0.9554  0.5225  0.4936
19228TIP3    H279100   5.273   3.648   1.648 -0.0084 -0.7518 -0.1544
19229TIP3   OH279101   2.434   2.180  11.701  0.3240  0.0927 -0.2587
19229TIP3    H179102   2.525   2.155  11.715  0.5733  0.0680 -1.7886
19229TIP3    H279103   2.437   2.275  11.687  0.1751  0.0290 -0.7351
19230TIP3   OH279104   4.940   4.080  17.104  0.0140 -0.0510  0.0319
19230TIP3    H179105   4.896   4.040  17.029  0.0665  0.6013 -0.3602
19230TIP3    H279106   5.004   4.015  17.133 -1.6166 -1.2947  1.0194
19231TIP3   OH279107   3.526   1.297  16.591  0.2369 -0.1305  0.1103
19231TIP3    H179108   3.571   1.277  16.673  0.9159  3.7054  0.8818
19231TIP3    H279109   3.453   1.353  16.618 -0.3306  0.1146 -1.7993
19232TIP3   OH279110   5.308   1.806  14.786  0.8714  0.6371 -0.3504
19232TIP3    H179111   5.278   1.851  14.708 -1.5860 -0.0971  0.0833
19232TIP3    H279112   5.383   1.754  14.757  0.6479  1.1703 -1.9512
19233TIP3   OH279113   0.270   5.228  15.212  0.0609  0.2707 -0.1107
19233TIP3    H179114   0.360   5.252  15.188 -0.3758  1.1510 -0.9446
19233TIP3    H279115   0.255   5.272  15.295  0.9338 -1.2262  0.8971
19234TIP3   OH279116   0.076   2.149  16.246  0.0787  0.2226  0.1433
19234TIP3    H179117   0.118   2.230  16.275  1.0848 -0.4734  0.7139
19234TIP3    H279118   0.145   2.083  16.255 -1.4011 -1.1712  2.1462
19235TIP3   OH279119   6.605   0.212   5.767 -0.2884 -0.6247 -0.2457
19235TIP3    H179120   6.571   0.277   5.706 -0.2611 -0.6199 -0.2562
19235TIP3    H279121   6.555   0.132   5.749  0.2627 -0.8450 -0.8188
19236TIP3   OH279122   0.765   5.698  11.572 -0.0093  0.0503 -0.0866
19236TIP3    H179123   0.786   5.691  11.479 -2.2838  0.7021 -0.7142
19236TIP3    H279124   0.805   5.620  11.611  2.4533  0.6402 -1.2596
19237TIP3   OH279125   1.066   2.229  14.887  0.1070 -0.1036  0.1908
19237TIP3    H179126   1.024   2.314  14.892  0.7255  0.3477 -1.6891
19237TIP3    H279127   1.157   2.245  14.911  0.1317 -0.3239  0.2536
19238TIP3   OH279128   3.558   5.752   4.534 -0.2843 -0.0862 -0.3787
19238TIP3    H179129   3.550   5.673   4.587 -1.6417 -0.1465 -0.6555
19238TIP3    H279130   3.484   5.807   4.561  1.3290  1.6959  0.7599
19239TIP3   OH279131   6.502   6.557  10.849  0.0184  0.2678  0.2145
19239TIP3    H179132   6.419   6.562  10.897 -1.2450 -0.2360 -1.8013
19239TIP3    H279133   6.538   6.646  10.854 -1.3103  0.8369  0.0186
19240TIP3   OH279134   2.683   5.144   3.318  0.2928 -0.0839 -0.2527
19240TIP3    H179135   2.635   5.210   3.268 -1.0326 -0.1929  0.7926
19240TIP3    H279136   2.630   5.065   3.311  0.7581 -0.4502  0.2382
19241TIP3   OH279137   0.432   1.515   0.760  0.7785 -0.2251  0.0873
19241TIP3    H179138   0.464   1.525   0.850  1.0027 -2.7823  0.3754
19241TIP3    H279139   0.507   1.485   0.710  0.1889 -0.8132 -0.4776
19242TIP3   OH279140   2.400   4.411  11.160  0.6094 -0.2278 -0.0767
19242TIP3    H179141   2.356   4.433  11.242 -1.3980  1.4643 -1.4867
19242TIP3    H279142   2.492   4.400  11.184  0.4499  2.1889  2.0949
19243TIP3   OH279143   1.700   2.107   6.846  0.0135 -0.4955 -0.4901
19243TIP3    H179144   1.749   2.080   6.924 -0.3058  2.2027  0.7495
19243TIP3    H279145   1.705   2.031   6.787  4.4565 -0.9270  0.0993
19244TIP3   OH279146   6.184   0.014  14.808 -0.1486 -0.5220 -0.2340
19244TIP3    H179147   6.219   0.023  14.897  2.8435 -1.6691 -1.1775
19244TIP3    H279148   6.199  -0.078  14.785  2.4513  0.4276 -3.0676
19245TIP3   OH279149   1.958   3.024  15.172  0.5127 -0.5324 -0.6615
19245TIP3    H179150   1.890   3.091  15.162  0.0958 -0.6717  0.8842
19245TIP3    H279151   2.009   3.028  15.091 -0.3597  0.6872 -1.1740
19246TIP3   OH279152   2.213   2.727   2.184  0.0312 -0.0601 -0.0963
19246TIP3    H179153   2.253   2.788   2.122  1.4555 -0.1962  0.6341
19246TIP3    H279154   2.240   2.640   2.152  0.4810 -0.1460  0.5032
19247TIP3   OH279155   3.324   5.838  13.140 -0.5781 -0.3112  0.0792
19247TIP3    H179156   3.403   5.891  13.133  0.5014 -1.8841 -0.1983
19247TIP3    H279157   3.257   5.889  13.095  0.3692  0.8770 -0.0418
19248TIP3   OH279158   4.176   2.353   3.925  0.2905  0.2050 -0.2650
19248TIP3    H179159   4.139   2.364   4.012 -0.3502  0.6576 -0.5858
19248TIP3    H279160   4.234   2.277   3.933  0.1168  0.1432  0.5081
19249TIP3   OH279161   6.394   3.550   4.459  0.3953 -0.1964  0.1902
19249TIP3    H179162   6.385   3.597   4.542 -1.3344 -1.5922  0.8523
19249TIP3    H279163   6.319   3.579   4.407 -0.6940 -2.0784  0.5991
19250TIP3   OH279164   6.234   0.932   4.060  0.5381 -0.2340 -0.0860
19250TIP3    H179165   6.278   0.864   4.111  1.6715  0.2288 -0.4218
19250TIP3    H279166   6.169   0.968   4.120 -0.5823 -2.0558 -0.1091
19251TIP3   OH279167   1.659   2.159   5.650 -0.2230  0.3666  0.7993
19251TIP3    H179168   1.748   2.156   5.685  0.7045  0.7421 -1.3702
19251TIP3    H279169   1.623   2.241   5.683  1.7124  2.2458 -1.4115
19252TIP3   OH279170   5.040   3.641  17.187 -0.4545 -0.3672 -0.1623
19252TIP3    H179171   5.101   3.572  17.162  1.4664  0.2247  2.5048
19252TIP3    H279172   5.093   3.720  17.188 -1.5717  0.3946  0.9955
19253TIP3   OH279173   0.206   0.722   3.794  0.0085  0.2994 -0.5444
19253TIP3    H179174   0.263   0.649   3.769 -0.8046 -0.1104 -1.2341
19253TIP3    H279175   0.225   0.736   3.887  0.8007 -0.2168 -0.6206
19254TIP3   OH279176   2.964   6.238  14.241 -0.2183  0.4481  0.0523
19254TIP3    H179177   2.915   6.171  14.193 -0.8130  0.1942  0.9915
19254TIP3    H279178   2.922   6.320  14.216 -0.6431  0.3012  0.2851
19255TIP3   OH279179   4.901   4.914  13.312  0.0964  0.1532 -0.3446
19255TIP3    H179180   4.924   4.822  13.327  0.5736  0.4152  0.6204
19255TIP3    H279181   4.845   4.912  13.235  0.1125 -0.9475 -0.3509
19256TIP3   OH279182   0.820   4.551  15.125 -0.3046 -0.2065  0.2445
19256TIP3    H179183   0.827   4.646  15.130 -0.8059 -0.1548  0.0603
19256TIP3    H279184   0.783   4.534  15.038  1.4651 -0.6817 -0.4595
19257TIP3   OH279185   5.009   1.935   0.574  0.1563  0.1786  0.3758
19257TIP3    H179186   5.003   1.937   0.479 -1.2739  1.6372  0.4754
19257TIP3    H279187   4.969   1.851   0.599 -0.6802  0.3938 -0.2292
19258TIP3   OH279188   0.149   1.209  10.955 -0.1622  0.2311 -0.4950
19258TIP3    H179189   0.180   1.173  10.872 -1.2311 -3.0633  0.4075
19258TIP3    H279190   0.079   1.269  10.930 -1.4169 -1.7349 -1.9788
19259TIP3   OH279191   2.585   1.028  12.274 -0.0525  0.1625 -0.3972
19259TIP3    H179192   2.674   0.994  12.285  0.2361  1.0471  0.1260
19259TIP3    H279193   2.541   0.964  12.219 -0.0690 -1.9909  1.9460
19260TIP3   OH279194   0.786   2.310   2.177 -0.4302 -0.3891  0.3201
19260TIP3    H179195   0.733   2.335   2.101  2.3697  0.6747 -1.4485
19260TIP3    H279196   0.875   2.302   2.143  0.9106 -0.3067  3.4237
19261TIP3   OH279197   4.294   1.145   0.754 -0.5052  0.0845  0.3906
19261TIP3    H179198   4.368   1.156   0.694 -0.5489 -1.4724  0.0293
19261TIP3    H279199   4.293   1.227   0.805  1.8860 -0.1172  0.8806
19262TIP3   OH279200   6.681   2.522  17.158  0.0050  0.4694  0.0492
19262TIP3    H179201   6.776   2.532  17.161  0.1508  0.2762 -2.2200
19262TIP3    H279202   6.651   2.593  17.102 -1.1919  0.4369  0.6185
19263TIP3   OH279203   6.562   2.267   2.716  0.1793 -0.0042 -0.2764
19263TIP3    H179204   6.475   2.234   2.694 -0.1400  1.5402 -1.5349
19263TIP3    H279205   6.560   2.278   2.811 -1.3352  0.8170 -0.3721
19264TIP3   OH279206   1.099   5.547  13.865 -0.0585  0.3691 -0.0165
19264TIP3    H179207   1.050   5.518  13.942  0.4640 -0.0242  0.1783
19264TIP3    H279208   1.191   5.534  13.889  0.1346  0.8434 -0.4723
19265TIP3   OH279209   1.881   1.594  14.913  0.7928  0.0976 -0.3049
19265TIP3    H179210   1.915   1.532  14.849 -0.4093 -0.5908 -0.2940
19265TIP3    H279211   1.904   1.556  14.998 -0.0698 -0.4306 -0.2948
19266TIP3   OH279212   1.102   4.881  14.462  0.2449 -0.0157 -0.6633
19266TIP3    H179213   1.036   4.924  14.406  1.3420  1.3525 -0.9669
19266TIP3    H279214   1.181   4.880  14.409  0.0282 -3.6225 -1.1401
19267TIP3   OH279215   2.950   0.436   4.247  0.5824 -0.0936 -0.1487
19267TIP3    H179216   2.988   0.518   4.215 -1.2285  2.0196  2.6185
19267TIP3    H279217   2.904   0.399   4.171 -0.3114  2.5798 -1.0110
19268TIP3   OH279218   3.792   3.817  11.519 -0.4834  0.0763 -0.5708
19268TIP3    H179219   3.711   3.801  11.567 -0.5087 -1.2364 -0.9990
19268TIP3    H279220   3.857   3.837  11.587 -0.8290 -0.3943 -0.0917
19269TIP3   OH279221   6.382   1.979  15.290  0.0736  0.0814 -0.2423
19269TIP3    H179222   6.353   2.007  15.377 -1.1776  1.0522 -0.9287
19269TIP3    H279223   6.396   2.061  15.243 -0.2232 -0.4444 -1.2542
19270TIP3   OH279224   3.075   4.350  14.258  0.3670 -0.3322  0.1536
19270TIP3    H179225   3.168   4.327  14.246  0.2871  0.1098 -1.6778
19270TIP3    H279226   3.027   4.279  14.216 -0.0710  0.2068 -0.2697
19271TIP3   OH279227   2.139   1.460   6.160  0.4452  0.3563 -0.2532
19271TIP3    H179228   2.168   1.411   6.238 -2.9960  0.7912  1.4933
19271TIP3    H279229   2.140   1.552   6.188 -1.5142  0.4563 -0.3869
19272TIP3   OH279230   2.194   5.473  17.158 -0.2453 -0.0574 -0.1206
19272TIP3    H179231   2.165   5.414  17.227  0.8700 -1.0254 -0.4504
19272TIP3    H279232   2.218   5.553  17.204 -0.7485 -0.2286  0.4571
19273TIP3   OH279233   5.350   1.033  10.645 -0.8076  0.5668 -0.2088
19273TIP3    H179234   5.278   1.093  10.629 -1.0309  0.3212 -0.1234
19273TIP3    H279235   5.385   1.060  10.730 -1.2261  0.2595  0.0634
19274TIP3   OH279236   6.102   3.364   0.528  0.1964  0.7879 -0.4133
19274TIP3    H179237   6.091   3.318   0.611  0.7115 -0.4742 -1.0188
19274TIP3    H279238   6.196   3.374   0.518  0.2829 -0.8352 -1.7333
19275TIP3   OH279239   3.704   4.587  16.968 -0.1789  0.2669 -0.1099
19275TIP3    H179240   3.649   4.634  17.031  0.6832  0.8581  0.2284
19275TIP3    H279241   3.769   4.652  16.941  0.7943 -0.6216  0.0490
19276TIP3   OH279242   0.508   4.763   5.057 -0.5564  0.1821 -0.0440
19276TIP3    H179243   0.511   4.835   5.121 -0.4628  0.8576 -0.7913
19276TIP3    H279244   0.449   4.699   5.097 -0.4964  0.5917  0.7245
19277TIP3   OH279245   1.399   3.737   5.269 -0.0638 -0.0586  0.4788
19277TIP3    H179246   1.393   3.819   5.319  0.1671  0.0752  0.2885
19277TIP3    H279247   1.388   3.764   5.178 -0.5843 -0.3144  0.4577
19278TIP3   OH279248   4.478   6.351   5.221  0.4063 -0.5711  0.2991
19278TIP3    H179249   4.543   6.414   5.193 -0.0745 -1.1259 -2.2849
19278TIP3    H279250   4.438   6.390   5.299  3.5717 -0.1171  1.8612
19279TIP3   OH279251   4.889   5.358   5.755 -0.3014 -1.0488  0.0920
19279TIP3    H179252   4.911   5.274   5.714 -0.1293 -0.9549 -0.0102
19279TIP3    H279253   4.972   5.388   5.793 -0.5740 -1.3943  0.9878
19280TIP3   OH279254   3.023   0.916   0.660  0.3171 -0.1987 -0.2159
19280TIP3    H179255   3.109   0.876   0.675  0.0750 -0.5130  0.3606
19280TIP3    H279256   3.043   1.000   0.618  0.9841  0.3299  1.1108
19281TIP3   OH279257   5.535   1.279   1.441  0.3269  0.3837 -0.6328
19281TIP3    H179258   5.458   1.319   1.403  0.0235  0.9062  0.5026
19281TIP3    H279259   5.502   1.200   1.485  0.3726  0.7793  0.1310
19282TIP3   OH279260   4.654   0.998   0.688  0.2235 -1.1590  0.2149
19282TIP3    H179261   4.596   0.987   0.763  1.5124 -1.6720  1.1896
19282TIP3    H279262   4.597   0.999   0.612 -0.9229 -3.4770  0.9647
19283TIP3   OH279263   0.712   2.022  11.619 -0.1925  0.8173  0.1409
19283TIP3    H179264   0.805   2.043  11.621  0.3226 -1.0199 -1.4795
19283TIP3    H279265   0.677   2.073  11.546 -0.2452  0.8002  0.1540
19284TIP3   OH279266   4.578   3.003  12.245 -0.2369 -0.2969  0.2419
19284TIP3    H179267   4.541   3.074  12.297  2.4997 -1.2019  3.8642
19284TIP3    H279268   4.648   3.045  12.194 -0.6230  0.0725  0.0137
19285TIP3   OH279269   0.326   0.473   5.183 -0.0120  0.4828 -0.4299
19285TIP3    H179270   0.405   0.526   5.168  0.0208  0.7178  0.5240
19285TIP3    H279271   0.359   0.384   5.193 -0.0301  0.3278 -1.6478
19286TIP3   OH279272   2.800   6.273   3.866  0.0612 -0.0228 -0.1906
19286TIP3    H179273   2.872   6.294   3.805 -0.1966 -0.5324 -0.6764
19286TIP3    H279274   2.791   6.352   3.920  1.0607  0.0111 -0.0443
19287TIP3   OH279275   3.630   3.083   1.647  0.0782  0.1159  0.6435
19287TIP3    H179276   3.635   3.179   1.639 -3.6304  0.2968 -1.7044
19287TIP3    H279277   3.636   3.066   1.741  1.6831  2.4914  1.0678
19288TIP3   OH279278   6.719   0.976   4.068 -0.1347  0.1054 -0.5069
19288TIP3    H179279   6.815   0.981   4.069 -0.1979  2.8571 -1.4345
19288TIP3    H279280   6.698   0.933   3.985  0.2629 -1.0996 -0.0087
19289TIP3   OH279281   6.321   4.878  15.457 -0.1488 -0.0939 -0.2008
19289TIP3    H179282   6.349   4.945  15.521 -0.6253 -0.0655 -0.0146
19289TIP3    H279283   6.266   4.818  15.508 -0.2375 -0.2752 -0.5063
19290TIP3   OH279284   1.654   5.563  14.650  0.1828 -0.0958  0.0836
19290TIP3    H179285   1.725   5.568  14.714  0.4168  1.1757 -0.2477
19290TIP3    H279286   1.682   5.621  14.579  1.4836 -3.8627 -2.7894
19291TIP3   OH279287   4.203   5.664   5.081 -0.2072  0.2950  0.2277
19291TIP3    H179288   4.179   5.600   5.014 -2.5011  0.0007  1.2513
19291TIP3    H279289   4.278   5.710   5.044  1.7195 -3.0658 -0.4830
19292TIP3   OH279290   2.025   3.378  12.052 -0.0536 -0.2955  1.0149
19292TIP3    H179291   2.079   3.446  12.093  0.2369  0.1335 -0.0340
19292TIP3    H279292   2.052   3.379  11.960 -1.8979 -0.0238  0.4380
19293TIP3   OH279293   3.646   2.331  16.484  0.9500  0.3107  0.3482
19293TIP3    H179294   3.628   2.323  16.390  0.2713 -1.1225  0.5727
19293TIP3    H279295   3.574   2.383  16.518  0.2183 -0.6988  0.3565
19294TIP3   OH279296   6.406   4.709  15.885  0.3535  0.5634  0.5000
19294TIP3    H179297   6.466   4.774  15.921  0.3141 -0.3441  2.3273
19294TIP3    H279298   6.432   4.627  15.926  1.4063 -0.9726 -2.8733
19295TIP3   OH279299   2.718   6.512   3.996 -1.1310  0.3375  0.3227
19295TIP3    H179300   2.646   6.484   4.051 -1.4111  0.2518 -0.0851
19295TIP3    H279301   2.741   6.599   4.029  0.4080 -0.6988  2.2572
19296TIP3   OH279302   3.673   4.686   3.103 -0.5911  0.2289 -0.2566
19296TIP3    H179303   3.631   4.618   3.156  0.8095 -1.1973 -0.8996
19296TIP3    H279304   3.766   4.676   3.120 -0.3022  1.5120 -0.9498
19297TIP3   OH279305   5.708   1.496   0.456 -0.3591 -0.1927 -0.2508
19297TIP3    H179306   5.769   1.530   0.521 -0.2923 -1.2280  0.2575
19297TIP3    H279307   5.705   1.402   0.474 -1.2016 -0.3249 -1.0300
19298TIP3   OH279308   1.583   1.959   2.204 -0.1982 -0.3782 -0.6470
19298TIP3    H179309   1.527   1.952   2.127  0.5031 -0.1547 -1.1938
19298TIP3    H279310   1.569   1.877   2.251 -0.5456 -0.5713 -1.0779
19299TIP3   OH279311   6.516   5.082   2.944  0.1561 -0.6211 -0.3212
19299TIP3    H179312   6.494   5.133   2.866  0.8719  0.7126  0.3099
19299TIP3    H279313   6.555   5.001   2.910  0.3716 -0.1018 -1.3556
19300TIP3   OH279314   3.903   0.952  11.583  0.3655  0.0434  0.1909
19300TIP3    H179315   3.953   0.985  11.508  0.1410 -1.5303 -0.6935
19300TIP3    H279316   3.833   0.900  11.543  2.4803 -4.2208  1.4002
19301TIP3   OH279317   6.364   2.479   6.702  0.1556  0.1292 -0.2033
19301TIP3    H179318   6.317   2.422   6.762  0.9651  0.1246  0.4501
19301TIP3    H279319   6.455   2.450   6.708  0.4433  0.9398 -0.4864
19302TIP3   OH279320   1.584   5.544   1.577 -0.0183 -0.2748  0.1624
19302TIP3    H179321   1.595   5.638   1.571 -0.1460 -0.2814 -0.2162
19302TIP3    H279322   1.641   5.517   1.649 -0.6939  0.2093  0.8914
19303TIP3   OH279323   4.268   4.541   3.996  0.2142 -0.0494 -0.2446
19303TIP3    H179324   4.253   4.462   4.048  1.6222 -0.8503 -0.9956
19303TIP3    H279325   4.234   4.519   3.909  1.3030 -0.1390 -0.6637
19304TIP3   OH279326   5.101   4.623  14.694 -0.1702 -0.0895  0.5810
19304TIP3    H179327   5.055   4.548  14.655  2.0462 -1.8025  1.1009
19304TIP3    H279328   5.167   4.584  14.751  0.5466  2.2964  1.4836
19305TIP3   OH279329   3.287   6.492  13.570  1.3494  0.0367 -0.7948
19305TIP3    H179330   3.334   6.457  13.645  0.9789  0.0729 -0.5436
19305TIP3    H279331   3.294   6.587  13.579 -2.2931  0.2497  1.5901
19306TIP3   OH279332   2.182   1.707   3.056 -0.5707 -0.5418 -0.8974
19306TIP3    H179333   2.165   1.801   3.051  2.2154  0.0078 -1.6796
19306TIP3    H279334   2.165   1.674   2.967 -1.6019 -0.8088 -0.6097
19307TIP3   OH279335   0.273   6.478  16.405  0.5924  0.1641 -0.7849
19307TIP3    H179336   0.308   6.466  16.316  1.7385  0.8770 -0.4490
19307TIP3    H279337   0.300   6.399  16.452 -1.1145 -0.8142 -1.3799
19308TIP3   OH279338   1.684   3.254  10.991 -0.1366  0.3524  0.4275
19308TIP3    H179339   1.596   3.277  10.960  0.0696 -0.1691 -0.5688
19308TIP3    H279340   1.681   3.159  11.005 -0.1330  0.5208  1.7644
19309TIP3   OH279341   4.751   1.699   2.629  0.0615  0.1897 -0.0386
19309TIP3    H179342   4.702   1.751   2.566 -1.1151  0.7234  1.2430
19309TIP3    H279343   4.787   1.763   2.690  1.5634 -0.2752 -0.3890
19310TIP3   OH279344   2.999   2.539  14.600  0.0586  0.2689 -0.0552
19310TIP3    H179345   3.034   2.460  14.640  2.4550  0.9777 -0.6195
19310TIP3    H279346   2.904   2.528  14.605  0.3130 -1.8054  1.4721
19311TIP3   OH279347   3.245   1.445  15.655  0.0325 -0.1836 -0.1237
19311TIP3    H179348   3.275   1.383  15.590  3.1413 -0.4110  1.3522
19311TIP3    H279349   3.197   1.392  15.719 -0.1277 -0.5085 -0.5113
19312TIP3   OH279350   1.297   2.037   2.896 -0.4447 -0.0468 -0.0922
19312TIP3    H179351   1.295   1.949   2.936  2.4882 -0.2017 -0.0227
19312TIP3    H279352   1.268   2.095   2.966 -1.0354 -0.8410  0.3410
19313TIP3   OH279353   5.056   2.167   2.986 -0.1485  0.7427 -0.2480
19313TIP3    H179354   5.027   2.168   2.895  0.7192  4.5078 -0.6178
19313TIP3    H279355   5.146   2.197   2.984  1.0687 -2.2323  1.6928
19314TIP3   OH279356   1.638   2.262   1.427 -0.5280  0.0627  0.1431
19314TIP3    H179357   1.704   2.209   1.472 -0.2916  0.1732 -0.0777
19314TIP3    H279358   1.682   2.296   1.350 -0.1541  1.9564  1.1373
19315TIP3   OH279359   4.451   1.233  14.084 -0.1811 -0.2476 -0.2927
19315TIP3    H179360   4.477   1.215  14.175  0.1513 -0.3208 -0.4024
19315TIP3    H279361   4.406   1.154  14.056  1.0849 -0.8524 -0.6994
19316TIP3   OH279362   0.561   4.689   1.039 -0.0196 -0.5303  0.0844
19316TIP3    H179363   0.647   4.717   1.070 -0.6896  0.9893  0.7014
19316TIP3    H279364   0.541   4.749   0.967 -0.8655 -0.3905  0.4214
19317TIP3   OH279365   2.963   5.549   4.554 -0.4718  0.3859 -0.2484
19317TIP3    H179366   2.969   5.637   4.593  0.1758 -0.1644  0.9581
19317TIP3    H279367   3.032   5.499   4.599 -3.2206 -1.7845  1.9412
19318TIP3   OH279368   0.633   4.565   2.978  0.2282 -0.6158 -0.5480
19318TIP3    H179369   0.617   4.494   3.040  1.3908  0.0426  0.5795
19318TIP3    H279370   0.729   4.568   2.969  0.0724 -0.9963 -2.7850
19319TIP3   OH279371   6.111   5.662   2.676 -0.3617 -0.4417 -0.1245
19319TIP3    H179372   6.169   5.605   2.625 -0.2305 -1.2545  0.9076
19319TIP3    H279373   6.042   5.686   2.614  0.8645  0.2780 -1.2833
19320TIP3   OH279374   2.336   3.129  14.815 -0.3702  0.2402 -0.1737
19320TIP3    H179375   2.329   3.216  14.856  2.8401 -0.3180  1.8609
19320TIP3    H279376   2.418   3.093  14.848 -1.8445 -3.8767 -0.4527
19321TIP3   OH279377   4.232   6.057   5.439 -0.3235 -0.3916  0.4440
19321TIP3    H179378   4.313   6.081   5.395  0.1865 -0.1937  1.4658
19321TIP3    H279379   4.186   6.001   5.376  0.7864 -0.8345  0.0068
19322TIP3   OH279380   4.045   3.697  16.868  0.0524 -0.0129  0.3711
19322TIP3    H179381   4.085   3.618  16.832  2.2549  1.6474 -1.0600
19322TIP3    H279382   4.107   3.729  16.933 -0.1213  1.2535 -0.0454
19323TIP3   OH279383   3.131   3.887   0.319  0.3992 -0.5242  0.0541
19323TIP3    H179384   3.046   3.920   0.348 -1.5680 -3.0975 -2.2111
19323TIP3    H279385   3.143   3.807   0.369  2.4910  0.6853  1.6456
19324TIP3   OH279386   6.524   6.157  12.240 -0.1539 -0.6531  0.1668
19324TIP3    H179387   6.430   6.147  12.224 -0.3704  0.0484  0.9558
19324TIP3    H279388   6.535   6.249  12.263  0.7604 -0.6874 -0.1022
19325TIP3   OH279389   3.362   4.297  10.983  0.2381 -0.3817  0.6592
19325TIP3    H179390   3.360   4.244  10.904 -0.1854  2.2385 -1.2182
19325TIP3    H279391   3.275   4.289  11.021  0.6469 -2.1895  1.3193
19326TIP3   OH279392   5.317   5.121   3.672 -0.4921  0.0325  0.0443
19326TIP3    H179393   5.262   5.188   3.713  0.4697 -0.2442  1.9150
19326TIP3    H279394   5.406   5.153   3.682 -0.2437  0.8056 -3.5823
19327TIP3   OH279395   1.539   5.266   1.636  0.5681 -0.2634 -0.6222
19327TIP3    H179396   1.570   5.276   1.726  1.1666 -0.9006 -0.7476
19327TIP3    H279397   1.523   5.355   1.605  0.7184 -0.0235 -0.0127
19328TIP3   OH279398   6.261   4.867   1.597 -0.3280  0.0383 -0.0083
19328TIP3    H179399   6.276   4.785   1.643  0.0652  0.2556  0.2530
19328TIP3    H279400   6.348   4.896   1.571 -0.4549  0.4344  0.0055
19329TIP3   OH279401   5.350   5.816  11.680  0.3006 -0.2678  0.1061
19329TIP3    H179402   5.278   5.864  11.721  0.1352 -0.2538 -0.1982
19329TIP3    H279403   5.399   5.883  11.632  0.0829 -0.3960 -0.3000
19330TIP3   OH279404   4.111   1.019   4.989  0.0107  0.9583 -0.3379
19330TIP3    H179405   4.180   0.953   4.984 -1.8436 -1.2002  0.8332
19330TIP3    H279406   4.067   1.013   4.904 -0.1947  0.6594 -0.2089
19331TIP3   OH279407   4.064   4.114   3.076  0.0934 -0.7918  0.2612
19331TIP3    H179408   4.002   4.183   3.099 -0.9435 -0.8171 -2.1731
19331TIP3    H279409   4.149   4.158   3.074 -0.2716 -0.0468  0.6976
19332TIP3   OH279410   3.548   3.833   5.600  0.1116  0.1547  0.3815
19332TIP3    H179411   3.630   3.785   5.612 -0.1803 -0.3941  0.1849
19332TIP3    H279412   3.517   3.807   5.513 -0.6982 -0.2895  0.7900
19333TIP3   OH279413   4.173   2.423   3.151  0.0130 -0.2828  0.3145
19333TIP3    H179414   4.085   2.427   3.188 -1.3026 -1.3543 -2.4665
19333TIP3    H279415   4.184   2.506   3.106  0.3348 -0.2557  0.4383
19334TIP3   OH279416   3.749   5.303   1.450 -0.2413  0.1902  0.7610
19334TIP3    H179417   3.676   5.266   1.400  0.4734 -1.6161  0.9777
19334TIP3    H279418   3.778   5.378   1.398 -1.0211 -0.2261 -0.3133
19335TIP3   OH279419   1.245   4.260   4.930  0.1735 -0.2591  0.0107
19335TIP3    H179420   1.200   4.295   4.853 -0.2090 -0.0509  0.3274
19335TIP3    H279421   1.176   4.246   4.995  0.8127  2.5071  1.4433
19336TIP3   OH279422   0.201   0.552   0.143  0.4663 -0.7218  0.3261
19336TIP3    H179423   0.119   0.558   0.095 -0.2698  2.2482  1.7042
19336TIP3    H279424   0.269   0.559   0.077 -0.3963 -1.3306 -0.6567
19337TIP3   OH279425   0.503   4.150  14.143 -0.0852  0.0594 -0.1536
19337TIP3    H179426   0.432   4.211  14.162 -0.3457  0.1052 -1.2454
19337TIP3    H279427   0.557   4.151  14.222 -1.0373  0.3781  0.5084
19338TIP3   OH279428   5.080   6.206  11.945 -0.6619  0.3516  0.2109
19338TIP3    H179429   5.156   6.229  11.891 -1.1776 -0.2853 -0.8294
19338TIP3    H279430   5.023   6.283  11.939 -0.5818  0.4027  0.0820
19339TIP3   OH279431   1.790   3.955  12.162 -0.3963 -0.0827 -0.7336
19339TIP3    H179432   1.767   3.867  12.134 -0.1827 -1.0908  1.9252
19339TIP3    H279433   1.715   4.009  12.139  0.7962 -0.0723 -5.5417
19340TIP3   OH279434   0.850   2.665   6.032  0.8773 -0.2856  0.0960
19340TIP3    H179435   0.775   2.695   5.980 -0.6421  0.1685  2.4287
19340TIP3    H279436   0.812   2.603   6.095  2.7699 -1.3662  0.2472
19341TIP3   OH279437   2.471   4.223  13.904 -0.7552  0.0329 -0.3591
19341TIP3    H179438   2.483   4.297  13.844  1.1825  1.3699  1.5412
19341TIP3    H279439   2.437   4.153  13.848 -0.2282  1.5568 -2.7665
19342TIP3   OH279440   3.747   3.864   1.847  0.3799  0.6331 -0.1510
19342TIP3    H179441   3.757   3.867   1.943 -1.4360  1.0408  0.0539
19342TIP3    H279442   3.669   3.916   1.830  0.9948  1.0248 -1.9319
19343TIP3   OH279443   1.796   1.999   0.026 -0.5310  0.1922 -0.3941
19343TIP3    H179444   1.760   1.936   0.090 -1.6550  0.7642 -0.4315
19343TIP3    H279445   1.722   2.019  -0.031  0.0122  1.0080 -0.8223
19344TIP3   OH279446   1.879   2.183   5.796 -0.3330  0.0020 -0.2505
19344TIP3    H179447   1.953   2.216   5.744 -0.7242 -1.7526 -2.0590
19344TIP3    H279448   1.919   2.151   5.877  0.4433  1.8441  0.1491
19345TIP3   OH279449   2.836   6.271   5.158  0.5866  0.1943  0.3064
19345TIP3    H179450   2.862   6.354   5.198  0.0748  0.5426 -0.0678
19345TIP3    H279451   2.747   6.287   5.125 -0.1466 -0.9675  1.5782
19346TIP3   OH279452   1.453   1.428   5.873 -0.0261  0.4582 -0.2400
19346TIP3    H179453   1.458   1.335   5.895  0.7819  0.6291  0.3142
19346TIP3    H279454   1.492   1.473   5.947  0.2643  1.2022 -0.8296
19347TIP3   OH279455   1.361   5.276  14.143  0.5310 -0.2064 -0.0399
19347TIP3    H179456   1.315   5.261  14.225  1.3053 -1.3195  0.2189
19347TIP3    H279457   1.319   5.353  14.105 -1.3155 -1.0045  0.3148
19348TIP3   OH279458   4.857   5.113   2.050  0.2544 -0.0207 -0.3007
19348TIP3    H179459   4.929   5.067   2.007 -1.0686 -2.4218 -0.1196
19348TIP3    H279460   4.796   5.134   1.979  1.9245  3.9036 -0.7962
19349TIP3   OH279461   0.343   5.894   4.380  0.5611 -0.1657  0.2422
19349TIP3    H179462   0.407   5.823   4.382  0.5897 -0.3077 -2.2959
19349TIP3    H279463   0.260   5.852   4.359  0.0410  0.2835  1.3059
19350TIP3   OH279464   5.499   3.586  11.897  0.1857  0.0914 -0.1820
19350TIP3    H179465   5.448   3.579  11.977 -1.1802  0.4140 -0.9943
19350TIP3    H279466   5.561   3.513  11.901 -1.2539 -1.1464  0.1895
19351TIP3   OH279467   6.592   0.937  16.609 -0.4213 -0.1286  0.0799
19351TIP3    H179468   6.596   0.920  16.703 -1.6219 -0.0339  0.1615
19351TIP3    H279469   6.499   0.951  16.591 -0.1009  0.8276 -0.9506
19352TIP3   OH279470   4.531   3.904   4.168  0.6219  0.4994 -0.4756
19352TIP3    H179471   4.528   3.854   4.250 -0.5183  1.4903  0.1179
19352TIP3    H279472   4.562   3.841   4.103  1.5307 -0.3181  0.7031
19353TIP3   OH279473   2.894   5.114   3.120 -0.3864 -0.0317 -0.7189
19353TIP3    H179474   2.976   5.082   3.155  0.7983  1.9208 -1.5429
19353TIP3    H279475   2.842   5.137   3.198 -0.7238 -2.4397 -0.1652
19354TIP3   OH279476   4.238   1.336  14.750  0.1147  0.4614 -0.5907
19354TIP3    H179477   4.328   1.328  14.718 -0.1293 -1.5089 -0.8941
19354TIP3    H279478   4.247   1.342  14.846  0.5447 -2.6160 -0.3202
19355TIP3   OH279479   0.879   0.885   0.276 -0.7901  0.1101  0.1410
19355TIP3    H179480   0.851   0.824   0.343 -0.7516  0.4133  0.4374
19355TIP3    H279481   0.862   0.972   0.314 -0.5066  0.2846 -0.1265
19356TIP3   OH279482   6.226   0.493  15.005 -0.1002 -0.3134  0.5012
19356TIP3    H179483   6.315   0.527  15.012 -0.4536  0.4813  1.3228
19356TIP3    H279484   6.234   0.399  15.022  0.6265 -0.3142  0.1785
19357TIP3   OH279485   0.261   1.878  15.960  0.0709  0.0499  0.8517
19357TIP3    H179486   0.175   1.869  16.001 -1.0676  1.1670 -1.1269
19357TIP3    H279487   0.247   1.850  15.870  1.9346 -0.2644  0.6363
19358TIP3   OH279488   0.576   2.441   4.219 -0.4787  0.4140 -0.5762
19358TIP3    H179489   0.579   2.360   4.271  1.8068  0.3418 -0.7215
19358TIP3    H279490   0.636   2.501   4.265  0.2498  0.9388 -2.1480
19359TIP3   OH279491   3.341   3.757  15.240  0.0731 -0.1711  0.5503
19359TIP3    H179492   3.375   3.793  15.321 -0.7558 -1.0350  1.3108
19359TIP3    H279493   3.284   3.684  15.268  1.7752 -2.1716 -0.8817
19360TIP3   OH279494   5.457   0.726  17.247 -0.3344 -0.4832  0.4708
19360TIP3    H179495   5.419   0.714  17.160  0.2882  0.6698  0.0165
19360TIP3    H279496   5.488   0.639  17.272  1.7260 -0.4212 -1.5413
19361TIP3   OH279497   4.105   0.438   4.909 -0.0605 -0.2756 -0.5325
19361TIP3    H179498   4.064   0.352   4.914 -0.0916 -0.2280  0.1093
19361TIP3    H279499   4.095   0.475   4.997 -1.8750  1.2266 -1.3159
19362TIP3   OH279500   1.280   3.544   1.907 -0.4462  0.2800 -0.2697
19362TIP3    H179501   1.262   3.458   1.870  0.4417  0.5337 -1.3442
19362TIP3    H279502   1.239   3.606   1.846  0.1926  0.6667 -0.3170
19363TIP3   OH279503   3.628   4.026   1.058  0.8963 -0.0115 -0.5649
19363TIP3    H179504   3.683   4.027   0.980  0.5923  1.9872 -0.8163
19363TIP3    H279505   3.688   4.009   1.130  2.3268  3.8796 -0.5967
19364TIP3   OH279506   2.222   3.222  15.816  0.4855 -0.2318 -0.6803
19364TIP3    H179507   2.211   3.262  15.902 -1.7123 -0.9276 -0.5815
19364TIP3    H279508   2.214   3.294  15.754 -1.8044 -0.2051 -0.4318
19365TIP3   OH279509   5.147   1.334  14.692  0.2646  0.3763 -0.1165
19365TIP3    H179510   5.116   1.253  14.731  0.6437  0.0416 -0.4967
19365TIP3    H279511   5.183   1.384  14.765  0.9508 -0.2362 -0.0258
19366TIP3   OH279512   0.691   5.398  11.574  0.6372  0.7925 -0.0056
19366TIP3    H179513   0.658   5.309  11.587 -4.4881  2.3932  0.2483
19366TIP3    H279514   0.719   5.400  11.483  0.6634 -0.9780 -0.0863
19367TIP3   OH279515   4.783   2.076   1.826 -0.1067  0.3149  0.0807
19367TIP3    H179516   4.756   2.021   1.752 -0.1037 -0.8829  0.9362
19367TIP3    H279517   4.879   2.068   1.827  0.0113  1.4763 -0.6296
19368TIP3   OH279518   4.253   5.095   1.580 -0.6391  0.2948  0.0883
19368TIP3    H179519   4.281   5.030   1.516  1.5617  1.8749 -0.6617
19368TIP3    H279520   4.280   5.179   1.544  0.1818  1.3108  2.8064
19369TIP3   OH279521   0.594   2.061   6.079 -0.2787  0.0810  0.3825
19369TIP3    H179522   0.590   2.094   6.169  1.4700  0.2545  0.4280
19369TIP3    H279523   0.528   1.992   6.076 -0.6603  0.3598  1.6716
19370TIP3   OH279524   2.360   5.373  13.652  0.0307 -0.2191  0.2438
19370TIP3    H179525   2.351   5.286  13.612  0.8125 -0.3213  0.2759
19370TIP3    H279526   2.368   5.432  13.577  1.2178 -0.3800  0.2164
19371TIP3   OH279527   1.684   1.582  17.277  0.1948 -0.2375  0.0873
19371TIP3    H179528   1.657   1.521  17.345  0.1073 -0.7438 -0.3951
19371TIP3    H279529   1.746   1.640  17.320 -1.5741  0.9202  1.2258
19372TIP3   OH279530   2.182   1.085   2.640 -0.1388  0.2752  0.0106
19372TIP3    H179531   2.198   1.058   2.730 -1.5639 -0.0541  0.1930
19372TIP3    H279532   2.230   1.021   2.587  0.1836  0.0863  0.5227
19373TIP3   OH279533   0.293   2.000  16.277 -0.2490  0.4988  0.1552
19373TIP3    H179534   0.263   2.025  16.364 -1.3630  0.3925 -0.1735
19373TIP3    H279535   0.363   2.062  16.257 -0.6181  1.1261  0.7490
19374TIP3   OH279536   5.224   0.874  12.655 -0.0299  0.7202  0.3526
19374TIP3    H179537   5.221   0.967  12.676 -0.4502  0.2991  2.3764
19374TIP3    H279538   5.286   0.837  12.719  0.5792 -0.3236 -0.7903
19375TIP3   OH279539   0.645   2.550  15.331 -0.0489 -0.5845  0.0157
19375TIP3    H179540   0.623   2.543  15.239  0.6791 -1.7481 -0.0791
19375TIP3    H279541   0.622   2.466  15.369 -1.1771  0.1699  1.1030
19376TIP3   OH279542   4.966   5.911   3.292 -0.5065  0.2309 -0.1447
19376TIP3    H179543   5.046   5.865   3.265 -1.8122 -2.6405  0.4433
19376TIP3    H279544   4.967   5.993   3.243  2.3422 -0.0893 -0.8037
19377TIP3   OH279545   0.415   1.363  11.071  0.3125  0.1645  0.1553
19377TIP3    H179546   0.368   1.402  10.997  2.5622  0.9101 -0.9898
19377TIP3    H279547   0.453   1.282  11.035  1.1161  0.3358  0.5938
19378TIP3   OH279548   1.717   6.508  12.889  0.0251  0.4957  0.5566
19378TIP3    H179549   1.693   6.590  12.845 -1.1651  0.3031  0.8015
19378TIP3    H279550   1.811   6.515  12.904  0.3767  0.8085 -1.4997
19379TIP3   OH279551   3.552   1.517  11.955 -0.3880 -0.2267 -0.1481
19379TIP3    H179552   3.517   1.507  11.866  1.1570 -2.5226 -0.6050
19379TIP3    H279553   3.514   1.444  12.003 -0.8123  0.7075  0.9713
19380TIP3   OH279554   6.577   5.087  17.318 -0.2956  0.4800 -0.0833
19380TIP3    H179555   6.565   5.061  17.227 -0.8972  1.7196 -0.3760
19380TIP3    H279556   6.656   5.141  17.317 -1.1476  1.7681 -0.1653
19381TIP3   OH279557   0.957   4.802  11.720  0.1188  0.7466  0.6993
19381TIP3    H179558   0.903   4.838  11.650 -0.6803 -1.7348 -0.0810
19381TIP3    H279559   0.897   4.791  11.793 -0.2883 -1.1572  0.1317
19382TIP3   OH279560   3.719   5.718   6.312 -0.3533 -0.3371 -0.2211
19382TIP3    H179561   3.666   5.707   6.391  1.0012  0.7875  0.8940
19382TIP3    H279562   3.809   5.702   6.341  0.0642 -0.9400 -1.7779
19383TIP3   OH279563   6.108   3.199   1.096  0.0445  0.1699  0.7542
19383TIP3    H179564   6.054   3.251   1.155  0.8094  1.9134 -0.0002
19383TIP3    H279565   6.184   3.255   1.078  0.8871 -1.2059 -0.1554
19384TIP3   OH279566   6.443   3.882   0.415  0.3358 -0.0161  0.2406
19384TIP3    H179567   6.419   3.840   0.333 -0.0575  1.5029 -0.4418
19384TIP3    H279568   6.492   3.814   0.463 -1.3951 -1.6804 -0.2378
19385TIP3   OH279569   3.330   3.474   2.353 -0.1268  0.2635 -0.6349
19385TIP3    H179570   3.339   3.379   2.348  1.6142  0.3322  0.7471
19385TIP3    H279571   3.382   3.507   2.279 -1.3242  0.1637 -1.5628
19386TIP3   OH279572   1.294   1.865   1.358 -0.2270  0.3479  0.3999
19386TIP3    H179573   1.339   1.948   1.373 -0.3339  0.4920 -0.0782
19386TIP3    H279574   1.201   1.886   1.367 -0.4351  0.8357 -2.1641
19387TIP3   OH279575   6.057   4.394  16.534 -0.2750  0.4040 -0.3551
19387TIP3    H179576   6.086   4.476  16.575 -0.0232 -1.1638  2.9387
19387TIP3    H279577   6.110   4.326  16.576 -1.7177 -1.6238 -1.6402
19388TIP3   OH279578   4.614   5.580  11.757  0.4132  0.4827 -0.0658
19388TIP3    H179579   4.539   5.559  11.813  0.7903 -0.6651  0.0252
19388TIP3    H279580   4.690   5.548  11.805  0.7676 -0.2804 -1.1016
19389TIP3   OH279581   0.334   3.412   4.236  0.0594 -0.5237  0.0173
19389TIP3    H179582   0.300   3.354   4.304 -2.3129  0.9504  0.2110
19389TIP3    H279583   0.394   3.358   4.185  0.4428 -2.1904  2.1202
19390TIP3   OH279584   4.420   6.617   2.622 -0.0691  0.1352 -0.0864
19390TIP3    H179585   4.426   6.688   2.558  0.2015  1.0785  0.9556
19390TIP3    H279586   4.503   6.619   2.668  0.5123 -1.8019 -0.9517
19391TIP3   OH279587   5.223   5.932   3.632  0.3827 -0.1902  0.7236
19391TIP3    H179588   5.307   5.890   3.613  0.5574  0.0747  0.8961
19391TIP3    H279589   5.195   5.969   3.549 -0.2152 -1.4163  0.3635
19392TIP3   OH279590   0.427   5.976   0.825  0.1601 -0.3305 -0.7657
19392TIP3    H179591   0.372   5.955   0.749 -1.4415 -0.9668  0.4948
19392TIP3    H279592   0.399   6.064   0.852 -0.9264 -0.9927  0.3907
19393TIP3   OH279593   2.508   0.568   3.862  0.0446 -0.0876  0.0814
19393TIP3    H179594   2.584   0.560   3.804 -0.5625  0.2516 -0.7800
19393TIP3    H279595   2.460   0.486   3.850 -0.4324  0.2571 -0.4209
19394TIP3   OH279596   1.770   2.615   4.103  0.8056  0.3410 -0.1706
19394TIP3    H179597   1.751   2.618   4.197 -0.4079  0.3711 -0.3968
19394TIP3    H279598   1.744   2.526   4.077  1.7754  0.1065 -0.3539
19395TIP3   OH279599   1.448   4.045   3.061  0.1991  0.1171 -0.2981
19395TIP3    H179600   1.352   4.041   3.057  0.2126 -0.7479 -0.0435
19395TIP3    H279601   1.476   3.954   3.049  0.9559  0.2364  0.4709
19396TIP3   OH279602   4.005   5.225   1.546  0.2316  0.9033  0.0303
19396TIP3    H179603   4.087   5.178   1.562  0.5397  0.9117 -1.3508
19396TIP3    H279604   4.024   5.280   1.470 -0.7643  1.6656  0.3106
19397TIP3   OH279605   2.798   3.417  12.920 -0.0103  0.4465  0.1195
19397TIP3    H179606   2.780   3.501  12.878  0.4792  0.5988  0.2097
19397TIP3    H279607   2.888   3.424  12.951  0.3175 -0.4177 -0.6008
19398TIP3   OH279608   5.135   0.760   2.413 -0.2746 -0.5327  0.3034
19398TIP3    H179609   5.162   0.724   2.497 -0.4946  0.3411  0.7628
19398TIP3    H279610   5.199   0.829   2.395 -0.5777 -0.3197  0.0376
19399TIP3   OH279611   6.014   4.678  12.354  0.3906  0.1917  0.2904
19399TIP3    H179612   5.960   4.605  12.385 -0.8026  0.0792 -1.8936
19399TIP3    H279613   6.094   4.672  12.406 -0.3033 -1.7325  1.2248
19400TIP3   OH279614   4.356   0.074  15.368  0.5590  0.0166 -0.0722
19400TIP3    H179615   4.367  -0.005  15.420 -0.6144 -0.1338 -0.0290
19400TIP3    H279616   4.303   0.047  15.294  1.5090  0.4189 -0.9309
19401TIP3   OH279617   1.794   4.836  16.484 -0.5562  0.7564  0.2200
19401TIP3    H179618   1.775   4.921  16.524 -1.0937  0.6099  0.2920
19401TIP3    H279619   1.744   4.773  16.537  0.8990  0.2279  1.0067
19402TIP3   OH279620   3.282   1.326  13.262  0.4806  0.2821  0.4591
19402TIP3    H179621   3.338   1.399  13.235  0.2774  0.4932  0.6042
19402TIP3    H279622   3.334   1.248  13.243 -0.7731  0.1699 -3.4792
19403TIP3   OH279623   6.729   2.909  14.826  0.1748  0.3677 -0.3668
19403TIP3    H179624   6.707   2.833  14.880  0.6237  0.4861 -0.0131
19403TIP3    H279625   6.697   2.886  14.738 -2.3089  0.9521  0.2915
19404TIP3   OH279626   3.365   2.667  15.151  0.1791  1.0118  0.5831
19404TIP3    H179627   3.368   2.751  15.105 -0.8156  0.9087  0.3174
19404TIP3    H279628   3.430   2.613  15.106 -0.2470  1.1552 -0.2249
19405TIP3   OH279629   6.087   5.171  15.638  0.4455  0.2308  0.6174
19405TIP3    H179630   5.995   5.189  15.617  0.5408 -0.7332 -0.7709
19405TIP3    H279631   6.132   5.174  15.553  1.9218  1.8032  1.3791
19406TIP3   OH279632   4.600   1.660   0.912  0.4721 -0.0355 -0.7951
19406TIP3    H179633   4.543   1.727   0.873 -0.2296  0.4292  0.9557
19406TIP3    H279634   4.669   1.709   0.955  0.2433 -0.4444  0.0568
19407TIP3   OH279635   4.723   2.149  16.940  0.2776  0.0755 -0.3002
19407TIP3    H179636   4.700   2.056  16.945  0.7751 -0.0310  0.1211
19407TIP3    H279637   4.683   2.180  16.859 -2.1705  0.1528  0.8611
19408TIP3   OH279638   4.208   0.272  15.225  0.6515 -0.2264  0.0951
19408TIP3    H179639   4.255   0.223  15.292 -0.8058 -2.1718 -0.2097
19408TIP3    H279640   4.264   0.264  15.147  0.5425 -1.2938  0.1041
19409TIP3   OH279641   6.060   6.559  15.832  0.4770 -0.4844 -0.1013
19409TIP3    H179642   6.109   6.600  15.761 -0.8791 -0.3156 -0.9679
19409TIP3    H279643   5.997   6.626  15.859  0.1581 -0.9910  0.4300
19410TIP3   OH279644   5.065   6.699  10.935  0.3975  0.0613 -0.2747
19410TIP3    H179645   5.087   6.781  10.889  0.2037 -1.1356 -2.6476
19410TIP3    H279646   5.137   6.686  10.996  1.1969  1.2673 -0.9154
19411TIP3   OH279647   1.108   4.512   0.473 -0.2188  0.2882 -0.0114
19411TIP3    H179648   1.117   4.418   0.455 -1.7111 -0.1679  1.3964
19411TIP3    H279649   1.027   4.537   0.428  0.5521  1.1071 -0.9980
19412TIP3   OH279650   0.501   6.409   6.153  0.2318  0.1009  0.2747
19412TIP3    H179651   0.441   6.480   6.130 -0.0612  0.0436  0.8489
19412TIP3    H279652   0.507   6.412   6.248  2.2307  0.9787  0.1616
19413TIP3   OH279653   0.633   0.469   1.372  0.4783 -0.4677  0.4091
19413TIP3    H179654   0.559   0.441   1.317 -0.0428 -1.5949  1.6323
19413TIP3    H279655   0.710   0.435   1.327 -0.0046 -2.1651  0.7850
19414TIP3   OH279656   0.652   5.228   3.799 -0.2559  0.4074 -0.3370
19414TIP3    H179657   0.723   5.252   3.859 -0.7423 -0.8379  0.7945
19414TIP3    H279658   0.574   5.222   3.855 -1.2248  1.4714 -1.5074
19415TIP3   OH279659   4.701   1.925  16.126  0.2704 -0.0412  0.1939
19415TIP3    H179660   4.786   1.917  16.082 -0.2409 -1.8132 -0.5552
19415TIP3    H279661   4.666   1.836  16.127 -0.2434  0.0883  3.2558
19416TIP3   OH279662   2.238   2.895   4.757  0.2601  0.1405 -0.3819
19416TIP3    H179663   2.290   2.815   4.760  1.2774  0.7949 -0.2092
19416TIP3    H279664   2.157   2.869   4.712  0.8726 -0.7993 -0.9736
19417TIP3   OH279665   2.545   1.161   4.614 -0.5710 -0.1930 -0.2163
19417TIP3    H179666   2.512   1.173   4.703 -2.6157 -1.3065 -0.7642
19417TIP3    H279667   2.484   1.099   4.574  1.1089 -0.8235 -1.9666
19418TIP3   OH279668   0.309   0.514  12.498 -0.2590 -0.2436  0.0369
19418TIP3    H179669   0.320   0.419  12.504  0.5191 -0.2267 -0.8754
19418TIP3    H279670   0.395   0.550  12.522 -0.6648  0.2516  0.7824
19419TIP3   OH279671   1.579   4.143   3.779 -0.1870  0.3659 -0.5608
19419TIP3    H179672   1.571   4.168   3.871 -1.8611  0.2906 -0.6629
19419TIP3    H279673   1.633   4.212   3.741  0.2808  0.5589  0.4078
19420TIP3   OH279674   4.850   2.189   5.531  0.4069  0.2036  0.1786
19420TIP3    H179675   4.776   2.248   5.520  0.8278  0.8849  0.9080
19420TIP3    H279676   4.869   2.157   5.443  1.1148  2.3094 -0.4828
19421TIP3   OH279677   2.602   3.541  13.074 -0.5258 -0.7514  0.3093
19421TIP3    H179678   2.603   3.636  13.087 -0.5700 -0.7236  0.1209
19421TIP3    H279679   2.689   3.521  13.038 -0.2995 -0.8668  0.9100
19422TIP3   OH279680   2.665   6.402   2.277 -0.4052  0.6243 -0.1753
19422TIP3    H179681   2.603   6.461   2.234 -1.4142  0.8759  1.5268
19422TIP3    H279682   2.711   6.359   2.205 -1.2217  1.8332 -1.4736
19423TIP3   OH279683   4.232   0.360  17.055 -0.0658 -0.3604  0.0231
19423TIP3    H179684   4.216   0.437  17.109 -1.1359  0.2526 -1.1131
19423TIP3    H279685   4.270   0.296  17.115  1.9708  1.4057  0.7573
19424TIP3   OH279686   0.706   5.214   1.504  0.7956  0.1735  0.2785
19424TIP3    H179687   0.674   5.301   1.481  0.7382  0.0979  0.0757
19424TIP3    H279688   0.761   5.228   1.582 -3.4274 -0.1982  3.7183
19425TIP3   OH279689   2.654   6.291   6.002 -0.1798 -1.1304  0.0650
19425TIP3    H179690   2.748   6.278   5.988 -0.0320 -0.0254 -0.0663
19425TIP3    H279691   2.648   6.376   6.047 -1.1527 -0.8577 -0.5544
19426TIP3   OH279692   4.451   0.756  15.825 -0.2024 -0.3141  0.3349
19426TIP3    H179693   4.454   0.689  15.892 -1.6977 -0.5826  0.1660
19426TIP3    H279694   4.507   0.826  15.858 -0.9076 -0.4384  1.8814
19427TIP3   OH279695   4.831   1.158   4.024  0.0087  0.2135  0.3434
19427TIP3    H179696   4.840   1.092   3.955  0.9481 -0.3190  0.9434
19427TIP3    H279697   4.800   1.236   3.979 -0.4228 -0.4262 -0.5040
19428TIP3   OH279698   0.886   5.110  13.810  0.0557  0.5241 -0.2650
19428TIP3    H179699   0.898   5.148  13.723 -0.6328  0.2538 -0.4838
19428TIP3    H279700   0.972   5.117  13.851  0.1186  1.6624 -0.5627
19429TIP3   OH279701   6.596   4.639  15.187  0.1590  0.0872  0.4986
19429TIP3    H179702   6.599   4.720  15.238  0.4364 -0.6594  1.6881
19429TIP3    H279703   6.516   4.647  15.135 -0.7179  0.4037  1.8420
19430TIP3   OH279704   0.558   5.374  13.495 -0.4437  0.1492 -0.0411
19430TIP3    H179705   0.507   5.328  13.562  0.6461  0.6836  1.1924
19430TIP3    H279706   0.636   5.320  13.484  0.1833  0.9489  0.3861
19431TIP3   OH279707   3.609   5.206  16.335  0.1005 -0.0515 -0.2588
19431TIP3    H179708   3.546   5.222  16.264 -1.1520 -4.2398 -0.3704
19431TIP3    H279709   3.568   5.244  16.412 -1.7911 -1.1087 -0.6748
19432TIP3   OH279710   4.840   1.414  17.093 -0.3231  0.2219 -0.0585
19432TIP3    H179711   4.914   1.404  17.033  0.9364  0.8332  1.3052
19432TIP3    H279712   4.862   1.358  17.167 -0.2767  1.8092  1.1941
19433TIP3   OH279713   6.740   1.946  17.215  0.2283 -0.5710  0.5778
19433TIP3    H179714   6.749   2.036  17.183  1.4914 -1.3984 -1.6895
19433TIP3    H279715   6.646   1.930  17.217 -0.0111 -0.1959 -2.4133
19434TIP3   OH279716   2.162   2.442   4.802 -0.0754  0.2921 -0.0085
19434TIP3    H179717   2.251   2.459   4.832 -0.6233 -0.9209  2.6191
19434TIP3    H279718   2.117   2.526   4.814  0.1828  0.3193  0.8183
19435TIP3   OH279719   3.260   2.655  15.782  0.2151  0.4518 -0.3044
19435TIP3    H179720   3.243   2.564  15.756 -0.8432  0.6413 -0.2888
19435TIP3    H279721   3.341   2.650  15.834 -0.4969 -0.6601  0.7484
19436TIP3   OH279722   1.314   2.160  12.088 -0.2295 -0.0279  0.5836
19436TIP3    H179723   1.402   2.186  12.060 -0.2592  0.4395  0.9129
19436TIP3    H279724   1.280   2.236  12.136 -1.1624  0.1461 -0.3116
19437TIP3   OH279725   1.947   3.389   0.997  0.0653  0.0140  0.6441
19437TIP3    H179726   1.955   3.319   0.933  1.2613  0.4880  0.2409
19437TIP3    H279727   1.929   3.467   0.945  1.3039  0.4491  0.8205
19438TIP3   OH279728   1.175   3.222  12.897 -0.1623 -0.5307  0.6546
19438TIP3    H179729   1.137   3.181  12.819 -0.4102 -0.8939  0.9630
19438TIP3    H279730   1.196   3.148  12.954  0.1392 -0.2724  0.8770
19439TIP3   OH279731   5.788   5.781   5.642 -0.0320  0.3448 -0.4892
19439TIP3    H179732   5.839   5.792   5.722 -1.4598  2.2853  0.2357
19439TIP3    H279733   5.699   5.765   5.673 -0.2078 -1.3176 -1.7240
19440TIP3   OH279734   3.234   4.825   1.898 -0.0786  0.0972 -0.0350
19440TIP3    H179735   3.175   4.899   1.913 -1.1693 -0.7640  0.0787
19440TIP3    H279736   3.285   4.818   1.978 -0.5737  0.1914  0.2933
19441TIP3   OH279737   3.999   6.334  15.254 -0.6158 -0.1028 -0.0924
19441TIP3    H179738   4.029   6.401  15.193 -0.3877 -0.1848 -0.0707
19441TIP3    H279739   3.947   6.274  15.200  0.6146 -0.8625 -0.4614
19442TIP3   OH279740   0.188   5.923  12.397  0.2114  0.1303 -0.0120
19442TIP3    H179741   0.269   5.965  12.427  0.3365  1.2017 -1.7154
19442TIP3    H279742   0.160   5.976  12.322 -1.4980 -0.8612 -0.1229
19443TIP3   OH279743   2.731   3.196   6.931  0.5729  0.3588 -0.7670
19443TIP3    H179744   2.755   3.120   6.983 -0.1937  0.1036 -0.7852
19443TIP3    H279745   2.660   3.237   6.979  1.9669  1.9594  0.0536
19444TIP3   OH279746   4.310   3.387   4.887  0.4690  0.2173  0.3858
19444TIP3    H179747   4.376   3.435   4.837 -0.2811  0.6452 -0.2302
19444TIP3    H279748   4.302   3.435   4.969  1.0269  0.0777  0.5205
19445TIP3   OH279749   1.969   0.596  14.490 -0.5728 -0.0583 -0.0462
19445TIP3    H179750   1.874   0.601  14.498 -0.6829 -1.0492 -0.5431
19445TIP3    H279751   1.994   0.674  14.441 -1.1735  0.0228 -0.2213
19446TIP3   OH279752   3.556   5.985  17.287  0.7726 -1.1604 -0.5062
19446TIP3    H179753   3.554   5.894  17.317  0.2773 -1.0985 -0.3477
19446TIP3    H279754   3.594   5.981  17.199  1.9284 -1.3785 -0.0197
19447TIP3   OH279755   3.519   0.552  15.797  0.0660  0.4368  0.3806
19447TIP3    H179756   3.560   0.466  15.789 -1.5055 -0.3041 -0.1598
19447TIP3    H279757   3.572   0.598  15.862  1.5843 -0.5271 -0.1135
19448TIP3   OH279758   3.108   5.218   0.803 -0.2535  0.2880 -0.3769
19448TIP3    H179759   3.144   5.144   0.851 -0.2762  0.4029 -0.1817
19448TIP3    H279760   3.084   5.282   0.871 -2.0499 -0.3148 -0.3737
19449TIP3   OH279761   5.942   6.553  14.935 -0.4125  0.0341 -0.7764
19449TIP3    H179762   5.933   6.602  15.017  0.0600  0.0633 -0.7371
19449TIP3    H279763   5.858   6.566  14.890 -1.0399 -0.7731  0.1249
19450TIP3   OH279764   0.798   3.689   3.947 -0.2195 -0.6324 -0.1650
19450TIP3    H179765   0.808   3.777   3.983 -0.0576 -0.3968 -0.7805
19450TIP3    H279766   0.781   3.634   4.024 -0.6073 -0.0270  0.1949
19451TIP3   OH279767   3.972   6.325  12.121  0.1673  0.2006  0.5340
19451TIP3    H179768   3.980   6.390  12.050 -0.1617  0.0834  0.3887
19451TIP3    H279769   3.893   6.276  12.100 -0.6333  0.9664  1.6519
19452TIP3   OH279770   5.895   4.519   2.487  0.1815 -0.0404 -0.1176
19452TIP3    H179771   5.828   4.535   2.553  0.0468  0.5798 -0.3965
19452TIP3    H279772   5.950   4.598   2.487 -0.0304  0.1255 -0.9844
19453TIP3   OH279773   3.276   5.654  15.941 -0.2731  0.1037 -0.1302
19453TIP3    H179774   3.321   5.677  15.860  0.3238  0.8570  0.4024
19453TIP3    H279775   3.346   5.646  16.007 -0.6119 -1.7256  0.0640
19454TIP3   OH279776   4.785   6.453  10.980  0.0540  0.5261  0.2762
19454TIP3    H179777   4.866   6.412  11.007 -0.7852 -0.7552  0.9283
19454TIP3    H279778   4.750   6.395  10.912 -0.0957  1.3236 -0.3487
19455TIP3   OH279779   2.105   5.938   0.101  0.0547  0.3998  0.3554
19455TIP3    H179780   2.187   5.956   0.056 -0.5402  0.7972 -0.6047
19455TIP3    H279781   2.118   5.853   0.143  0.9385  0.4491  0.1886
19456TIP3   OH279782   5.563   1.330   5.957 -0.0943 -0.3611 -0.0057
19456TIP3    H179783   5.556   1.259   6.021 -1.0243  0.4738  0.8660
19456TIP3    H279784   5.518   1.298   5.880 -0.3344 -0.7879  0.3071
19457TIP3   OH279785   1.469   4.046   6.061  0.5869 -0.5698  0.4332
19457TIP3    H179786   1.516   3.995   5.995 -1.1951 -0.7128 -0.8065
19457TIP3    H279787   1.467   4.135   6.026 -0.0944 -0.5796  0.4358
19458TIP3   OH279788   6.100   3.756  10.615 -0.5613  0.1700  0.2904
19458TIP3    H179789   6.090   3.673  10.660  0.1243  0.7054  1.4828
19458TIP3    H279790   6.111   3.820  10.685 -1.2436  1.3029 -0.5894
19459TIP3   OH279791   1.069   5.837  11.073  0.2122 -0.0670 -0.4691
19459TIP3    H179792   1.094   5.871  10.987  0.8985 -1.0899 -0.6936
19459TIP3    H279793   0.985   5.794  11.057 -0.7915  1.6547 -0.1291
19460TIP3   OH279794   4.886   6.546  12.283  0.1406  0.3076  0.0445
19460TIP3    H179795   4.845   6.466  12.252  0.8142  0.4487 -1.2449
19460TIP3    H279796   4.891   6.535  12.378 -2.3445  0.0455  0.2199
19461TIP3   OH279797   5.293   2.929   5.160 -0.3808 -0.2024  0.2802
19461TIP3    H179798   5.346   2.916   5.238  1.4191  0.8985 -0.7023
19461TIP3    H279799   5.221   2.985   5.189  0.5514  0.6284  1.0373
19462TIP3   OH279800   4.887   3.305  16.700 -0.1627  0.0758  0.0217
19462TIP3    H179801   4.925   3.274  16.782  1.1386  0.8017 -0.2783
19462TIP3    H279802   4.794   3.285  16.708  0.2114 -1.5214  0.9079
19463TIP3   OH279803   1.056   1.029  14.451 -0.1334  0.5337  0.0439
19463TIP3    H179804   1.144   0.995  14.466 -0.5703 -2.2198 -2.5765
19463TIP3    H279805   1.006   1.002  14.527  0.6782 -0.4123  0.2651
19464TIP3   OH279806   0.108   1.100   0.514 -0.1669  0.5315  0.0782
19464TIP3    H179807   0.188   1.066   0.475 -0.6872  1.5937 -2.0571
19464TIP3    H279808   0.137   1.176   0.565  0.0476  2.0833 -2.2264
19465TIP3   OH279809   6.011   3.644   3.607 -0.3889 -0.6915 -0.0667
19465TIP3    H179810   6.063   3.706   3.555 -3.7623  1.0585 -1.7357
19465TIP3    H279811   6.074   3.603   3.666  2.8464  0.9643 -2.0626
19466TIP3   OH279812   0.936   2.285   3.755  0.6928  0.2444 -0.4239
19466TIP3    H179813   0.920   2.191   3.744 -0.2695  0.2853  0.3998
19466TIP3    H279814   0.968   2.315   3.670  1.0843 -0.8407 -0.6717
19467TIP3   OH279815   2.121   3.182   5.660 -0.1162 -0.0034  0.9646
19467TIP3    H179816   2.068   3.195   5.738  2.2208  2.0117  2.3638
19467TIP3    H279817   2.146   3.089   5.663 -0.7383 -0.1533  2.1310
19468TIP3   OH279818   3.554   5.730   4.186 -0.4123  0.5803 -0.0535
19468TIP3    H179819   3.514   5.738   4.273 -0.5790 -0.0541 -0.0661
19468TIP3    H279820   3.592   5.816   4.169  0.2792  0.4963  0.9654
19469TIP3   OH279821   4.867   1.577   2.403  0.1500  0.1983 -0.5539
19469TIP3    H179822   4.898   1.488   2.384  3.0255  1.0263 -0.2124
19469TIP3    H279823   4.811   1.566   2.479  0.8750 -1.2948 -0.1787
19470TIP3   OH279824   2.547   6.685   3.281  0.3275 -0.4440 -0.2544
19470TIP3    H179825   2.506   6.770   3.290  0.1092 -0.5616 -0.1407
19470TIP3    H279826   2.475   6.624   3.262  0.0513 -1.1040  2.5523
19471TIP3   OH279827   0.873   4.909   3.236  0.0747 -0.3040 -0.5252
19471TIP3    H179828   0.850   4.823   3.201 -0.7153 -0.1748 -0.3387
19471TIP3    H279829   0.854   4.969   3.164  0.8584 -0.3065 -0.7405
19472TIP3   OH279830   1.747   3.482   1.785 -0.1871 -0.3521  0.0134
19472TIP3    H179831   1.663   3.457   1.746  0.3406 -0.6047 -0.9915
19472TIP3    H279832   1.808   3.415   1.755  0.4231 -0.0502  0.5592
19473TIP3   OH279833   3.903   0.666   3.262  0.5225 -0.0365  0.4153
19473TIP3    H179834   3.948   0.623   3.189  1.3299 -0.5893  1.2161
19473TIP3    H279835   3.824   0.614   3.275 -0.3994  0.9235 -0.9805
19474TIP3   OH279836   1.094   4.610   2.256  0.3404 -0.1999 -0.2855
19474TIP3    H179837   1.065   4.626   2.346  0.8132  0.5912 -0.2676
19474TIP3    H279838   1.190   4.609   2.261  0.4641  1.8078 -1.0628
19475TIP3   OH279839   5.404   0.356  13.664 -0.3376  0.1193  0.3576
19475TIP3    H179840   5.495   0.387  13.672 -0.4768  0.5831  0.1750
19475TIP3    H279841   5.412   0.269  13.626  0.1024 -0.4131  1.6215
19476TIP3   OH279842   2.703   2.130  11.762 -0.4851 -0.0301  0.4512
19476TIP3    H179843   2.743   2.188  11.827  0.9652 -0.7328  0.2183
19476TIP3    H279844   2.777   2.098  11.709 -1.4339 -0.8483 -0.4250
19477TIP3   OH279845   2.460   5.349  11.697  0.1392 -0.1401 -0.7017
19477TIP3    H179846   2.396   5.411  11.664 -0.0227  0.5986  0.9080
19477TIP3    H279847   2.491   5.302  11.619  0.4555  2.1069 -2.0205
19478TIP3   OH279848   5.587   2.091  14.486  0.3945  0.3562  0.1765
19478TIP3    H179849   5.499   2.125  14.472  1.0721  1.6268 -1.3560
19478TIP3    H279850   5.622   2.141  14.559 -0.2728 -0.4433  1.0632
19479TIP3   OH279851   2.443   0.789  15.675 -0.1568 -0.1658  0.4444
19479TIP3    H179852   2.453   0.750  15.588  2.2801  0.3354  0.4153
19479TIP3    H279853   2.409   0.719  15.729 -1.0819 -0.6801 -0.7669
19480TIP3   OH279854   0.793   1.603  12.870  0.5908 -0.4569  0.5510
19480TIP3    H179855   0.819   1.691  12.900  0.6251 -0.3782  0.2921
19480TIP3    H279856   0.848   1.587  12.793 -1.1348  0.3296 -0.9205
19481TIP3   OH279857   5.987   0.313   2.404  0.3726 -0.0979  0.0919
19481TIP3    H179858   5.963   0.284   2.491 -1.2053  1.4565  0.2220
19481TIP3    H279859   5.907   0.304   2.352  0.6721  1.0342 -0.6123
19482TIP3   OH279860   3.933   0.064  13.575  0.3735  0.1227  0.9686
19482TIP3    H179861   3.838   0.065  13.563  0.7013  1.8765 -2.9760
19482TIP3    H279862   3.953   0.148  13.616  0.3213  0.8993 -0.5124
19483TIP3   OH279863   0.126   0.152   4.662 -0.2381 -0.2543  0.0976
19483TIP3    H179864   0.210   0.190   4.689  0.4169 -0.8340 -1.0445
19483TIP3    H279865   0.060   0.213   4.695  0.6197  0.1626  1.1033
19484TIP3   OH279866   0.873   0.905   3.602 -0.2036  0.2202  0.8260
19484TIP3    H179867   0.812   0.951   3.545 -2.1805 -0.3883  2.3445
19484TIP3    H279868   0.894   0.824   3.555 -0.3190  0.5749  0.1649
19485TIP3   OH279869   2.387   6.081   3.253  0.8304 -0.2761  0.0129
19485TIP3    H179870   2.360   6.075   3.344 -0.1144  1.6812 -0.0663
19485TIP3    H279871   2.459   6.144   3.253 -0.2667  1.0467 -0.7256
19486TIP3   OH279872   5.658   5.295  16.925  0.7336 -0.1357 -0.0915
19486TIP3    H179873   5.603   5.226  16.962  0.3449  0.0433 -0.3277
19486TIP3    H279874   5.604   5.336  16.858  1.3874 -0.3841 -0.7853
19487TIP3   OH279875   0.771   2.595   0.480 -0.3107  0.1814 -0.0420
19487TIP3    H179876   0.689   2.636   0.506  0.3528  1.0504  0.7172
19487TIP3    H279877   0.750   2.501   0.477 -1.3276  0.3855  0.0988
19488TIP3   OH279878   5.395   4.446  16.524  0.0517  0.0411 -0.8036
19488TIP3    H179879   5.392   4.366  16.576  1.9227  1.2199  1.3175
19488TIP3    H279880   5.438   4.420  16.443  1.3424 -1.0112  0.1645
19489TIP3   OH279881   0.975   2.510   6.298 -0.2040 -0.5567 -0.5357
19489TIP3    H179882   1.059   2.477   6.331 -1.0276 -0.1407  2.2593
19489TIP3    H279883   0.928   2.433   6.267  0.5335 -1.0273 -0.4885
19490TIP3   OH279884   6.170   1.585   5.849 -0.2840 -0.0836 -0.0810
19490TIP3    H179885   6.195   1.646   5.919 -1.5410 -0.4232  0.7040
19490TIP3    H279886   6.144   1.642   5.776  0.0578  0.2970  0.0905
19491TIP3   OH279887   3.496   2.402  11.778 -0.7426  0.1667  0.2760
19491TIP3    H179888   3.551   2.480  11.779 -1.8471  0.9761  0.4054
19491TIP3    H279889   3.527   2.348  11.850  0.5818  0.0795 -0.3377
19492TIP3   OH279890   3.551   4.012   3.483 -0.0716 -0.1198 -0.2144
19492TIP3    H179891   3.479   3.949   3.483 -1.2384  1.1752 -0.8386
19492TIP3    H279892   3.526   4.077   3.549  2.3769 -1.6036  2.4133
19493TIP3   OH279893   6.397   0.001  16.972 -0.1612 -0.3193 -0.1823
19493TIP3    H179894   6.456  -0.029  16.903 -0.1741 -0.1495 -0.2696
19493TIP3    H279895   6.337   0.060  16.927 -0.2756 -0.3412 -0.0568
19494TIP3   OH279896   2.633   0.204   4.698  0.8085 -0.6390  0.0156
19494TIP3    H179897   2.682   0.286   4.701  0.2725 -0.3182  2.3470
19494TIP3    H279898   2.565   0.215   4.764 -0.3737 -2.3197 -0.8466
19495TIP3   OH279899   2.359   5.058   0.522 -0.4722 -0.2863 -0.4877
19495TIP3    H179900   2.314   5.142   0.528 -1.7252 -1.0167  3.5744
19495TIP3    H279901   2.419   5.058   0.597  1.6825 -1.9115 -2.0839
19496TIP3   OH279902   3.851   2.753   3.990 -0.1165  0.4210  0.1172
19496TIP3    H179903   3.801   2.717   3.916 -0.1037  2.6365 -1.0480
19496TIP3    H279904   3.942   2.746   3.963 -0.0710  0.6675  0.2117
19497TIP3   OH279905   1.535   3.696   2.246 -0.5533 -0.3119 -0.0416
19497TIP3    H179906   1.464   3.716   2.306 -1.0249 -1.7549 -0.0676
19497TIP3    H279907   1.604   3.659   2.301  0.4403  1.5401  0.0594
19498TIP3   OH279908   3.716   0.872   2.810  0.1221 -0.1938  0.5064
19498TIP3    H179909   3.630   0.832   2.815 -0.0770  0.0812 -0.4436
19498TIP3    H279910   3.765   0.834   2.883 -0.4998 -1.0859  0.4770
19499TIP3   OH279911   2.174   5.896  13.047 -0.5924 -1.1125 -0.4796
19499TIP3    H179912   2.228   5.821  13.071  1.3522  0.0679 -0.9446
19499TIP3    H279913   2.142   5.930  13.131 -0.7262 -1.8992 -0.2027
19500TIP3   OH279914   1.675   1.720  17.004  0.2083  0.2735  0.5247
19500TIP3    H179915   1.628   1.796  17.039  0.9895  0.7614  0.5560
19500TIP3    H279916   1.737   1.696  17.073 -1.0467 -1.3683  1.1439
19501TIP3   OH279917   2.215   4.761   6.475 -0.2652 -0.4219  0.4665
19501TIP3    H179918   2.162   4.701   6.526 -0.4687 -0.5083  0.1552
19501TIP3    H279919   2.276   4.705   6.428 -0.9631 -0.4561 -0.4242
19502TIP3   OH279920   4.271   0.867   3.944  1.0485 -0.3086 -0.3913
19502TIP3    H179921   4.292   0.913   4.026  1.6419 -0.5188 -0.4172
19502TIP3    H279922   4.183   0.831   3.958  1.7374 -1.6778  0.7781
19503TIP3   OH279923   2.974   0.684  11.126 -0.4024 -1.1285 -0.2167
19503TIP3    H179924   2.945   0.596  11.102 -1.8772 -1.7472  3.1612
19503TIP3    H279925   3.037   0.671  11.197 -1.2248  0.4786  0.9027
19504TIP3   OH279926   0.909   1.470  14.766 -0.0463  0.3348  0.3193
19504TIP3    H179927   0.970   1.441  14.833 -0.8539  1.8719  1.8234
19504TIP3    H279928   0.829   1.420  14.782 -0.3068  0.8488  0.6605
19505TIP3   OH279929   6.557   3.023   4.335 -0.2097  0.2985 -0.0426
19505TIP3    H179930   6.571   3.117   4.333 -1.4351  0.5052  0.1871
19505TIP3    H279931   6.498   3.006   4.261  1.2697 -0.5323 -1.0718
19506TIP3   OH279932   5.757   3.771  16.050 -0.2564  0.1479 -0.5548
19506TIP3    H179933   5.779   3.704  16.115  0.6796  0.2514 -0.7534
19506TIP3    H279934   5.840   3.815  16.032 -0.5047  0.1502 -1.7933
19507TIP3   OH279935   3.972   4.929   3.717 -0.0820  0.0706 -0.0053
19507TIP3    H179936   3.979   4.946   3.811 -0.1560 -0.9870  0.2071
19507TIP3    H279937   3.878   4.930   3.699 -0.1239 -0.7227  0.1389
19508TIP3   OH279938   6.754   2.395   1.679  0.6390  0.6705  0.0549
19508TIP3    H179939   6.703   2.423   1.603 -1.4690  0.7871  1.4293
19508TIP3    H279940   6.795   2.475   1.711 -0.7250  1.1981  0.6018
19509TIP3   OH279941   5.631   2.369  14.986 -0.4734  0.6027  0.1685
19509TIP3    H179942   5.589   2.455  14.980  0.2853  0.9730 -0.0724
19509TIP3    H279943   5.683   2.374  15.066  0.1500  0.6514 -0.2273
19510TIP3   OH279944   1.290   5.311   4.597  0.1238  0.1456  0.1052
19510TIP3    H179945   1.285   5.399   4.560 -0.4217 -0.1395 -0.5150
19510TIP3    H279946   1.371   5.275   4.561 -0.0288  0.1367 -0.2417
19511TIP3   OH279947   2.264   5.620   2.933  0.0635 -0.0894  0.4929
19511TIP3    H179948   2.223   5.560   2.870  0.1558  0.2849  0.0712
19511TIP3    H279949   2.355   5.626   2.903  0.5388 -1.1866  1.6235
19512TIP3   OH279950   6.340   3.284  17.294 -0.5922  0.1139 -0.0744
19512TIP3    H179951   6.292   3.207  17.324  0.4555 -0.0668  1.2172
19512TIP3    H279952   6.405   3.250  17.234  0.8855 -0.2656  1.6575
19513TIP3   OH279953   6.562   4.472   2.424  0.1814  0.1372  0.1573
19513TIP3    H179954   6.572   4.560   2.387 -0.8165 -0.9039 -2.9151
19513TIP3    H279955   6.475   4.473   2.465  0.8278  0.9862  1.5769
19514TIP3   OH279956   4.056   0.305  14.660 -0.0723  0.4765 -0.4637
19514TIP3    H179957   4.029   0.257  14.582 -1.0374 -1.1092  0.7820
19514TIP3    H279958   3.973   0.327  14.704  0.4937 -0.5797  1.2088
19515TIP3   OH279959   2.605   3.165   1.949 -0.1245  0.1200 -0.7846
19515TIP3    H179960   2.539   3.196   2.011 -0.4056  1.7890 -1.8589
19515TIP3    H279961   2.680   3.142   2.004 -0.8188  0.3078  0.2813
19516TIP3   OH279962   0.673   2.462  13.140 -0.6160 -0.6289  0.4676
19516TIP3    H179963   0.677   2.396  13.071 -1.9520 -0.1326 -0.1047
19516TIP3    H279964   0.595   2.440  13.190 -1.5980  0.9955 -0.2639
19517TIP3   OH279965   4.747   4.975  11.972 -0.4167  0.5646  0.9761
19517TIP3    H179966   4.790   5.061  11.965  0.7647 -0.1037 -1.0120
19517TIP3    H279967   4.815   4.913  11.945 -1.9030 -0.7809  0.1751
19518TIP3   OH279968   3.113   0.166   3.578  0.3963  0.0149  0.4129
19518TIP3    H179969   3.075   0.090   3.624 -0.5436 -1.5781 -2.7014
19518TIP3    H279970   3.204   0.141   3.561 -0.3662 -1.3506 -2.1631
19519TIP3   OH279971   0.507   2.764  17.069  0.3577  0.1794  0.6702
19519TIP3    H179972   0.494   2.691  17.009  0.5940  0.3612  0.3989
19519TIP3    H279973   0.457   2.836  17.031  1.5595  0.6894 -0.0280
19520TIP3   OH279974   2.979   0.137  14.875 -0.2062  0.1124  0.0511
19520TIP3    H179975   2.956   0.197  14.947  0.4403  0.9568 -0.4247
19520TIP3    H279976   2.899   0.129  14.824  0.0522  1.7201 -0.6718
19521TIP3   OH279977   6.210   0.264   3.653  0.0027  0.4184 -0.1923
19521TIP3    H179978   6.191   0.242   3.744 -0.4400 -1.3626 -0.6714
19521TIP3    H279979   6.296   0.306   3.655  0.3395 -0.2983  0.9727
19522TIP3   OH279980   3.749   1.780   1.798  0.0041  0.4363 -0.2709
19522TIP3    H179981   3.734   1.749   1.887  1.5369 -0.3019 -0.2510
19522TIP3    H279982   3.661   1.781   1.759 -0.4820 -0.8968  0.7007
19523TIP3   OH279983   2.400   6.151   3.526  0.6049  0.4421 -0.2473
19523TIP3    H179984   2.444   6.072   3.556 -1.1793 -0.4644  0.0997
19523TIP3    H279985   2.421   6.217   3.592  0.5998 -0.2438  0.4458
19524TIP3   OH279986   0.804   3.480   3.314 -0.2202 -0.1681  0.1607
19524TIP3    H179987   0.778   3.540   3.384 -0.3632  1.0501 -0.9117
19524TIP3    H279988   0.768   3.519   3.234  1.5134 -0.5559 -0.8450
19525TIP3   OH279989   5.761   3.500   5.936 -0.0884  0.6886  0.5173
19525TIP3    H179990   5.792   3.560   5.868 -1.8103  1.7584  0.6254
19525TIP3    H279991   5.666   3.501   5.928 -0.2081 -1.6767  0.8789
19526TIP3   OH279992   5.002   0.589   2.238  0.0691 -0.1822  0.1163
19526TIP3    H179993   5.050   0.582   2.155 -0.3599  0.8700 -0.2314
19526TIP3    H279994   5.046   0.660   2.285  0.9829 -1.4709  1.2642
19527TIP3   OH279995   2.665   4.072   6.784  0.5093  0.5346 -0.2309
19527TIP3    H179996   2.626   3.992   6.817  2.0070 -0.6547 -1.1863
19527TIP3    H279997   2.730   4.042   6.720 -0.0602  2.5758 -1.8751
19528TIP3   OH279998   3.271   5.813   5.301 -0.2901 -0.4248 -0.1950
19528TIP3    H179999   3.344   5.846   5.352 -0.1061 -0.7244 -0.2582
19528TIP3    H280000   3.256   5.724   5.334 -1.6363  0.1590  0.8845
19529TIP3   OH280001   2.065   1.485   1.991 -0.0613  0.0221  0.2226
19529TIP3    H180002   2.138   1.466   1.932  0.0239 -0.6986  0.5484
19529TIP3    H280003   2.043   1.400   2.030 -1.6097  0.0661 -0.4884
19530TIP3   OH280004   5.153   3.600   5.489  0.1073 -0.1737 -0.0066
19530TIP3    H180005   5.081   3.642   5.441 -0.1016 -1.7511 -1.1610
19530TIP3    H280006   5.112   3.570   5.571 -0.1092  0.4658  0.1278
19531TIP3   OH280007   1.708   1.163  14.550  0.1852 -0.2605 -0.3885
19531TIP3    H180008   1.706   1.096  14.619  0.1384 -0.0690 -0.2023
19531TIP3    H280009   1.724   1.113  14.470 -2.4331 -0.8035 -0.6402
19532TIP3   OH280010   2.939   4.886   0.730 -0.4744  0.0174 -0.0324
19532TIP3    H180011   2.886   4.882   0.810  0.7716  0.3950  0.8302
19532TIP3    H280012   2.959   4.795   0.710  1.7055 -0.0081  1.8303
19533TIP3   OH280013   0.177   0.730  13.216 -0.1840  0.0887 -0.2987
19533TIP3    H180014   0.086   0.744  13.190 -0.4134 -1.3882 -0.3507
19533TIP3    H280015   0.174   0.656  13.276  1.2562 -1.6334 -2.2100
19534TIP3   OH280016   6.521   1.961  10.957  0.2716  0.4659 -0.4161
19534TIP3    H180017   6.565   1.878  10.974 -0.0675  0.3593 -0.0447
19534TIP3    H280018   6.455   1.940  10.890  0.1342  0.4180 -0.2666
19535TIP3   OH280019   4.594   5.408   4.156  0.5596  0.2196  0.1078
19535TIP3    H180020   4.615   5.433   4.246  0.2521  0.3634  0.1382
19535TIP3    H280021   4.500   5.423   4.147  0.7367  1.0759 -0.5151
19536TIP3   OH280022   2.447   1.271  12.305 -0.5565  0.3547 -0.3215
19536TIP3    H180023   2.478   1.186  12.274 -0.5331  0.5475 -0.8232
19536TIP3    H280024   2.352   1.264  12.303 -0.5565  0.1734  0.1045
19537TIP3   OH280025   1.499   1.574  11.717 -0.1059  0.1970 -0.4473
19537TIP3    H180026   1.407   1.576  11.690 -0.3265  2.8129  0.2525
19537TIP3    H280027   1.542   1.638  11.661  1.1941 -0.5270 -0.3242
19538TIP3   OH280028   1.190   4.341  11.048 -0.2671 -0.5783 -0.2473
19538TIP3    H180029   1.094   4.344  11.047 -0.2788 -0.5315 -1.8292
19538TIP3    H280030   1.211   4.267  10.992  0.6350  0.5767 -1.4833
19539TIP3   OH280031   0.665   0.633   0.420  0.3401 -0.4028 -0.0288
19539TIP3    H180032   0.755   0.617   0.389 -0.0918 -3.2363 -0.0792
19539TIP3    H280033   0.613   0.637   0.340  0.2267 -0.1812  0.0563
19540TIP3   OH280034   4.963   6.427   6.018 -0.1454  0.1064 -0.4725
19540TIP3    H180035   4.964   6.517   6.052  1.1915 -0.2194  0.4273
19540TIP3    H280036   4.936   6.436   5.927 -1.8214  1.2241  0.0733
19541TIP3   OH280037   3.029   3.191   0.658  0.2157 -0.3563 -0.4349
19541TIP3    H180038   3.058   3.282   0.647  0.4404 -0.6864 -3.1605
19541TIP3    H280039   3.073   3.143   0.588 -0.4777 -2.4675  0.4927
19542TIP3   OH280040   5.034   3.195  12.523  0.6343  0.3467 -0.2723
19542TIP3    H180041   5.043   3.290  12.527  2.1179  0.2080  0.1364
19542TIP3    H280042   5.082   3.163  12.599  1.8245 -0.8146 -1.4662
19543TIP3   OH280043   1.667   0.020   1.634  0.2818 -0.7310  0.2110
19543TIP3    H180044   1.752   0.064   1.640 -0.3000  0.6506 -1.0308
19543TIP3    H280045   1.603   0.090   1.644 -0.6989 -1.4344 -0.8904
19544TIP3   OH280046   6.721   0.515   2.255  0.4362 -0.1059 -0.3785
19544TIP3    H180047   6.741   0.586   2.194 -0.8699  0.0821 -0.6217
19544TIP3    H280048   6.634   0.538   2.290 -0.5895 -2.1702 -1.3947
19545TIP3   OH280049   5.500   6.733   3.953  0.1465 -0.2023 -0.2447
19545TIP3    H180050   5.547   6.702   4.030 -0.2998  0.6166  0.3756
19545TIP3    H280051   5.482   6.654   3.903  1.5183 -0.6093 -0.1307
19546TIP3   OH280052   0.457   1.603   3.858  0.2978 -0.1059 -0.1544
19546TIP3    H180053   0.538   1.653   3.843  1.6988 -2.7605 -2.4340
19546TIP3    H280054   0.470   1.561   3.943 -0.3096  2.1589  1.1385
19547TIP3   OH280055   4.095   4.912   5.743  0.1192 -0.4762  0.0918
19547TIP3    H180056   4.172   4.856   5.756 -1.3392 -2.3855  0.9007
19547TIP3    H280057   4.044   4.867   5.676 -1.2182 -0.2620  0.9429
19548TIP3   OH280058   4.218   4.982  12.567  0.5668 -0.2669 -0.2648
19548TIP3    H180059   4.208   5.026  12.651 -1.9365 -0.1781 -0.5307
19548TIP3    H280060   4.301   5.015  12.532  0.1148  2.1636  0.7607
19549TIP3   OH280061   5.847   5.793   0.498  0.1742 -0.2591  0.4597
19549TIP3    H180062   5.897   5.752   0.427 -0.6012  0.0393 -0.2637
19549TIP3    H280063   5.851   5.729   0.569 -0.5141 -1.3401 -0.4502
19550TIP3   OH280064   6.508   5.210   6.376  0.3755 -0.7892 -0.2236
19550TIP3    H180065   6.584   5.201   6.319  1.9802 -1.2640  1.8658
19550TIP3    H280066   6.514   5.137   6.437 -2.3499 -1.4160 -0.5532
19551TIP3   OH280067   3.339   0.267  12.339 -0.0845 -0.4590 -0.2265
19551TIP3    H180068   3.378   0.308  12.262 -0.6018  0.4091 -0.0389
19551TIP3    H280069   3.362   0.325  12.411 -2.1045  0.3708 -0.1758
19552TIP3   OH280070   0.875   6.000   5.595  0.0020 -0.4105  0.2096
19552TIP3    H180071   0.850   5.958   5.513 -0.4477 -0.5054  0.3920
19552TIP3    H280072   0.890   6.091   5.573 -0.9000 -0.2694  0.1717
19553TIP3   OH280073   1.652   1.419   3.897 -0.2255  0.1094  0.0594
19553TIP3    H180074   1.559   1.402   3.880 -0.8160  2.2577  0.8048
19553TIP3    H280075   1.654   1.453   3.986  1.2359  0.3343 -0.0422
19554TIP3   OH280076   2.464   2.670   1.316 -0.3220 -0.4450  0.5668
19554TIP3    H180077   2.548   2.712   1.299 -0.5061  0.1627  1.1547
19554TIP3    H280078   2.477   2.624   1.399 -0.4288 -0.7493  0.4183
19555TIP3   OH280079   4.268   5.396  11.888  0.3458 -0.5079 -0.1857
19555TIP3    H180080   4.267   5.391  11.793 -0.9519  0.1572 -0.2340
19555TIP3    H280081   4.311   5.479  11.908  0.9923 -0.8411 -0.1661
19556TIP3   OH280082   2.070   1.045   4.626 -0.2284  0.4710 -0.7623
19556TIP3    H180083   2.011   1.025   4.553 -0.1350  1.6362 -1.1682
19556TIP3    H280084   2.147   1.085   4.585 -0.7120  2.3333  0.0525
19557TIP3   OH280085   5.452   1.148   4.990 -0.0728  0.1304  0.3918
19557TIP3    H180086   5.425   1.199   5.066  0.5279  0.9589  0.0607
19557TIP3    H280087   5.442   1.208   4.916  2.9497  0.6590  0.2865
19558TIP3   OH280088   6.063   3.564  12.227  0.2559 -0.5510  0.6383
19558TIP3    H180089   6.039   3.503  12.157  0.9477  0.8472 -0.8902
19558TIP3    H280090   5.982   3.579  12.275 -0.3910 -1.0761 -0.2647
19559TIP3   OH280091   5.342   1.138  13.783  0.6275 -0.0989 -0.2718
19559TIP3    H180092   5.399   1.206  13.749 -0.5570  1.8938  1.4639
19559TIP3    H280093   5.283   1.117  13.711 -0.1066  2.0457 -0.3632
19560TIP3   OH280094   1.037   1.165   1.338 -0.4382  0.3432  0.1030
19560TIP3    H180095   1.041   1.070   1.340 -0.2988  0.3521  0.3130
19560TIP3    H280096   1.020   1.191   1.428 -0.1567  0.5290  0.1057
19561TIP3   OH280097   3.316   6.566  11.278 -0.1967  0.0913 -0.3856
19561TIP3    H180098   3.327   6.471  11.276 -1.1177 -0.0415  0.5557
19561TIP3    H280099   3.383   6.598  11.217 -0.0254 -1.1620 -0.8974
19562TIP3   OH280100   3.310   5.374  13.956 -0.4971 -0.2768 -0.1209
19562TIP3    H180101   3.381   5.437  13.944 -0.0903 -0.8485 -0.8415
19562TIP3    H280102   3.233   5.418  13.920 -0.2165 -0.1720 -0.6105
19563TIP3   OH280103   5.384   5.819  12.895  0.0344 -0.0155 -0.7839
19563TIP3    H180104   5.424   5.805  12.809  0.7667  1.1545 -0.6450
19563TIP3    H280105   5.441   5.772  12.956 -0.7514 -1.2497 -0.9735
19564TIP3   OH280106   2.707   4.970   2.796 -0.4207 -0.3905 -0.0811
19564TIP3    H180107   2.771   4.955   2.865 -1.2766  0.5492  0.9407
19564TIP3    H280108   2.752   4.941   2.716  1.1535 -0.0940  0.6416
19565TIP3   OH280109   1.236   3.960   2.300 -0.2657  0.6839  0.4316
19565TIP3    H180110   1.301   3.952   2.370  0.6706  0.5400 -0.4266
19565TIP3    H280111   1.271   3.907   2.229 -1.5857  0.2076  0.1205
19566TIP3   OH280112   2.835   2.836  11.611  0.0880 -0.2641 -0.7323
19566TIP3    H180113   2.842   2.928  11.637 -2.2164  0.2252 -1.6220
19566TIP3    H280114   2.839   2.838  11.515  0.5629 -1.1667 -0.7405
19567TIP3   OH280115   3.371   3.263  14.821 -0.0508  0.3291 -0.2758
19567TIP3    H180116   3.446   3.221  14.778 -0.1768  0.2181 -0.3876
19567TIP3    H280117   3.373   3.228  14.910 -1.0686 -1.1372 -0.7847
19568TIP3   OH280118   4.654   5.475   4.423 -0.5952 -0.4058  0.6972
19568TIP3    H180119   4.728   5.415   4.415  0.0786  0.5908 -1.4268
19568TIP3    H280120   4.695   5.562   4.427 -1.6110  0.0833  0.6486
19569TIP3   OH280121   2.121   0.697  13.355 -0.0238 -0.4876 -0.8251
19569TIP3    H180122   2.174   0.695  13.435 -0.8882  1.7743 -0.1072
19569TIP3    H280123   2.180   0.669  13.286  1.1278 -1.2395  0.4244
19570TIP3   OH280124   6.733   5.964   4.113 -0.3951  0.3948 -0.2246
19570TIP3    H180125   6.747   5.949   4.019 -1.0369 -1.0289 -0.1156
19570TIP3    H280126   6.796   5.906   4.156 -0.0923  1.0565  0.2418
19571TIP3   OH280127   4.415   1.692  13.672  1.0916  0.7120 -0.1565
19571TIP3    H180128   4.357   1.696  13.747 -0.0454  0.2503 -0.9710
19571TIP3    H280129   4.460   1.608  13.681 -1.2601 -0.8111 -1.4805
19572TIP3   OH280130   6.642   1.376  15.671  0.0198 -0.5093 -0.0692
19572TIP3    H180131   6.582   1.321  15.722 -0.7635  1.2166  0.9791
19572TIP3    H280132   6.608   1.371  15.582 -0.5480 -1.0606  0.1625
19573TIP3   OH280133   1.976   1.532   5.759  0.0546 -0.1415 -0.4603
19573TIP3    H180134   1.882   1.546   5.754 -0.0255 -0.8100 -1.0337
19573TIP3    H280135   2.006   1.589   5.830 -0.6060  0.9146 -1.0109
19574TIP3   OH280136   5.610   5.174  14.528  0.3629 -0.2435 -0.1411
19574TIP3    H180137   5.644   5.140  14.445 -1.7301 -0.6252 -0.9151
19574TIP3    H280138   5.543   5.237  14.502 -0.0234 -0.0375  1.2752
19575TIP3   OH280139   4.871   0.494   3.150 -0.2699 -0.3322  0.3534
19575TIP3    H180140   4.893   0.401   3.157  1.1785 -0.0649 -0.2923
19575TIP3    H280141   4.805   0.498   3.081  0.9099 -0.7244 -0.8426
19576TIP3   OH280142   0.615   5.823   0.915 -0.3232  0.3948 -0.3306
19576TIP3    H180143   0.570   5.879   0.851 -0.0752  0.5164 -0.4007
19576TIP3    H280144   0.562   5.829   0.994 -0.5286  0.3944 -0.4677
19577TIP3   OH280145   5.087   2.498   2.075  0.2756  0.4044 -0.7374
19577TIP3    H180146   5.085   2.407   2.047 -0.1158  0.1727  0.0431
19577TIP3    H280147   5.167   2.533   2.035  1.8458 -0.9610  1.0457
19578TIP3   OH280148   6.506   0.329   6.303  0.2384 -0.6230  0.0662
19578TIP3    H180149   6.563   0.270   6.352 -0.7718 -0.8668  0.9660
19578TIP3    H280150   6.526   0.416   6.337  0.0167 -0.7159  0.4295
19579TIP3   OH280151   0.091   3.950  16.610  0.2639 -0.3601  0.1409
19579TIP3    H180152   0.091   4.045  16.627  2.8656 -0.5800  1.8827
19579TIP3    H280153   0.155   3.914  16.672 -2.6785 -3.7127  1.5744
19580TIP3   OH280154   5.528   1.063   1.617 -0.1352 -0.4686 -0.1097
19580TIP3    H180155   5.547   1.016   1.698 -2.6919  0.5473  1.1651
19580TIP3    H280156   5.445   1.027   1.587 -0.2389  0.6031 -1.1953
19581TIP3   OH280157   1.685   2.517   2.454 -0.2207  0.5982  0.1066
19581TIP3    H180158   1.677   2.488   2.363 -0.4158 -0.0185  0.3075
19581TIP3    H280159   1.778   2.533   2.467 -0.2871  1.4420 -0.4185
19582TIP3   OH280160   1.318   2.072   2.620 -0.0019  0.3082  0.0296
19582TIP3    H180161   1.351   2.081   2.709  1.0976  1.9659 -0.4962
19582TIP3    H280162   1.392   2.095   2.564 -0.8624 -0.0291 -1.3049
19583TIP3   OH280163   0.312   0.885   2.385  0.2752  0.2184  0.2846
19583TIP3    H180164   0.321   0.800   2.428  1.5059 -0.0912 -0.5456
19583TIP3    H280165   0.297   0.946   2.457  2.4565 -0.2539  1.2250
19584TIP3   OH280166   6.518   2.993  13.864 -0.1019  0.2205  0.2124
19584TIP3    H180167   6.485   2.986  13.775  0.5644 -3.1733  0.1112
19584TIP3    H280168   6.550   3.083  13.871 -2.4265  1.3538 -2.0777
19585TIP3   OH280169   2.371   3.893   0.244  0.5430  0.0752 -0.2298
19585TIP3    H180170   2.296   3.873   0.301 -0.0075 -0.1123 -1.0025
19585TIP3    H280171   2.426   3.815   0.249  1.4581  0.7698  1.4892
19586TIP3   OH280172   5.374   3.534  10.804  0.3785 -0.5810 -0.0549
19586TIP3    H180173   5.284   3.554  10.830  0.8860  1.8825  0.1211
19586TIP3    H280174   5.375   3.550  10.709  0.8438  0.5164  0.1164
19587TIP3   OH280175   5.568   1.698  11.147 -0.0754  0.3335 -0.3091
19587TIP3    H180176   5.647   1.720  11.097  0.2135  0.7789  0.3292
19587TIP3    H280177   5.560   1.603  11.139  0.8792  0.2083  0.1341
19588TIP3   OH280178   2.884   4.504   3.412  0.6344 -0.2206  0.2880
19588TIP3    H180179   2.830   4.432   3.444  0.0227  0.6115  1.1965
19588TIP3    H280180   2.974   4.474   3.422  0.4721 -2.4622 -3.0925
19589TIP3   OH280181   6.121   6.264  16.333 -0.5583  0.0815  0.1787
19589TIP3    H180182   6.148   6.347  16.295 -1.4793  0.1873 -0.2693
19589TIP3    H280183   6.071   6.221  16.263 -0.9776 -0.3861  0.7610
19590TIP3   OH280184   2.635   0.686  15.507  0.1708  0.0155 -0.3033
19590TIP3    H180185   2.654   0.678  15.414 -0.4699 -1.2031 -0.3498
19590TIP3    H280186   2.688   0.760  15.536  2.1200 -0.9511 -1.1707
19591TIP3   OH280187   5.409   1.966  16.215  0.0506 -0.0797  0.1887
19591TIP3    H180188   5.462   1.914  16.275 -0.7609  0.1299  1.1184
19591TIP3    H280189   5.338   1.908  16.189 -0.4823  0.3354  0.6924
19592TIP3   OH280190   2.195   4.469   1.978 -0.0613 -0.8372 -0.7251
19592TIP3    H180191   2.134   4.510   2.040 -1.7551 -2.2146 -1.3915
19592TIP3    H280192   2.234   4.397   2.027 -0.1105 -0.8836 -0.7545
19593TIP3   OH280193   3.358   1.793   5.225 -0.2932 -0.0179  0.3194
19593TIP3    H180194   3.277   1.840   5.205 -0.2150  0.5381  1.2494
19593TIP3    H280195   3.427   1.858   5.210 -0.0372 -0.3837 -0.1217
19594TIP3   OH280196   1.725   5.640   6.072  0.5441 -0.3099  0.1567
19594TIP3    H180197   1.739   5.685   6.155  1.3188 -0.1218 -0.0646
19594TIP3    H280198   1.797   5.578   6.065 -1.1786 -2.5142  1.0218
19595TIP3   OH280199   1.908   5.408   0.998 -0.4656 -0.2257  0.1955
19595TIP3    H180200   1.861   5.356   0.932 -1.8554  0.3801  0.6559
19595TIP3    H280201   1.963   5.467   0.947 -0.1302 -1.0138 -0.3679
19596TIP3   OH280202   3.802   1.020  16.695 -0.3336 -0.3880  0.4631
19596TIP3    H180203   3.861   0.954  16.731 -0.2630 -0.5714  0.0148
19596TIP3    H280204   3.718   1.002  16.736 -0.4750 -1.1853 -0.1537
19597TIP3   OH280205   4.756   4.593   0.734 -0.3167 -0.0097 -0.4550
19597TIP3    H180206   4.807   4.546   0.799 -0.2031 -0.2577 -0.7249
19597TIP3    H280207   4.794   4.681   0.733 -0.4478  0.0544 -0.0442
19598TIP3   OH280208   3.704   2.616  16.525  0.2401 -0.1600 -0.3534
19598TIP3    H180209   3.671   2.668  16.452  1.3625 -0.1394 -0.8649
19598TIP3    H280210   3.681   2.526  16.502  1.2159 -0.2359 -1.1068
19599TIP3   OH280211   3.142   3.279   5.347 -0.0667 -0.4691 -0.1990
19599TIP3    H180212   3.104   3.193   5.330 -0.0122 -0.6823  0.7202
19599TIP3    H280213   3.221   3.281   5.293 -0.0496 -1.0072 -0.2027
19600TIP3   OH280214   3.979   2.624   5.559  0.4744  0.2896 -0.0890
19600TIP3    H180215   3.886   2.618   5.538  0.3002  1.6652  0.2095
19600TIP3    H280216   3.995   2.551   5.619 -0.5400  0.3613  0.2869
19601TIP3   OH280217   1.929   3.041  14.701 -0.2088 -0.2929  0.4831
19601TIP3    H180218   1.948   2.953  14.668 -2.2362  0.1374 -2.1799
19601TIP3    H280219   1.967   3.100  14.636  0.3407  0.8294  1.7729
19602TIP3   OH280220   4.765   4.477  12.819  0.6826  1.3806  0.0367
19602TIP3    H180221   4.683   4.488  12.770  1.4557  0.6470 -1.4805
19602TIP3    H280222   4.749   4.522  12.902 -2.2781 -1.1371  1.0081
19603TIP3   OH280223   6.630   1.467  12.118 -0.3863 -0.7502 -0.0904
19603TIP3    H180224   6.605   1.379  12.092 -0.1430 -0.7510 -0.3235
19603TIP3    H280225   6.691   1.454  12.191 -0.9520 -0.7519  0.3863
19604TIP3   OH280226   6.522   0.687  10.668 -0.1252 -0.0877 -0.0160
19604TIP3    H180227   6.527   0.603  10.715 -1.8323  0.1927  0.7396
19604TIP3    H280228   6.613   0.705  10.642  0.2501 -2.2617 -0.3842
19605TIP3   OH280229   2.969   2.219  15.382  0.0030 -0.0864 -0.7373
19605TIP3    H180230   2.911   2.275  15.433 -0.2822 -0.4503 -0.6590
19605TIP3    H280231   3.047   2.272  15.369 -0.1341  0.2102 -0.3867
19606TIP3   OH280232   5.741   4.099   3.408 -0.3726 -0.1401 -0.2366
19606TIP3    H180233   5.821   4.099   3.462  1.2412 -0.5723 -2.4844
19606TIP3    H280234   5.676   4.143   3.463  1.6519  1.1062  1.3557
19607TIP3   OH280235   5.826   1.763  17.339 -0.4649 -0.5102  0.1966
19607TIP3    H180236   5.850   1.837  17.283  1.9366 -0.9665  0.5271
19607TIP3    H280237   5.871   1.779  17.421 -0.6924 -1.8636  0.6062
19608TIP3   OH280238   5.331   6.426   0.172  0.6015 -0.3224  0.2230
19608TIP3    H180239   5.268   6.373   0.122  0.4679  0.1186 -0.0796
19608TIP3    H280240   5.306   6.516   0.153  1.3188 -0.1436  0.1100
19609TIP3   OH280241   0.445   5.136  11.881 -0.0156  0.2578 -0.1627
19609TIP3    H180242   0.497   5.058  11.899  0.0555  0.4905  0.6542
19609TIP3    H280243   0.508   5.201  11.850  0.0793  0.3114  0.1376
19610TIP3   OH280244   4.010   4.074   1.348  0.2199  0.6919  0.1652
19610TIP3    H180245   3.943   4.142   1.359 -1.3279 -0.2451 -2.5738
19610TIP3    H280246   4.089   4.122   1.323 -0.5856  1.5707 -0.7531
19611TIP3   OH280247   2.841   1.059  13.411 -0.1564  0.0282 -0.0754
19611TIP3    H180248   2.885   1.125  13.357  1.1040 -0.9856 -0.3246
19611TIP3    H280249   2.847   0.978  13.360 -1.3782 -0.3713  0.3844
19612TIP3   OH280250   2.862   0.877   4.884  0.0357 -0.3987 -0.3764
19612TIP3    H180251   2.958   0.878   4.888  0.1235  1.1264 -1.8979
19612TIP3    H280252   2.834   0.873   4.975  1.5449 -0.1026  0.1256
19613TIP3   OH280253   6.616   3.577  16.317 -0.0902  0.4406 -0.3088
19613TIP3    H180254   6.696   3.622  16.345  0.6234 -0.1587 -1.3192
19613TIP3    H280255   6.563   3.645  16.275  0.2338  0.6892 -0.3189
19614TIP3   OH280256   5.682   2.351  11.386  0.3459 -0.4433  0.7671
19614TIP3    H180257   5.691   2.268  11.339  0.9414 -0.7686  1.4381
19614TIP3    H280258   5.720   2.416  11.328 -0.2874 -0.6000  0.1578
19615TIP3   OH280259   4.722   3.129   3.832 -0.2032 -0.4588  0.5789
19615TIP3    H180260   4.799   3.175   3.864 -0.5802  1.9579 -1.6572
19615TIP3    H280261   4.748   3.096   3.746 -1.4127 -0.2094  0.0935
19616TIP3   OH280262   1.258   0.537   4.188 -0.4582  0.5347 -0.3958
19616TIP3    H180263   1.330   0.550   4.249  0.3536 -0.7530 -1.0446
19616TIP3    H280264   1.212   0.621   4.187 -0.6165  0.5623  2.0986
19617TIP3   OH280265   4.591   6.140  12.118  0.6364 -0.5160 -0.2972
19617TIP3    H180266   4.606   6.127  12.024  1.9254 -2.3416  0.1166
19617TIP3    H280267   4.511   6.091  12.136 -0.5224  1.1402 -0.6835
19618TIP3   OH280268   2.442   3.892  12.391 -0.2628  0.0526  0.3215
19618TIP3    H180269   2.514   3.829  12.387  0.4563  0.8565  0.2551
19618TIP3    H280270   2.456   3.940  12.473 -0.0962  0.9302 -0.2056
19619TIP3   OH280271   0.095   0.321   3.463 -0.3877  0.3680  0.1522
19619TIP3    H180272   0.088   0.396   3.404  1.2549  0.7621  0.4318
19619TIP3    H280273   0.128   0.357   3.545  0.6124 -0.6666  0.2294
19620TIP3   OH280274   5.133   4.060  13.865  0.4673 -0.0023  0.1360
19620TIP3    H180275   5.221   4.051  13.827 -0.2569 -1.3390 -1.3359
19620TIP3    H280276   5.119   4.155  13.868  1.3416  0.2010 -1.1281
19621TIP3   OH280277   3.097   4.351   6.605  0.5002  0.1646 -0.3194
19621TIP3    H180278   3.077   4.291   6.677 -0.5178  0.4011 -0.3880
19621TIP3    H280279   3.098   4.438   6.646  1.7849  0.1416 -0.2551
19622TIP3   OH280280   3.496   4.800  12.427 -0.1970  0.1206 -0.5334
19622TIP3    H180281   3.522   4.752  12.506 -0.0770  0.6319 -0.2513
19622TIP3    H280282   3.400   4.799  12.429 -0.2188  1.1678  0.2934
19623TIP3   OH280283   6.302   5.517   0.433 -0.5059  0.4168  0.2371
19623TIP3    H180284   6.300   5.482   0.522  2.5798 -3.0307 -0.8154
19623TIP3    H280285   6.273   5.445   0.378  0.5350  1.4108 -1.7252
19624TIP3   OH280286   1.147   6.263  11.148 -0.0883  0.3219  0.6312
19624TIP3    H180287   1.103   6.305  11.222  1.1485  0.6891  1.1903
19624TIP3    H280288   1.237   6.294  11.154 -0.3584  1.9586 -2.2110
19625TIP3   OH280289   5.480   1.358   2.815 -0.9020 -0.5661 -0.2695
19625TIP3    H180290   5.445   1.346   2.726  0.5616 -0.9174 -0.8366
19625TIP3    H280291   5.454   1.279   2.862 -0.3397 -1.1229 -0.8719
19626TIP3   OH280292   4.856   6.692   5.858 -0.4002 -0.1777  0.0014
19626TIP3    H180293   4.910   6.756   5.812 -0.0348 -0.7402 -0.3654
19626TIP3    H280294   4.851   6.617   5.799 -0.1150 -0.8223  0.7651
19627TIP3   OH280295   4.814   0.568   5.400  0.1182 -0.2978  0.0394
19627TIP3    H180296   4.754   0.581   5.327  0.5003 -1.2829 -0.4670
19627TIP3    H280297   4.871   0.644   5.399 -0.1872 -0.0720 -0.3927
19628TIP3   OH280298   6.492   3.418   5.046  0.0237  0.0214 -0.3760
19628TIP3    H180299   6.581   3.385   5.050 -0.3477 -0.8935  0.9478
19628TIP3    H280300   6.474   3.427   4.952  1.5467  0.4086 -0.6604
19629TIP3   OH280301   0.961   1.436   0.991 -0.3085 -0.5594  0.0690
19629TIP3    H180302   1.004   1.511   1.033 -1.2728 -0.7489  1.4758
19629TIP3    H280303   0.911   1.395   1.062 -2.6723 -0.4278 -1.4258
19630TIP3   OH280304   2.084   4.594  10.850  0.0894 -0.1119 -0.2004
19630TIP3    H180305   2.093   4.676  10.801 -0.2018  0.3728  0.5512
19630TIP3    H280306   1.990   4.580  10.857  0.1344 -0.8532 -0.8733
19631TIP3   OH280307   3.915   6.004  17.034 -0.5393 -0.0255 -0.0805
19631TIP3    H180308   3.957   6.073  17.086  1.4076 -0.9992 -0.2466
19631TIP3    H280309   3.986   5.969  16.979 -1.1193 -2.9314  0.8352
19632TIP3   OH280310   3.576   4.099  16.300 -0.9305 -0.1922 -0.1442
19632TIP3    H180311   3.624   4.137  16.373  0.3051 -1.6583 -0.1292
19632TIP3    H280312   3.608   4.146  16.223  1.6042 -1.9539 -0.2950
19633TIP3   OH280313   5.989   4.525   4.844 -0.3812 -0.3934 -0.6827
19633TIP3    H180314   5.898   4.552   4.840  0.7045  3.7767 -1.6371
19633TIP3    H280315   6.008   4.489   4.757 -0.9853 -0.8699 -0.6191
19634TIP3   OH280316   6.618   1.089   5.812  0.0836 -0.4612  0.0090
19634TIP3    H180317   6.650   1.137   5.736  1.3919 -1.2443  0.0344
19634TIP3    H280318   6.533   1.129   5.832 -0.2441 -0.1793 -1.7817
19635TIP3   OH280319   5.780   1.740  13.027 -0.7127 -0.0158  0.2312
19635TIP3    H180320   5.786   1.682  13.103 -1.2403 -0.0729  0.2333
19635TIP3    H280321   5.686   1.753  13.014 -0.7555 -1.5130 -1.5314
19636TIP3   OH280322   1.128   0.103  12.792  0.0383 -0.2104 -0.0678
19636TIP3    H180323   1.087   0.152  12.863  0.4510  1.0024 -0.6321
19636TIP3    H280324   1.219   0.093  12.818  0.6921  1.9680 -1.2208
19637TIP3   OH280325   2.999   2.744   0.417  0.0488  0.5387  0.6953
19637TIP3    H180326   2.916   2.763   0.460  0.6199  0.5031  1.8464
19637TIP3    H280327   2.994   2.791   0.334 -1.2575  0.2398  0.5890
19638TIP3   OH280328   2.379   6.023  14.383 -0.0601 -0.2623  0.1879
19638TIP3    H180329   2.347   6.107  14.415  0.6690 -0.4208  1.4284
19638TIP3    H280330   2.399   6.038  14.291 -2.4448  0.1752 -0.3309
19639TIP3   OH280331   1.461   4.333   6.016  0.1934 -0.2786 -0.6471
19639TIP3    H180332   1.367   4.332   6.000  0.0952  0.5240 -0.1740
19639TIP3    H280333   1.487   4.424   6.000  0.4575  0.0912  1.5247
19640TIP3   OH280334   6.612   1.216   2.528  0.3833 -0.5569  0.0824
19640TIP3    H180335   6.641   1.293   2.576 -1.3204  1.2585 -1.6198
19640TIP3    H280336   6.555   1.169   2.590  0.7097  0.0423  0.8528
19641TIP3   OH280337   0.609   5.629  16.099  0.2336  0.0220 -0.1264
19641TIP3    H180338   0.556   5.707  16.117 -0.0686 -0.0967 -0.4950
19641TIP3    H280339   0.696   5.664  16.080  0.0220  0.2928 -0.6107
19642TIP3   OH280340   4.095   3.502  13.988  0.3707  0.2774  0.1318
19642TIP3    H180341   4.018   3.492  14.043  1.1257  0.3315  1.2322
19642TIP3    H280342   4.135   3.584  14.017  1.7438 -0.5853  0.7600
19643TIP3   OH280343   0.469   1.672  14.172 -0.1466  0.4299  0.0642
19643TIP3    H180344   0.480   1.605  14.239 -2.3584  2.1032  2.2873
19643TIP3    H280345   0.550   1.723  14.175  0.1909 -0.1303  0.7222
19644TIP3   OH280346   2.852   2.792  11.338 -0.3971  0.1457  0.6231
19644TIP3    H180347   2.807   2.861  11.289  0.3582 -0.8953 -1.6940
19644TIP3    H280348   2.943   2.797  11.309  0.0963 -0.5485  1.9521
19645TIP3   OH280349   5.313   2.227  16.266 -0.3227 -0.3990  1.2009
19645TIP3    H180350   5.373   2.153  16.253  1.1347  1.2173 -3.2413
19645TIP3    H280351   5.227   2.191  16.243  0.1865 -1.0608  0.2227
19646TIP3   OH280352   1.117   6.026   6.637 -0.0391 -0.4708 -0.2053
19646TIP3    H180353   1.072   6.033   6.721 -0.6544 -0.0520 -0.5676
19646TIP3    H280354   1.210   6.038   6.659  0.1446 -3.0225  0.7860
19647TIP3   OH280355   1.392   4.601   4.927  0.1489  0.1514  0.2688
19647TIP3    H180356   1.378   4.583   4.834 -0.1954 -1.7708  0.6432
19647TIP3    H280357   1.305   4.616   4.963  0.2353  0.4395  0.3597
19648TIP3   OH280358   2.356   1.798  14.577 -0.5756  0.1268 -0.3074
19648TIP3    H180359   2.368   1.757  14.663 -1.8342  1.4252  0.5295
19648TIP3    H280360   2.347   1.725  14.517 -0.9376 -0.8144  0.8561
19649TIP3   OH280361   3.742   1.251  17.079  0.3447  0.1068  0.6541
19649TIP3    H180362   3.712   1.163  17.056  1.2307 -0.2916  0.9688
19649TIP3    H280363   3.813   1.269  17.017  1.2114 -0.0467  1.5763
19650TIP3   OH280364   6.572   5.655   1.333  0.1415 -0.2621  0.3683
19650TIP3    H180365   6.591   5.747   1.353  2.8215 -0.7717  0.4705
19650TIP3    H280366   6.648   5.625   1.283 -0.7099 -2.4177  0.2642
19651TIP3   OH280367   6.346   2.753   5.968 -0.2998  0.4803 -0.1309
19651TIP3    H180368   6.357   2.735   6.062  0.1870  0.8682 -0.1115
19651TIP3    H280369   6.279   2.690   5.940 -0.0503 -0.0183  0.3602
19652TIP3   OH280370   5.230   4.750  12.263 -0.2244 -0.0292 -0.4911
19652TIP3    H180371   5.312   4.795  12.288 -0.3275  0.3163 -0.7617
19652TIP3    H280372   5.253   4.657  12.262 -0.2236 -0.0639  0.9019
19653TIP3   OH280373   3.754   1.431  15.023 -0.2367 -0.2137 -0.2080
19653TIP3    H180374   3.765   1.339  15.000 -0.9931 -0.4877  0.4959
19653TIP3    H280375   3.673   1.434  15.073 -1.5257  1.2075 -2.2434
19654TIP3   OH280376   4.225   6.135   1.042  0.0127  0.3333 -0.2516
19654TIP3    H180377   4.135   6.112   1.064 -0.3230  1.9742  0.1925
19654TIP3    H280378   4.270   6.139   1.126  0.4243 -0.1571 -0.4455
19655TIP3   OH280379   4.591   0.201  15.453  0.0439  0.2847 -0.5568
19655TIP3    H180380   4.508   0.197  15.404 -0.4177  2.2374 -0.0228
19655TIP3    H280381   4.566   0.235  15.539  1.3466  0.5519 -0.2738
19656TIP3   OH280382   6.722   4.001  13.989 -0.8248  0.5458 -0.2394
19656TIP3    H180383   6.627   3.993  13.982 -0.8777  1.8890 -1.8544
19656TIP3    H280384   6.748   4.048  13.909  1.2287  0.0063  0.0469
19657TIP3   OH280385   3.954   3.999  12.426 -0.6251 -0.4375  0.6298
19657TIP3    H180386   3.999   3.916  12.441 -1.8716 -1.4843 -1.0636
19657TIP3    H280387   4.010   4.046  12.363 -1.0129 -0.9735 -0.1226
19658TIP3   OH280388   6.049   3.148  11.880 -0.3126  0.3763 -0.3472
19658TIP3    H180389   6.112   3.151  11.808 -0.4838  0.8242 -0.4776
19658TIP3    H280390   6.068   3.065  11.925 -0.7911 -0.3393 -1.4314
19659TIP3   OH280391   0.727   1.391   0.807 -1.0225  0.2347 -0.3120
19659TIP3    H180392   0.788   1.415   0.876 -0.3224  0.6111 -1.0358
19659TIP3    H280393   0.652   1.353   0.852 -0.9135  1.1823  0.6834
19660TIP3   OH280394   0.307   6.747   2.550  0.1712  0.4226 -0.1685
19660TIP3    H180395   0.286   6.754   2.457  0.1129  2.1587 -0.0518
19660TIP3    H280396   0.244   6.805   2.594  1.3113  0.9963  0.7676
19661TIP3   OH280397   3.488   5.825   5.864  0.2431  0.0646  0.5154
19661TIP3    H180398   3.465   5.818   5.957  0.7817  1.8105  0.8155
19661TIP3    H280399   3.405   5.843   5.820 -0.1881 -1.8207  0.4812
19662TIP3   OH280400   5.454   3.611   4.101  0.8750 -0.3335 -0.0354
19662TIP3    H180401   5.381   3.639   4.155  0.9862 -1.9210  0.9880
19662TIP3    H280402   5.428   3.634   4.011 -0.7246 -0.5523  0.3462
19663TIP3   OH280403   1.205   4.698   4.095  0.0666  0.2667  0.3785
19663TIP3    H180404   1.207   4.621   4.036  0.1152  1.8419 -1.8079
19663TIP3    H280405   1.118   4.694   4.135  0.8390 -2.0860  2.0347
19664TIP3   OH280406   4.923   0.083   2.291 -0.1581 -0.0166  0.1431
19664TIP3    H180407   4.988   0.152   2.278 -1.3313  1.0904 -0.0740
19664TIP3    H280408   4.953   0.011   2.236  0.7402  0.5638 -0.1507
19665TIP3   OH280409   1.757   5.305   0.769  0.7964 -0.2355  0.1203
19665TIP3    H180410   1.746   5.223   0.721  1.1050 -0.6094  0.6728
19665TIP3    H280411   1.716   5.371   0.714 -0.1591 -0.8866  0.0341
19666TIP3   OH280412   1.073   1.330  13.227  0.0749  0.2233 -0.5439
19666TIP3    H180413   1.105   1.419  13.241  0.2688  0.3464 -1.7049
19666TIP3    H280414   1.074   1.290  13.314  2.0693  0.6638 -0.3331
19667TIP3   OH280415   2.614   5.848  12.069  0.0218 -0.2551  0.4342
19667TIP3    H180416   2.638   5.760  12.041  0.8047  0.1661 -0.2758
19667TIP3    H280417   2.546   5.835  12.135 -0.1135 -1.3693  0.0878
19668TIP3   OH280418   2.422   2.935   1.317  0.4133  0.5894 -0.5777
19668TIP3    H180419   2.399   2.843   1.299  0.7143  0.7763 -2.0388
19668TIP3    H280420   2.458   2.933   1.405 -0.5774 -0.5213 -0.1582
19669TIP3   OH280421   1.794   6.521  11.995  0.2817  0.1983  0.0308
19669TIP3    H180422   1.775   6.439  12.040  3.5860  0.1392  1.5847
19669TIP3    H280423   1.825   6.495  11.908 -0.4863 -0.0496 -0.1751
19670TIP3   OH280424   3.611   1.840  14.124  0.4518 -0.3211 -0.4558
19670TIP3    H180425   3.687   1.804  14.169  0.4978  0.1271 -0.1703
19670TIP3    H280426   3.549   1.767  14.118  0.6028 -0.4851 -0.0164
19671TIP3   OH280427   5.205   2.589  15.606  0.8542  0.4192  0.1612
19671TIP3    H180428   5.110   2.573  15.611  0.4953  1.9760 -0.8798
19671TIP3    H280429   5.229   2.559  15.518  0.8740  1.9963 -0.4019
19672TIP3   OH280430   1.736   5.416   3.253 -0.3507 -0.5832 -0.4396
19672TIP3    H180431   1.716   5.323   3.248 -0.3327 -0.6669  0.7140
19672TIP3    H280432   1.823   5.420   3.292 -1.2936 -0.0559  1.7555
19673TIP3   OH280433   5.005   2.931   0.822  0.0743 -0.2228 -0.5141
19673TIP3    H180434   4.929   2.882   0.852 -0.4489  1.0679  0.3501
19673TIP3    H280435   4.971   2.990   0.756  0.3066  0.4132 -0.0730
19674TIP3   OH280436   4.355   2.906  11.625 -0.3462 -0.1904 -0.2243
19674TIP3    H180437   4.299   2.831  11.645  0.9235 -1.0410  0.2832
19674TIP3    H280438   4.428   2.900  11.688  0.9606  0.1462 -1.6369
19675TIP3   OH280439   2.468   1.924   5.110  0.1009  0.0030 -0.9080
19675TIP3    H180440   2.380   1.925   5.071  0.7747  0.7974 -2.5141
19675TIP3    H280441   2.466   1.851   5.171 -1.9612  0.5810 -0.1957
19676TIP3   OH280442   1.620   0.469   5.338  1.0047  0.8711  0.0347
19676TIP3    H180443   1.598   0.405   5.270  0.4275  1.0937 -0.0001
19676TIP3    H280444   1.715   0.475   5.335  0.9750  1.1525 -1.0252
19677TIP3   OH280445   0.153   1.781  14.299  0.2400  0.2810 -0.6650
19677TIP3    H180446   0.077   1.792  14.241 -0.1462  1.2265 -0.0139
19677TIP3    H280447   0.229   1.790  14.241 -0.1167 -1.5897 -1.4843
19678TIP3   OH280448   3.447   6.633  14.254  0.3673  0.5505  0.0338
19678TIP3    H180449   3.440   6.728  14.244  0.0823  0.6576  1.0285
19678TIP3    H280450   3.500   6.622  14.333 -0.0090 -0.1031  0.1994
19679TIP3   OH280451   6.375   4.675   1.400  0.2187 -0.3301 -0.2150
19679TIP3    H180452   6.328   4.677   1.317 -0.2059  0.8978  0.0384
19679TIP3    H280453   6.314   4.635   1.461  0.2697 -0.5843 -0.3271
19680TIP3   OH280454   5.276   1.497  13.560 -0.1002  0.2323  0.5018
19680TIP3    H180455   5.186   1.465  13.569 -0.0278 -0.6769 -1.4435
19680TIP3    H280456   5.317   1.477  13.644 -1.1966 -1.1083  0.7508
19681TIP3   OH280457   2.115   0.368  14.546 -0.0704  0.4719  0.2100
19681TIP3    H180458   2.050   0.429  14.510  0.4044  1.0994  0.3874
19681TIP3    H280459   2.193   0.422  14.559  0.9587 -0.5589 -1.3233
19682TIP3   OH280460   4.172   1.665  11.832 -0.0019 -0.2696  0.4932
19682TIP3    H180461   4.240   1.711  11.882 -0.9587 -2.1264  3.7523
19682TIP3    H280462   4.208   1.578  11.817  0.6602  0.4522 -3.2166
19683TIP3   OH280463   1.156   0.479  12.287 -0.4289  0.4739  0.1676
19683TIP3    H180464   1.136   0.550  12.225 -0.6419  0.1614 -0.1247
19683TIP3    H280465   1.071   0.455  12.324 -0.5335 -0.4194 -0.5999
19684TIP3   OH280466   6.563   2.031  14.875 -0.3462 -0.5659 -0.1099
19684TIP3    H180467   6.591   1.949  14.834  1.1579 -0.0869 -0.1040
19684TIP3    H280468   6.638   2.090  14.863 -0.0585 -0.1936  2.7635
19685TIP3   OH280469   4.721   1.345  12.245 -0.1955 -0.4326 -0.5037
19685TIP3    H180470   4.716   1.265  12.192  1.5710 -1.3680  0.5974
19685TIP3    H280471   4.760   1.410  12.188  1.4410 -1.3495 -0.4945
19686TIP3   OH280472   0.044   3.035  17.180 -0.1705 -0.3986  0.6904
19686TIP3    H180473   0.043   3.073  17.092  0.1191 -1.2355  0.3115
19686TIP3    H280474  -0.043   3.055  17.216  0.0989  0.9131  0.6514
19687TIP3   OH280475   6.044   1.182  11.591  0.1287  0.0471 -0.2490
19687TIP3    H180476   6.076   1.271  11.602 -0.2851  0.0620  1.1250
19687TIP3    H280477   5.957   1.183  11.630  0.8967 -1.4054  1.7035
19688TIP3   OH280478   1.623   4.088   4.654 -0.1090 -0.1760 -0.5676
19688TIP3    H180479   1.716   4.109   4.648  0.2017 -0.4870  1.9677
19688TIP3    H280480   1.580   4.171   4.672 -0.0545 -0.3010  0.1775
19689TIP3   OH280481   4.724   5.072  12.238  0.0593 -0.1947  0.5617
19689TIP3    H180482   4.705   5.055  12.146  1.6925  0.6325  0.0332
19689TIP3    H280483   4.745   4.986  12.275 -0.1974 -0.4760  0.0542
19690TIP3   OH280484   0.810   3.830   2.339  0.5208 -0.7690  1.4571
19690TIP3    H180485   0.855   3.881   2.406  0.4707  0.5178  0.5491
19690TIP3    H280486   0.879   3.782   2.294  0.7196 -0.5331  1.5103
19691TIP3   OH280487   1.032   1.079   3.765  0.0582 -0.3691 -0.3156
19691TIP3    H180488   0.996   1.095   3.852 -0.4678 -0.8272 -0.4405
19691TIP3    H280489   0.957   1.090   3.706  0.4105 -0.0519 -0.7122
19692TIP3   OH280490   6.057   2.606  13.419 -0.2555  0.0121 -0.5369
19692TIP3    H180491   5.968   2.570  13.417 -1.0649  1.8391 -3.2241
19692TIP3    H280492   6.059   2.663  13.496 -1.3630 -0.1535 -0.3745
19693TIP3   OH280493   0.255   0.028   2.296  0.0617  0.6519  0.3194
19693TIP3    H180494   0.285   0.108   2.254  0.2600 -0.6129 -2.1685
19693TIP3    H280495   0.198  -0.013   2.230  0.8157 -1.7515  1.0628
19694TIP3   OH280496   3.469   5.893   2.385 -0.3052  0.1167  0.1218
19694TIP3    H180497   3.490   5.976   2.343 -1.1628  1.1322  1.5727
19694TIP3    H280498   3.516   5.896   2.468  0.6816 -1.4515 -0.3453
19695TIP3   OH280499   2.739   5.225  12.255  0.1015  0.3387  0.2707
19695TIP3    H180500   2.761   5.212  12.163  0.9237  1.3339  0.2974
19695TIP3    H280501   2.742   5.320  12.267 -2.8343  0.4586  0.6760
19696TIP3   OH280502   5.755   3.656   0.766 -0.4038  0.0293 -0.1088
19696TIP3    H180503   5.718   3.733   0.723  1.5988  0.1437 -1.7926
19696TIP3    H280504   5.827   3.690   0.819  0.2789 -0.6177 -0.5935
19697TIP3   OH280505   5.653   5.082  11.477 -0.2642 -0.4063 -0.1687
19697TIP3    H180506   5.740   5.045  11.494  0.5060  2.3377  2.7442
19697TIP3    H280507   5.667   5.141  11.403 -0.0656 -1.1275 -0.7264
19698TIP3   OH280508   4.704   6.034   0.920 -0.0848 -0.9745  0.1972
19698TIP3    H180509   4.641   6.035   0.993 -1.1432 -2.1532 -0.6510
19698TIP3    H280510   4.682   5.954   0.871  2.6571 -1.9199  0.3474
19699TIP3   OH280511   1.569   2.006  14.382  0.0959 -0.0147 -0.3178
19699TIP3    H180512   1.652   2.011  14.429 -0.7308  1.7780  1.0517
19699TIP3    H280513   1.505   1.981  14.448 -0.3836 -2.2397 -1.5303
19700TIP3   OH280514   0.257   5.649   3.205  0.6408 -0.0872  0.4414
19700TIP3    H180515   0.345   5.622   3.229  0.0748 -1.8206  0.7496
19700TIP3    H280516   0.203   5.572   3.223 -0.5448  0.0562 -2.0512
19701TIP3   OH280517   4.043   4.336  11.412 -0.3949  0.3652  0.0377
19701TIP3    H180518   4.032   4.241  11.412 -1.7546  0.4962  1.5233
19701TIP3    H280519   4.001   4.364  11.331  1.1699 -0.3768 -1.0853
19702TIP3   OH280520   1.301   0.992   3.325  0.3655  0.1086  0.2220
19702TIP3    H180521   1.240   0.987   3.398  1.5941 -2.9166  1.2073
19702TIP3    H280522   1.262   1.055   3.265 -3.6154 -1.3962  0.9044
19703TIP3   OH280523   6.074   3.647  14.852 -0.1793 -0.6698  0.6818
19703TIP3    H180524   6.147   3.586  14.861 -0.8422 -1.7691 -0.9113
19703TIP3    H280525   6.013   3.603  14.793 -1.7571  0.5775  1.3062
19704TIP3   OH280526   3.491   1.112   6.101 -0.0246  0.5229 -0.3236
19704TIP3    H180527   3.462   1.204   6.097 -0.7250  0.2825 -1.0120
19704TIP3    H280528   3.411   1.061   6.086  0.1374 -0.2409  1.2477
19705TIP3   OH280529   4.837   5.454   6.088  0.2888  0.3229 -0.0999
19705TIP3    H180530   4.928   5.431   6.066  0.0699  1.2166 -2.1940
19705TIP3    H280531   4.796   5.370   6.108  1.1620 -0.3178 -0.8604
19706TIP3   OH280532   0.316   4.295  14.466 -0.3837 -0.1607 -0.5058
19706TIP3    H180533   0.235   4.338  14.440 -1.1993 -1.1919  0.2519
19706TIP3    H280534   0.307   4.281  14.560 -0.0351 -1.7109 -0.6725
19707TIP3   OH280535   0.428   0.263   3.962  0.0004 -0.2499  0.0724
19707TIP3    H180536   0.491   0.274   4.034 -0.3758 -2.4825  0.8024
19707TIP3    H280537   0.468   0.310   3.889  0.5862  1.7548  1.5824
19708TIP3   OH280538   4.520   4.536   5.732 -0.1035  0.6086  0.2355
19708TIP3    H180539   4.600   4.524   5.681 -0.2303  0.3585  0.0974
19708TIP3    H280540   4.551   4.573   5.815  0.5864 -2.6841  1.5918
19709TIP3   OH280541   3.103   4.475  13.376 -0.1645  0.1076 -0.2871
19709TIP3    H180542   3.177   4.518  13.417 -0.9232 -0.3424  1.6782
19709TIP3    H280543   3.039   4.545  13.362  0.1340  0.2784 -0.8270
19710TIP3   OH280544   3.502   1.798  16.564 -0.0150  0.9150 -0.2517
19710TIP3    H180545   3.428   1.847  16.528 -0.6933 -0.5590 -0.9539
19710TIP3    H280546   3.490   1.709  16.531  2.3640  0.7383 -0.7948
19711TIP3   OH280547   2.157   0.011  11.449  0.3949 -0.0203  0.0937
19711TIP3    H180548   2.103  -0.061  11.418 -0.6095  0.9274 -0.4531
19711TIP3    H280549   2.234   0.011  11.393  0.0286 -0.1971 -0.4127
19712TIP3   OH280550   0.897   4.739  16.460  0.3936 -0.4754  0.1704
19712TIP3    H180551   0.907   4.657  16.509 -2.7187 -1.4176 -0.4855
19712TIP3    H280552   0.911   4.714  16.369  0.8220  0.0581  0.0848
19713TIP3   OH280553   4.509   0.296  15.698 -0.2857  0.0451 -0.4032
19713TIP3    H180554   4.440   0.238  15.728 -1.1159  1.0595 -0.2998
19713TIP3    H280555   4.471   0.384  15.702  1.2971  0.7499  0.5945
19714TIP3   OH280556   3.902   3.648   6.437  0.1395  0.2866 -0.0296
19714TIP3    H180557   3.880   3.736   6.408  0.0143 -0.2953 -1.8505
19714TIP3    H280558   3.984   3.658   6.486 -0.2466  1.4935  0.3777
19715TIP3   OH280559   4.578   5.317  13.987  0.0898 -0.8786 -0.0949
19715TIP3    H180560   4.511   5.313  14.056 -0.3790  2.5230 -0.1780
19715TIP3    H280561   4.564   5.402  13.945  3.3936 -0.7810 -1.2959
19716TIP3   OH280562   4.762   6.141  16.145  0.3063 -0.2905 -0.5380
19716TIP3    H180563   4.813   6.146  16.226  0.7436 -0.9579 -0.7611
19716TIP3    H280564   4.780   6.223  16.100  0.7350 -0.2763 -0.3442
19717TIP3   OH280565   1.869   1.896   6.458  0.6153 -0.2976 -0.6028
19717TIP3    H180566   1.915   1.979   6.444  0.4944 -0.0611  0.3571
19717TIP3    H280567   1.880   1.849   6.376  1.5255  0.2609 -0.8149
19718TIP3   OH280568   3.323   1.343  11.960 -0.8293 -0.6165 -0.3539
19718TIP3    H180569   3.321   1.326  11.866 -2.5927 -0.8018 -0.3161
19718TIP3    H280570   3.239   1.386  11.978  0.2232  1.0433  0.8563
19719TIP3   OH280571   4.691   3.700  15.992 -0.3578 -0.3827  0.7858
19719TIP3    H180572   4.603   3.714  16.026  0.3888 -0.0020  2.7257
19719TIP3    H280573   4.744   3.682  16.070  1.2347 -0.8550 -0.3479
19720TIP3   OH280574   6.453   1.081   0.056  0.2534 -0.1071 -0.1020
19720TIP3    H180575   6.380   1.053   0.111 -0.0178  0.1988 -0.2996
19720TIP3    H280576   6.484   1.162   0.096  1.1323 -0.7486  0.5557
19721TIP3   OH280577   2.943   3.885  11.126 -0.0445  0.5785 -0.0586
19721TIP3    H180578   2.931   3.920  11.214  2.4053  1.2571  0.0894
19721TIP3    H280579   2.961   3.792  11.138 -0.3912  0.5332  0.0995
19722TIP3   OH280580   4.888   0.972  15.918 -0.7771 -0.2786 -0.1199
19722TIP3    H180581   4.889   1.004  15.828 -2.7161 -0.3004 -0.1979
19722TIP3    H280582   4.979   0.949  15.937 -0.3894 -0.6672 -2.2160
19723TIP3   OH280583   4.336   4.411   0.073  0.6122  0.2432 -0.0114
19723TIP3    H180584   4.253   4.414   0.121  0.2054  0.2936 -0.6976
19723TIP3    H280585   4.330   4.330   0.022  1.0778  0.1419  0.0909
19724TIP3   OH280586   2.787   5.856   5.236 -0.0971 -0.2933  0.1521
19724TIP3    H180587   2.805   5.908   5.315  0.6254 -0.2839 -0.0059
19724TIP3    H280588   2.835   5.901   5.167  0.5231 -1.1520  0.0057
19725TIP3   OH280589   0.067   5.797   0.784 -0.1693 -0.2118 -0.6689
19725TIP3    H180590   0.059   5.717   0.836  0.9206 -0.8961 -1.5041
19725TIP3    H280591   0.135   5.777   0.720  2.1346  2.3022  0.7950
19726TIP3   OH280592   0.462   6.679  13.153 -0.1409 -0.5919 -0.3213
19726TIP3    H180593   0.418   6.685  13.068  0.3922 -0.9853 -0.6292
19726TIP3    H280594   0.391   6.667  13.215 -0.4652 -1.6117 -0.8591
19727TIP3   OH280595   5.591   1.559  11.658  0.0471  0.3801 -0.8265
19727TIP3    H180596   5.674   1.514  11.646 -0.2440 -0.2667 -0.4531
19727TIP3    H280597   5.532   1.517  11.596 -0.1890  0.3421 -0.5774
19728TIP3   OH280598   6.279   1.554  15.873 -0.5931 -0.3316 -0.3865
19728TIP3    H180599   6.319   1.468  15.886 -1.6956 -0.6737  1.0388
19728TIP3    H280600   6.217   1.562  15.946 -1.3336  1.1897 -1.1527
19729TIP3   OH280601   4.879   2.319  13.617 -0.1982 -0.1244 -1.0166
19729TIP3    H180602   4.961   2.272  13.633  0.4525  1.1655 -0.4777
19729TIP3    H280603   4.874   2.383  13.688 -2.0528 -0.6613 -0.6114
19730TIP3   OH280604   2.980   5.266  17.115 -0.3519 -0.6933  0.5628
19730TIP3    H180605   3.026   5.271  17.031 -1.8896  0.8510 -0.2537
19730TIP3    H280606   2.908   5.204  17.099 -0.9298 -0.0362  0.5770
19731TIP3   OH280607   5.594   4.751  15.721  0.2872 -0.1395  0.2042
19731TIP3    H180608   5.588   4.781  15.630 -1.1746  0.0051  0.3237
19731TIP3    H280609   5.503   4.751  15.752  0.4494 -2.6363  0.8694
19732TIP3   OH280610   2.047   4.570   1.099  0.0592  0.3812  0.2117
19732TIP3    H180611   1.952   4.565   1.110  0.1878 -2.2327  0.6930
19732TIP3    H280612   2.063   4.661   1.077 -2.7568  0.5817 -1.6061
19733TIP3   OH280613   1.689   1.121  12.891 -0.1370 -0.5797 -0.1936
19733TIP3    H180614   1.755   1.132  12.959 -0.3772 -0.3188  0.0004
19733TIP3    H280615   1.606   1.114  12.939 -0.6198  1.9140 -0.5234
19734TIP3   OH280616   2.818   5.993  17.095 -0.5727 -0.0114  0.1977
19734TIP3    H180617   2.831   5.922  17.032 -1.0279 -1.7472  1.9800
19734TIP3    H280618   2.771   6.060  17.045 -0.0915 -0.9114 -1.5573
19735TIP3   OH280619   0.831   3.999   6.150 -0.2874  0.0378  0.1787
19735TIP3    H180620   0.811   4.093   6.150 -1.5738 -0.2097  1.3641
19735TIP3    H280621   0.880   3.985   6.231 -1.0867 -0.4976  0.5783
19736TIP3   OH280622   1.361   1.734   5.168  0.0180  0.4023 -0.1734
19736TIP3    H180623   1.419   1.764   5.098 -1.4164  0.2865 -1.4601
19736TIP3    H280624   1.378   1.640   5.174  0.8797  0.5823  0.3614
19737TIP3   OH280625   3.603   6.474   3.917  0.0621 -0.4016  0.1957
19737TIP3    H180626   3.624   6.552   3.968 -2.5248  0.2484  0.3961
19737TIP3    H280627   3.639   6.491   3.831  2.5290 -0.5427  1.1116
19738TIP3   OH280628   4.845   4.587  16.891 -0.1658 -0.4059  0.4899
19738TIP3    H180629   4.894   4.618  16.967  0.8504  0.7916 -0.5986
19738TIP3    H280630   4.874   4.497  16.879  3.8198  0.8906 -1.5291
19739TIP3   OH280631   3.267   5.376  16.295  0.2548  0.1596 -0.5134
19739TIP3    H180632   3.255   5.304  16.357 -0.0162  1.3734  0.9122
19739TIP3    H280633   3.345   5.353  16.245  0.1434 -1.1269 -0.1241
19740TIP3   OH280634   1.896   3.539  13.557 -0.1936 -0.0771  0.1694
19740TIP3    H180635   1.804   3.514  13.547 -0.6252  1.1632  0.7899
19740TIP3    H280636   1.914   3.530  13.650 -0.0380  0.8021  0.2334
19741TIP3   OH280637   2.410   2.536  12.818 -0.1250  0.5398 -0.2803
19741TIP3    H180638   2.419   2.630  12.833 -3.3161  0.9676 -0.3698
19741TIP3    H280639   2.410   2.527  12.722  1.8965  0.1548 -0.2910
19742TIP3   OH280640   0.448   5.539  16.856  0.0657 -0.5989  0.0548
19742TIP3    H180641   0.527   5.586  16.883 -0.5001  0.2518  0.2810
19742TIP3    H280642   0.386   5.554  16.927 -0.8893  0.2621 -0.9078
19743TIP3   OH280643   5.538   6.440   5.803  0.1970 -0.9708 -0.4500
19743TIP3    H180644   5.585   6.524   5.800  0.3714 -1.0838 -2.2560
19743TIP3    H280645   5.463   6.457   5.860  0.4339  0.3129 -0.4762
19744TIP3   OH280646   6.439   6.277   2.443 -0.3495  0.5330 -0.3329
19744TIP3    H180647   6.522   6.235   2.424 -0.6692 -1.0212  1.3323
19744TIP3    H280648   6.382   6.252   2.371  0.1165  0.0053 -0.5249
19745TIP3   OH280649   3.677   5.735   0.264 -1.1433 -0.5457 -0.3087
19745TIP3    H180650   3.587   5.704   0.269 -0.8041 -1.6348 -0.6423
19745TIP3    H280651   3.707   5.708   0.177 -0.7467  0.5355 -0.5280
19746TIP3   OH280652   5.425   1.030  16.254 -0.0602  0.3626 -0.0700
19746TIP3    H180653   5.338   0.992  16.266 -0.3240  0.2220 -2.0762
19746TIP3    H280654   5.468   0.971  16.192  0.9728  1.1647 -0.1383
19747TIP3   OH280655   5.079   1.070   5.261 -0.4326 -0.4434  0.2040
19747TIP3    H180656   5.083   1.145   5.319 -0.2706  0.0643 -0.4470
19747TIP3    H280657   5.166   1.064   5.221  0.0899 -1.9841  1.4552
19748TIP3   OH280658   4.760   6.261  13.101  0.0595  0.6239  0.0480
19748TIP3    H180659   4.812   6.247  13.021 -0.5249  0.7068 -0.3519
19748TIP3    H280660   4.790   6.345  13.134  0.4792  0.4788  0.0538
19749TIP3   OH280661   0.907   1.756   3.161 -0.0296  0.1873 -0.8029
19749TIP3    H180662   0.919   1.835   3.214 -0.1387  1.6491 -2.8037
19749TIP3    H280663   0.975   1.763   3.094 -1.5061 -0.1756 -2.3957
19750TIP3   OH280664   4.587   1.410  10.674 -0.3326 -0.3564 -0.2751
19750TIP3    H180665   4.537   1.475  10.723 -0.8877  0.0931 -1.3931
19750TIP3    H280666   4.568   1.327  10.719 -1.7152 -0.1203 -0.3628
19751TIP3   OH280667   1.152   4.083  12.901  0.3272 -0.5732 -0.1404
19751TIP3    H180668   1.145   3.991  12.927  0.1310 -0.2737  0.8954
19751TIP3    H280669   1.065   4.119  12.914  0.7766  0.1431  0.9788
19752TIP3   OH280670   4.906   5.337  14.346 -0.4795  0.0819  0.1561
19752TIP3    H180671   4.968   5.396  14.304 -1.0739 -0.6326 -1.8537
19752TIP3    H280672   4.894   5.373  14.434 -0.8891  2.9971 -0.9980
19753TIP3   OH280673   2.535   2.900   1.587  0.3458 -0.3059 -0.1919
19753TIP3    H180674   2.452   2.907   1.634  0.3754  0.6360 -0.2670
19753TIP3    H280675   2.562   2.809   1.601 -0.0643 -0.2763  0.9099
19754TIP3   OH280676   5.900   0.038  12.033 -0.3107 -0.1407  1.3198
19754TIP3    H180677   5.959   0.101  12.075 -1.1681  0.3608  1.8005
19754TIP3    H280678   5.941   0.019  11.948  2.3449 -2.4687  2.9794
19755TIP3   OH280679   0.623   2.365  12.087 -0.5237 -0.0320  0.1611
19755TIP3    H180680   0.694   2.421  12.054 -0.3101 -0.6123 -0.3792
19755TIP3    H280681   0.661   2.323  12.165 -0.3785 -0.1095  0.0492
19756TIP3   OH280682   3.074   2.874  13.358 -0.0240  0.7527  0.4522
19756TIP3    H180683   3.070   2.780  13.375  1.3133  0.9153  1.9713
19756TIP3    H280684   3.023   2.887  13.278 -2.0636 -0.9353  1.3964
19757TIP3   OH280685   3.887   5.760   5.933  0.7380 -0.2902  0.6647
19757TIP3    H180686   3.955   5.744   5.867 -1.2744 -0.5045 -1.4884
19757TIP3    H280687   3.932   5.806   6.003  3.3187 -1.3518 -0.1650
19758TIP3   OH280688   1.222   4.040   4.573  0.4456 -0.3593  0.6290
19758TIP3    H180689   1.218   4.107   4.506  1.5281  0.6783  1.5447
19758TIP3    H280690   1.168   3.968   4.540  0.1652  0.5156 -0.8718
19759TIP3   OH280691   0.252   6.620  13.316  0.0855  0.0770  0.1771
19759TIP3    H180692   0.284   6.620  13.406  0.8599  1.7868 -0.0620
19759TIP3    H280693   0.169   6.669  13.321 -0.3001 -0.5530  0.0801
19760TIP3   OH280694   2.139   6.047  16.716 -0.2291 -0.3420 -0.0104
19760TIP3    H180695   2.069   6.033  16.781  0.3768  0.2364  0.7789
19760TIP3    H280696   2.219   6.022  16.762  0.0698 -1.2629 -1.0026
19761TIP3   OH280697   6.205   2.441   1.797  0.2791 -0.8350  0.2260
19761TIP3    H180698   6.202   2.346   1.789  2.4856 -1.1198  1.7913
19761TIP3    H280699   6.148   2.460   1.871 -1.6416 -0.6689 -1.2141
19762TIP3   OH280700   5.384   4.523   3.842  0.2318 -0.1060 -0.1604
19762TIP3    H180701   5.382   4.427   3.845  0.2845 -0.0992  0.1623
19762TIP3    H280702   5.454   4.547   3.902 -0.3747  0.1650  0.4448
19763TIP3   OH280703   1.848   5.723  14.815  0.5728 -0.1680  0.7454
19763TIP3    H180704   1.887   5.771  14.742  0.6731 -0.8995  0.3091
19763TIP3    H280705   1.847   5.785  14.887  0.2682  0.6340  0.0592
19764TIP3   OH280706   3.557   2.526  15.021  0.1715  0.1326  0.0687
19764TIP3    H180707   3.630   2.588  15.023 -0.5616  1.0008  0.8932
19764TIP3    H280708   3.584   2.454  15.078  0.8323 -0.0897 -0.5148
19765TIP3   OH280709   3.348   0.939   4.707  0.3257  0.4882 -0.3088
19765TIP3    H180710   3.356   1.032   4.727 -2.0755  0.8333 -0.6117
19765TIP3    H280711   3.333   0.936   4.612 -1.7003  0.0159 -0.0129
19766TIP3   OH280712   1.022   5.149   2.493  0.1555  0.0283  0.1683
19766TIP3    H180713   0.988   5.164   2.581  2.2067  0.8728  0.8702
19766TIP3    H280714   1.047   5.057   2.492 -1.2191 -0.3663 -0.0578
19767TIP3   OH280715   1.023   6.252  16.836 -0.4608 -0.3130  0.3181
19767TIP3    H180716   1.094   6.219  16.889 -0.5093  1.2078  1.3947
19767TIP3    H280717   0.996   6.333  16.879 -4.4364 -1.9469  1.3881
19768TIP3   OH280718   6.526   4.653   5.284 -0.1805 -0.0826 -0.5665
19768TIP3    H180719   6.521   4.743   5.252  0.9178 -0.2215 -1.1606
19768TIP3    H280720   6.564   4.604   5.211  0.2914 -0.8229  0.1637
19769TIP3   OH280721   3.375   6.585   0.930  0.0327 -0.5518 -0.2878
19769TIP3    H180722   3.393   6.627   1.014  2.0632 -1.2366 -0.3232
19769TIP3    H280723   3.439   6.622   0.870  0.3747 -1.9771 -0.8580
19770TIP3   OH280724   5.427   2.685  14.065  0.0849  0.3342  0.0566
19770TIP3    H180725   5.376   2.637  14.131 -0.2521  1.3889  0.5831
19770TIP3    H280726   5.428   2.775  14.097  1.5809  0.4903 -0.3862
19771TIP3   OH280727   2.137   0.527  16.788 -1.1031  0.2966  0.1426
19771TIP3    H180728   2.229   0.502  16.782 -1.2845  0.0188 -2.2792
19771TIP3    H280729   2.133   0.616  16.754 -1.6545  0.5999  0.9426
19772TIP3   OH280730   0.216   1.330   0.645 -0.1497 -0.7022  0.1597
19772TIP3    H180731   0.192   1.423   0.642 -1.0112 -0.9376 -0.8311
19772TIP3    H280732   0.312   1.330   0.635 -0.3196  0.0147 -1.9655
19773TIP3   OH280733   5.963   4.089   4.386  0.2899  0.1130 -0.0119
19773TIP3    H180734   5.992   4.034   4.314  0.7063  0.6120 -0.2293
19773TIP3    H280735   5.955   4.029   4.460  1.4238 -0.1253 -0.0690
19774TIP3   OH280736   2.571   0.661  13.668 -0.2363 -0.4777 -0.1365
19774TIP3    H180737   2.570   0.741  13.720 -1.4137  0.6563 -1.8079
19774TIP3    H280738   2.664   0.637  13.662  0.2380  1.2984 -0.3627
19775TIP3   OH280739   0.324   3.221   2.613  0.0731 -0.1665  0.0678
19775TIP3    H180740   0.234   3.188   2.603 -0.6354  0.7203  2.7384
19775TIP3    H280741   0.370   3.186   2.537 -2.2042 -1.7653 -0.7106
19776TIP3   OH280742   6.443   2.323  12.808 -0.1063 -0.0743  0.4422
19776TIP3    H180743   6.485   2.346  12.891 -1.2024  0.6544  0.8149
19776TIP3    H280744   6.356   2.293  12.833 -0.6236  0.6155 -0.4697
19777TIP3   OH280745   0.384   3.121  14.438 -0.3149 -0.2149  0.2429
19777TIP3    H180746   0.388   3.026  14.434  0.5755 -0.1702 -0.0562
19777TIP3    H280747   0.450   3.145  14.502  1.9315  0.3629 -2.1225
19778TIP3   OH280748   1.928   2.031  14.919 -0.5367  0.6335 -0.7107
19778TIP3    H180749   1.949   2.096  14.853 -1.4340 -0.1529 -1.8082
19778TIP3    H280750   1.934   1.947  14.873 -3.7657  0.2113 -0.5529
19779TIP3   OH280751   1.518   6.614  15.720 -0.4326 -0.2767 -0.2321
19779TIP3    H180752   1.572   6.542  15.754 -0.4772 -0.3863 -0.3905
19779TIP3    H280753   1.541   6.689  15.775  0.3084 -0.1778 -0.6726
19780TIP3   OH280754   2.308   1.779  11.747  0.0193  0.1604 -0.2374
19780TIP3    H180755   2.392   1.823  11.739  0.0769  0.1570  0.3642
19780TIP3    H280756   2.244   1.844  11.718  0.2274  0.1574 -0.7093
19781TIP3   OH280757   6.243   3.248  13.129  0.7067  0.6496  0.4584
19781TIP3    H180758   6.301   3.193  13.076 -1.2977 -3.0158  1.6573
19781TIP3    H280759   6.298   3.281  13.200  1.7752 -1.2829  0.6063
19782TIP3   OH280760   3.021   0.287  14.241 -0.1880 -0.2324  0.4423
19782TIP3    H180761   2.991   0.197  14.246  0.5224 -0.4217  2.6486
19782TIP3    H280762   2.962   0.335  14.300 -1.2719  1.0083 -1.5587
19783TIP3   OH280763   5.778   3.170   3.447  0.0936 -0.0024 -0.2345
19783TIP3    H180764   5.705   3.177   3.508 -0.3360 -2.4279 -0.3907
19783TIP3    H280765   5.852   3.210   3.493 -1.0063  1.3611  0.4184
19784TIP3   OH280766   3.207   2.301   5.605  0.0982 -0.2342 -0.1683
19784TIP3    H180767   3.197   2.353   5.685 -0.6058 -0.3791 -0.1538
19784TIP3    H280768   3.127   2.318   5.556  0.7305  0.2160 -1.0656
19785TIP3   OH280769   3.613   1.604   3.803 -0.1432 -0.1495 -0.1038
19785TIP3    H180770   3.617   1.671   3.870 -2.6599  1.3950 -1.3362
19785TIP3    H280771   3.696   1.558   3.809  1.0478  2.0774  1.8239
19786TIP3   OH280772   5.305   1.808   0.354  0.8225  0.6138  0.1960
19786TIP3    H180773   5.371   1.738   0.352 -0.6002 -0.8653  1.6039
19786TIP3    H280774   5.221   1.762   0.347 -0.1385  2.3109 -0.0942
19787TIP3   OH280775   5.315   5.138  15.894  0.3707  0.0938 -0.1097
19787TIP3    H180776   5.248   5.122  15.961  1.3048 -1.3363  0.5144
19787TIP3    H280777   5.311   5.062  15.837  1.5283 -0.0595 -0.0050
19788TIP3   OH280778   1.928   5.082   1.798 -1.1306 -0.1404 -0.5339
19788TIP3    H180779   1.871   5.077   1.720 -0.5603 -0.7741 -0.9247
19788TIP3    H280780   1.955   5.173   1.802 -1.7251  0.0496 -0.6720
19789TIP3   OH280781   0.266   5.894   1.465 -0.2357  0.1697  0.7052
19789TIP3    H180782   0.305   5.970   1.420  0.4059  0.5834  1.9282
19789TIP3    H280783   0.333   5.826   1.458 -0.2776  0.1263  0.7331
19790TIP3   OH280784   3.585   5.390  12.588  0.6453 -0.3940 -0.5362
19790TIP3    H180785   3.605   5.383  12.495  3.1973 -0.6740 -0.0390
19790TIP3    H280786   3.560   5.482  12.600  0.7474 -0.2378 -1.4373
19791TIP3   OH280787   3.308   5.556   2.959 -0.3889 -0.3398  0.9178
19791TIP3    H180788   3.318   5.469   2.997  1.5325 -0.9648 -0.8357
19791TIP3    H280789   3.227   5.551   2.908  0.8674 -1.9993 -1.1291
19792TIP3   OH280790   3.000   3.196  16.896  0.7862  0.1710  0.1841
19792TIP3    H180791   3.013   3.244  16.815  1.2062 -1.4923 -0.7864
19792TIP3    H280792   3.085   3.156  16.915 -0.0554 -2.0428 -0.3495
19793TIP3   OH280793   5.156   5.353  10.951 -0.4759 -0.1117 -0.4887
19793TIP3    H180794   5.185   5.263  10.967  0.2010 -0.0387 -1.2641
19793TIP3    H280795   5.098   5.346  10.876 -0.2289  0.1318 -0.7032
19794TIP3   OH280796   1.513   0.626  12.163 -0.1933 -0.4970 -0.1183
19794TIP3    H180797   1.479   0.710  12.131  0.6791 -0.2035 -0.2855
19794TIP3    H280798   1.448   0.598  12.228 -0.6940  0.1155 -0.3402
19795TIP3   OH280799   0.695   3.133  12.967 -0.2229  0.4749  0.1855
19795TIP3    H180800   0.718   3.042  12.982  0.4059  0.5644 -0.1790
19795TIP3    H280801   0.601   3.138  12.983 -0.5792 -0.5925 -1.3694
19796TIP3   OH280802   5.588   3.331   3.601 -0.3659 -0.5841 -0.3881
19796TIP3    H180803   5.584   3.366   3.690  0.4394 -1.4055 -0.0098
19796TIP3    H280804   5.647   3.389   3.554 -1.4249  0.3315 -0.6376
19797TIP3   OH280805   0.519   6.682   1.850  0.0863  0.2608 -0.1385
19797TIP3    H180806   0.524   6.724   1.936  2.5780  1.7280 -0.9050
19797TIP3    H280807   0.520   6.754   1.788 -3.9907 -0.6139 -1.5494
19798TIP3   OH280808   2.960   3.003   4.362  1.1101  0.4540 -0.5078
19798TIP3    H180809   2.921   3.017   4.448 -0.6264 -1.2647 -0.9510
19798TIP3    H280810   2.984   2.910   4.361 -1.4152 -0.3151 -2.7298
19799TIP3   OH280811   3.720   3.329   5.799  0.8620  0.7543 -0.0412
19799TIP3    H180812   3.743   3.356   5.709  0.7887  0.1230 -0.2496
19799TIP3    H280813   3.797   3.354   5.851  1.1384  0.6055 -0.3748
19800TIP3   OH280814   0.827   0.761  11.655  0.0601 -0.2157  0.0221
19800TIP3    H180815   0.770   0.757  11.578 -0.9691 -0.0399  0.7489
19800TIP3    H280816   0.879   0.680  11.650 -0.3286 -0.4364 -0.5938
19801TIP3   OH280817   0.208   1.118  11.208 -0.3399 -0.2841  0.3371
19801TIP3    H180818   0.218   1.187  11.142  1.4975  0.0785  0.9446
19801TIP3    H280819   0.151   1.053  11.167  0.8280 -0.1200 -1.6470
19802TIP3   OH280820   6.312   5.687  14.406 -0.3488 -0.6923 -0.3443
19802TIP3    H180821   6.356   5.645  14.332  0.2345 -0.1917 -0.2929
19802TIP3    H280822   6.221   5.660  14.398 -0.0131 -1.9230 -0.3438
19803TIP3   OH280823   1.337   6.445   5.403 -0.4405 -0.1740 -0.3904
19803TIP3    H180824   1.394   6.474   5.474  0.0661 -0.0020 -0.8630
19803TIP3    H280825   1.249   6.470   5.432 -0.3669 -0.9841  0.6189
19804TIP3   OH280826   6.555   0.777   3.578  0.3152 -0.3014  0.3375
19804TIP3    H180827   6.590   0.806   3.494  0.4021 -0.7595  0.2148
19804TIP3    H280828   6.619   0.806   3.642 -0.0140  0.5256  0.3062
19805TIP3   OH280829   0.242   4.005  17.219 -0.2735  0.2042 -0.3916
19805TIP3    H180830   0.304   4.048  17.278 -0.5547  0.2192 -0.0992
19805TIP3    H280831   0.241   4.060  17.141 -1.2923  1.2544  0.3218
19806TIP3   OH280832   6.727   2.764   6.102  0.9510  0.0509  0.2960
19806TIP3    H180833   6.661   2.715   6.053  0.0069  1.5417  0.0501
19806TIP3    H280834   6.730   2.849   6.060  2.3449  0.3374  0.9247
19807TIP3   OH280835   3.166   1.941  11.377 -0.2700  0.2595 -0.2233
19807TIP3    H180836   3.167   1.986  11.293 -1.7729  0.8239  0.0374
19807TIP3    H280837   3.088   1.887  11.375 -0.4546  0.4626  0.8973
19808TIP3   OH280838   2.771   4.922   1.651  0.8319  0.2526 -0.0376
19808TIP3    H180839   2.759   4.874   1.732 -1.6371 -0.1025 -0.5389
19808TIP3    H280840   2.760   4.856   1.582 -0.2856  1.0992 -0.6987
19809TIP3   OH280841   5.410   4.265  13.122  0.2579  0.3689  0.2302
19809TIP3    H180842   5.406   4.294  13.031 -0.8930 -0.9929 -0.1892
19809TIP3    H280843   5.445   4.176  13.118 -1.3569 -0.3453  0.9101
19810TIP3   OH280844   5.615   5.376   1.246 -0.4825  0.3535  0.2454
19810TIP3    H180845   5.663   5.452   1.279 -1.3616  1.4271 -0.8884
19810TIP3    H280846   5.682   5.319   1.210 -0.0129  2.0781 -1.8129
19811TIP3   OH280847   3.518   1.058  11.883  0.4758 -0.2055 -0.9097
19811TIP3    H180848   3.434   1.050  11.930 -0.2303  0.0240 -2.0912
19811TIP3    H280849   3.541   0.969  11.860  0.3861 -0.2383 -0.8738
19812TIP3   OH280850   6.207   5.872   0.024  0.3731  0.2379 -0.3422
19812TIP3    H180851   6.169   5.786   0.041  0.7675 -0.1088 -1.1958
19812TIP3    H280852   6.299   5.855   0.003  0.1516  0.7217 -1.8207
19813TIP3   OH280853   2.537   6.609  16.803 -0.0777 -0.1621 -0.1431
19813TIP3    H180854   2.571   6.653  16.725  1.0919  0.0049  0.4369
19813TIP3    H280855   2.483   6.676  16.846 -0.4226 -0.1378 -0.6073
19814TIP3   OH280856   1.557   0.080  11.700 -0.3265 -0.1434 -0.2672
19814TIP3    H180857   1.578  -0.013  11.696  1.1236  0.1486  0.0565
19814TIP3    H280858   1.610   0.120  11.632 -1.3633  0.3985 -0.7876
19815TIP3   OH280859   2.685   6.447   3.255  0.1631 -0.0131  0.0777
19815TIP3    H180860   2.621   6.515   3.275  0.9393  0.5133  0.8801
19815TIP3    H280861   2.752   6.458   3.323 -0.2215 -2.2880  0.9019
19816TIP3   OH280862   2.708   2.094  16.201  0.0621 -0.0565  0.7783
19816TIP3    H180863   2.765   2.163  16.167  1.0226 -1.9135 -1.7127
19816TIP3    H280864   2.767   2.037  16.250  0.6156 -2.1713 -2.0911
19817TIP3   OH280865   3.429   1.633  15.530  0.1773 -0.0549  0.2276
19817TIP3    H180866   3.385   1.567  15.584 -1.8367  1.3049  0.3732
19817TIP3    H280867   3.419   1.602  15.440 -0.1009 -0.2948  0.3415
19818TIP3   OH280868   4.742   3.430  14.187  0.3250  0.8093  0.0491
19818TIP3    H180869   4.701   3.431  14.101 -1.2854  0.8775  0.7769
19818TIP3    H280870   4.798   3.353  14.186 -2.3971 -1.3210  0.1154
19819TIP3   OH280871   5.166   1.240  10.675  0.1809 -0.2695  1.1266
19819TIP3    H180872   5.073   1.255  10.660  0.4020 -0.1022 -0.1595
19819TIP3    H280873   5.196   1.319  10.719 -0.1541 -0.0396  0.9485
19820TIP3   OH280874   4.365   4.193   2.411 -0.2278  0.0498 -0.1211
19820TIP3    H180875   4.347   4.102   2.390  0.0711  0.5090 -2.6347
19820TIP3    H280876   4.425   4.189   2.486 -0.3172 -1.8000 -0.1088
19821TIP3   OH280877   0.862   1.464  11.759 -0.1310  0.1000  0.3818
19821TIP3    H180878   0.856   1.560  11.758  0.2869  0.1184 -0.2147
19821TIP3    H280879   0.805   1.436  11.687 -1.7028 -0.1904  1.6744
19822TIP3   OH280880   2.810   2.406   6.058  0.5519  0.0721  0.1206
19822TIP3    H180881   2.878   2.473   6.053  0.0156  0.5811 -0.6454
19822TIP3    H280882   2.735   2.445   6.012 -0.1831 -0.5621  0.7570
19823TIP3   OH280883   2.162   5.847  13.314  0.0306 -0.7090 -0.4916
19823TIP3    H180884   2.137   5.867  13.404 -0.3470 -1.5168 -0.4108
19823TIP3    H280885   2.197   5.758  13.318  0.5770 -0.5292 -1.0449
19824TIP3   OH280886   1.016   2.855  12.855 -0.3766 -0.9939 -0.0837
19824TIP3    H180887   1.111   2.839  12.858 -0.4987 -1.6529  0.8410
19824TIP3    H280888   0.980   2.773  12.822 -0.5071 -0.0485 -2.5073
19825TIP3   OH280889   3.711   0.211  13.439 -0.0535 -0.4437 -0.4816
19825TIP3    H180890   3.757   0.292  13.418 -0.9927  0.2770  0.1489
19825TIP3    H280891   3.718   0.158  13.360  2.0341 -0.4742 -0.3420
19826TIP3   OH280892   2.894   2.572  14.292  0.2979  0.0717  0.7639
19826TIP3    H180893   2.951   2.615  14.355  0.8544 -1.2213  1.1820
19826TIP3    H280894   2.951   2.551  14.218  0.0840 -0.1071  0.6465
19827TIP3   OH280895   6.104   4.644  16.655  0.0553  0.4668  0.0861
19827TIP3    H180896   6.167   4.717  16.653  0.9326 -0.2292 -2.8969
19827TIP3    H280897   6.020   4.684  16.633  0.4330  0.7033 -0.9882
19828TIP3   OH280898   3.414   4.714   3.022  0.6431  0.7644 -0.2789
19828TIP3    H180899   3.503   4.680   3.031  0.3837  0.0460 -0.3486
19828TIP3    H280900   3.364   4.641   2.985  0.0835  1.2479 -0.4994
19829TIP3   OH280901   0.789   0.574   0.729 -0.0190 -0.5334  0.0529
19829TIP3    H180902   0.819   0.617   0.809 -0.5285  0.9349 -0.5249
19829TIP3    H280903   0.694   0.575   0.735 -0.1698  1.7865 -1.6379
19830TIP3   OH280904   0.249   1.727   6.164  0.2175  0.0150  0.7114
19830TIP3    H180905   0.198   1.789   6.216  0.1766 -0.5982  1.4339
19830TIP3    H280906   0.297   1.675   6.229 -0.0481 -0.9583  0.1489
19831TIP3   OH280907   3.559   4.467  13.085 -0.4662  0.6717  0.2860
19831TIP3    H180908   3.617   4.543  13.095  0.7654 -0.2751  0.5414
19831TIP3    H280909   3.554   4.429  13.173 -0.3533 -0.0635 -0.0237
19832TIP3   OH280910   3.908   3.050   1.432 -0.2254 -0.1928  0.6965
19832TIP3    H180911   3.903   2.980   1.368 -0.5904 -0.6181  1.1831
19832TIP3    H280912   3.899   3.130   1.380  3.1927 -0.2691 -0.2934
19833TIP3   OH280913   2.833   0.010   1.107  0.1446  0.1531 -0.0166
19833TIP3    H180914   2.860  -0.003   1.016  1.1159 -1.0606  0.4076
19833TIP3    H280915   2.915   0.011   1.156 -0.4339 -0.9193  1.0243
19834TIP3   OH280916   1.914   0.830  12.210  0.6273 -0.0025  0.0647
19834TIP3    H180917   1.869   0.901  12.166  1.4045 -0.2126 -1.0951
19834TIP3    H280918   1.998   0.822  12.166  1.4375 -0.2459  1.5661
19835TIP3   OH280919   2.692   5.638   4.154 -0.0265 -0.6106  0.2681
19835TIP3    H180920   2.644   5.720   4.148 -0.7516 -1.0981 -0.7852
19835TIP3    H280921   2.748   5.637   4.077  1.1103 -0.4304  1.0611
19836TIP3   OH280922   6.371   2.920   4.145  0.2666 -0.0024  0.0004
19836TIP3    H180923   6.434   2.933   4.073  2.3343  1.0437  1.8718
19836TIP3    H280924   6.354   2.826   4.144  1.5039 -0.2548 -0.8902
19837TIP3   OH280925   0.140   1.890   6.363  0.4006 -0.2174 -0.0140
19837TIP3    H180926   0.235   1.896   6.375  0.2424 -0.3682  1.5033
19837TIP3    H280927   0.105   1.956   6.421 -0.3748  1.9268 -2.7106
19838TIP3   OH280928   2.997   1.522   3.858  0.1262 -0.1917  0.0765
19838TIP3    H180929   3.065   1.455   3.851  0.5058  0.2595 -0.7744
19838TIP3    H280930   3.045   1.605   3.864 -0.3391  0.1107 -0.2430
19839TIP3   OH280931   2.946   1.366  15.518  0.0739 -0.1659  0.1393
19839TIP3    H180932   2.942   1.367  15.422  0.1005 -0.6710  0.1283
19839TIP3    H280933   2.958   1.457  15.543 -2.5621  0.3644 -0.2255
19840TIP3   OH280934   4.638   3.761   3.944 -0.0278  0.2812 -0.5267
19840TIP3    H180935   4.653   3.669   3.922  0.9692  0.2278  0.3167
19840TIP3    H280936   4.713   3.808   3.906 -0.1313  0.6409 -0.2962
19841TIP3   OH280937   5.769   3.111  13.324 -0.1935 -0.1007 -0.5405
19841TIP3    H180938   5.837   3.055  13.359 -0.4897 -0.2765 -0.2484
19841TIP3    H280939   5.806   3.145  13.242  0.2591 -0.1582 -0.3612
19842TIP3   OH280940   4.841   3.983  12.934  0.3278  0.2844  0.4416
19842TIP3    H180941   4.829   3.893  12.965  0.0243 -0.6753 -2.2029
19842TIP3    H280942   4.772   4.033  12.979  0.5871 -0.7183  2.0474
19843TIP3   OH280943   0.936   5.387   2.931  0.6054 -0.5994  0.1121
19843TIP3    H180944   0.891   5.462   2.970 -0.2413 -1.1584  0.2654
19843TIP3    H280945   1.017   5.378   2.981 -0.3642 -1.1846  1.6711
19844TIP3   OH280946   0.605   5.306   1.111 -0.3460 -0.1301  0.3810
19844TIP3    H180947   0.643   5.359   1.041 -1.8748 -0.6562 -0.9339
19844TIP3    H280948   0.581   5.368   1.179  1.8858  0.3137  0.8430
19845TIP3   OH280949   4.534   2.918   1.701 -0.1458  0.0539 -0.4255
19845TIP3    H180950   4.574   2.996   1.664 -0.2583 -0.0218 -0.7140
19845TIP3    H280951   4.534   2.932   1.795  2.1138 -0.6496 -0.2458
19846TIP3   OH280952   6.535   4.657  16.455  0.4406 -0.1851  0.0182
19846TIP3    H180953   6.612   4.702  16.489 -0.7687 -0.4063  3.3986
19846TIP3    H280954   6.461   4.704  16.491 -1.1637  0.0934 -3.2276
19847TIP3   OH280955   2.247   5.744  15.061  0.3161  0.0971 -0.3350
19847TIP3    H180956   2.305   5.810  15.022  1.6231 -0.8136 -0.0069
19847TIP3    H280957   2.306   5.673  15.087 -0.7006 -0.0401  1.7975
19848TIP3   OH280958   1.088   3.203   3.593  0.1317 -0.0304 -0.0732
19848TIP3    H180959   1.096   3.122   3.542 -0.6089  0.0321 -0.2967
19848TIP3    H280960   1.167   3.204   3.648  0.2368 -0.8183 -0.1917
19849TIP3   OH280961   4.527   2.494   5.420  0.1895  0.4943  0.1348
19849TIP3    H180962   4.498   2.408   5.391 -2.3641  1.0866  0.6822
19849TIP3    H280963   4.472   2.555   5.371 -0.5241  1.6662  2.2790
19850TIP3   OH280964   3.877   0.186  13.918  0.0056  0.6542 -0.2153
19850TIP3    H180965   3.857   0.100  13.883  2.1927 -1.1501  2.4601
19850TIP3    H280966   3.938   0.224  13.855  1.6499 -1.2911  0.0607
19851TIP3   OH280967   5.836   6.073  11.920  0.5136  0.5110 -0.0002
19851TIP3    H180968   5.923   6.105  11.896  0.9766  0.5598  1.6051
19851TIP3    H280969   5.853   6.000  11.979 -0.5513 -0.0193 -0.3152
19852TIP3   OH280970   4.962   3.203  16.942 -0.1101  0.1048  0.3318
19852TIP3    H180971   4.919   3.127  16.981 -0.2639 -0.2418 -0.4919
19852TIP3    H280972   4.943   3.275  17.003 -2.6456  0.1771 -0.4061
19853TIP3   OH280973   5.001   1.131   6.515  0.3414  0.1891  0.1423
19853TIP3    H180974   5.058   1.124   6.592 -0.3550 -1.4303  0.5411
19853TIP3    H280975   4.985   1.040   6.488 -0.9372  0.6603 -0.7940
19854TIP3   OH280976   5.369   2.622  14.355 -0.4680  0.4444  0.0447
19854TIP3    H180977   5.281   2.603  14.321 -0.0645  0.1830 -0.8804
19854TIP3    H280978   5.390   2.545  14.409 -0.6882  0.3725  0.0317
19855TIP3   OH280979   5.357   6.068   0.042 -0.5096 -0.8901 -0.8082
19855TIP3    H180980   5.286   6.006   0.025 -0.5926 -0.3639 -2.6323
19855TIP3    H280981   5.336   6.144  -0.012  0.5399  0.0037 -0.0193
19856TIP3   OH280982   1.176   4.984  13.517  0.1577  0.1947 -0.1105
19856TIP3    H180983   1.134   5.068  13.537 -1.8904 -0.0924 -2.6399
19856TIP3    H280984   1.201   4.949  13.602 -1.1610  2.2581  1.2300
19857TIP3   OH280985   2.325   6.191   1.163  0.0717 -0.0496  0.2984
19857TIP3    H180986   2.372   6.115   1.129  0.9401 -0.0044  1.3446
19857TIP3    H280987   2.304   6.168   1.254 -1.6672  0.0685 -0.0420
19858TIP3   OH280988   0.211   5.447  17.361  0.6005  0.2178  0.1139
19858TIP3    H180989   0.226   5.503  17.285 -2.6088 -0.2176 -0.9921
19858TIP3    H280990   0.245   5.362  17.335  0.9018  0.4336 -0.2067
19859TIP3   OH280991   2.872   3.833  15.380  0.3350 -0.2386 -0.0812
19859TIP3    H180992   2.805   3.772  15.410  0.7237  0.5810  2.6612
19859TIP3    H280993   2.824   3.911  15.352 -0.0771 -1.2634 -2.5648
19860TIP3   OH280994   1.240   4.859  16.092 -0.5819 -0.0889 -0.1699
19860TIP3    H180995   1.186   4.879  16.167 -0.6136  0.8117 -0.4215
19860TIP3    H280996   1.180   4.857  16.018 -0.4773 -0.4564 -0.2463
19861TIP3   OH280997   1.236   5.446  13.325  0.4207 -0.2751  0.1450
19861TIP3    H180998   1.230   5.475  13.416 -1.9056  0.6565 -0.2268
19861TIP3    H280999   1.170   5.377  13.317  1.4668 -1.2272 -0.5546
19862TIP3   OH281000   2.025   1.744   4.850 -0.1032 -0.1192  0.0312
19862TIP3    H181001   2.112   1.744   4.810 -0.0759  0.7712  0.0732
19862TIP3    H281002   1.965   1.725   4.778  0.1125 -0.5960 -0.0256
19863TIP3   OH281003   5.317   1.123  15.266 -0.7657 -0.1887  0.3806
19863TIP3    H181004   5.294   1.050  15.324  0.3321 -1.4921 -0.7674
19863TIP3    H281005   5.399   1.096  15.225 -0.3616  1.6841 -0.1368
19864TIP3   OH281006   2.485   0.901   1.562  0.1901  0.1343  0.0652
19864TIP3    H181007   2.404   0.866   1.525 -0.8264  1.7030  0.7109
19864TIP3    H281008   2.529   0.824   1.599  0.1704 -1.1194 -2.3206
19865TIP3   OH281009   0.098   6.612   1.740  0.2069 -0.2301  0.1599
19865TIP3    H181010   0.036   6.684   1.728  0.3182  0.0666  1.2124
19865TIP3    H281011   0.068   6.543   1.681  1.0515  1.2614 -2.1121
19866TIP3   OH281012   1.227   1.205   3.151 -0.1937 -0.5602  0.0714
19866TIP3    H181013   1.212   1.300   3.152  2.8974  0.0426  0.2605
19866TIP3    H281014   1.304   1.194   3.095  0.0908 -2.8551  0.8287
19867TIP3   OH281015   2.540   4.089   1.839 -0.3005  0.0998  0.2265
19867TIP3    H181016   2.541   4.126   1.751 -0.2951 -0.9077 -0.2109
19867TIP3    H281017   2.566   4.161   1.896  1.2902  0.3602 -0.7660
19868TIP3   OH281018   1.868   2.631   3.232  0.2882  0.5850 -0.4971
19868TIP3    H181019   1.805   2.576   3.186  0.3496  0.3782 -0.3343
19868TIP3    H281020   1.950   2.619   3.184  1.3320 -2.5375  1.7709
19869TIP3   OH281021   4.996   0.194  16.442  0.1895  0.7052  0.4210
19869TIP3    H181022   5.034   0.262  16.386  0.3513 -1.4724 -2.3714
19869TIP3    H281023   4.902   0.211  16.438  0.2390  0.9077 -0.0761
19870TIP3   OH281024   5.340   2.863   3.958 -0.0022 -0.0194  0.3666
19870TIP3    H181025   5.368   2.776   3.987  0.4045 -0.4982 -1.3673
19870TIP3    H281026   5.264   2.847   3.902 -1.4129  0.9680  1.9000
19871TIP3   OH281027   6.244   0.030  13.881  0.0625  0.1061 -0.5479
19871TIP3    H181028   6.149   0.021  13.892 -0.1449  0.9580 -1.4738
19871TIP3    H281029   6.269   0.101  13.940  0.3683 -0.9750  0.6815
19872TIP3   OH281030   2.248   4.750  12.722 -0.4522  0.5320 -0.0568
19872TIP3    H181031   2.218   4.664  12.694  0.1750  0.3535 -0.1907
19872TIP3    H281032   2.225   4.754  12.815  0.9971 -0.4495  0.3765
19873TIP3   OH281033   2.758   3.225  11.628 -0.0461  0.4011  0.1417
19873TIP3    H181034   2.719   3.301  11.671  0.5930  0.8981 -0.1584
19873TIP3    H281035   2.845   3.253  11.602  0.3799 -0.5731  0.4368
19874TIP3   OH281036   2.770   0.002   4.066 -0.3872  0.9886  0.0733
19874TIP3    H181037   2.736   0.017   4.154  1.7816 -2.6871  1.7962
19874TIP3    H281038   2.845   0.061   4.059  0.1587  0.4714  1.2630
19875TIP3   OH281039   1.988   5.610  11.650  0.0288  0.0361 -0.2606
19875TIP3    H181040   1.897   5.614  11.678 -0.2987 -1.4547 -1.0104
19875TIP3    H281041   2.035   5.579  11.728 -0.5353 -1.8435 -0.6183
19876TIP3   OH281042   0.784   0.812  16.708  0.2416 -0.4314 -0.4628
19876TIP3    H181043   0.798   0.827  16.801 -1.8638  0.2159 -0.2022
19876TIP3    H281044   0.805   0.720  16.694 -0.5542 -0.8366  0.9003
19877TIP3   OH281045   5.616   4.688  12.029  1.0225 -0.6489 -0.1379
19877TIP3    H181046   5.633   4.644  11.946  0.3096 -0.6729 -0.2752
19877TIP3    H281047   5.521   4.689  12.037  0.7866  3.1903 -1.4347
19878TIP3   OH281048   5.182   1.787   0.823 -0.1058 -0.0204 -0.2630
19878TIP3    H181049   5.263   1.804   0.870  0.7740 -1.8715 -1.0241
19878TIP3    H281050   5.133   1.869   0.828  2.6941  1.8623 -1.5740
19879TIP3   OH281051   0.426   2.577   1.760 -0.6131  0.0207  0.3519
19879TIP3    H181052   0.470   2.655   1.792  0.3313 -0.0507 -0.7052
19879TIP3    H281053   0.445   2.576   1.666 -1.0322 -1.2051  0.2637
19880TIP3   OH281054   1.040   4.856   6.836  0.3013  0.0179  0.2183
19880TIP3    H181055   1.019   4.772   6.795  0.6517 -0.3221  0.7248
19880TIP3    H281056   1.057   4.915   6.763  0.2009 -0.3908 -0.1368
19881TIP3   OH281057   1.208   4.813   3.118 -0.3351 -0.6093  0.2436
19881TIP3    H181058   1.186   4.774   3.202  0.1619 -0.1037  0.6167
19881TIP3    H281059   1.156   4.893   3.114  0.3130 -0.1705  0.4750
19882TIP3   OH281060   6.149   0.752   3.875  0.7004 -0.5884  0.7064
19882TIP3    H181061   6.190   0.808   3.941  1.4735 -0.8088  0.4225
19882TIP3    H281062   6.197   0.772   3.794  0.1922 -0.7940  0.3522
19883TIP3   OH281063   0.396   2.605  13.821 -0.0674  0.2104 -0.1131
19883TIP3    H181064   0.475   2.569  13.781 -0.5945 -0.2259 -0.7620
19883TIP3    H281065   0.324   2.555  13.784 -0.5770 -0.3306  1.5065
19884TIP3   OH281066   3.724   3.981  13.275  0.0258  0.0191  0.0761
19884TIP3    H181067   3.809   3.943  13.256  0.0745  0.0018  0.3208
19884TIP3    H281068   3.680   3.987  13.190  0.5743  0.7602 -0.1733
19885TIP3   OH281069   5.956   2.843  13.581  0.0249  0.2202  0.0829
19885TIP3    H181070   5.873   2.827  13.537  1.0887 -0.5967 -1.7392
19885TIP3    H281071   5.939   2.819  13.672 -1.5264 -0.6497 -0.3951
19886TIP3   OH281072   6.355   1.631   6.150 -0.2768 -0.2492  0.2025
19886TIP3    H181073   6.424   1.567   6.169 -0.1304  0.1483  1.0339
19886TIP3    H281074   6.298   1.629   6.226 -0.0223  0.9190  0.4478
19887TIP3   OH281075   5.131   0.704  15.369 -0.5536  0.2993 -0.4689
19887TIP3    H181076   5.199   0.741  15.312 -0.7207  0.5635 -0.5004
19887TIP3    H281077   5.102   0.625  15.323 -1.9699  1.4601 -1.7025
19888TIP3   OH281078   1.147   5.331  16.243  0.0004  0.1937 -0.1492
19888TIP3    H181079   1.223   5.291  16.200 -0.1629  0.3717 -0.6024
19888TIP3    H281080   1.117   5.398  16.182 -0.4006  0.2637  0.1204
19889TIP3   OH281081   0.342   5.415  13.145  0.0604 -0.2861  0.9071
19889TIP3    H181082   0.422   5.400  13.095  0.7392  0.3613  1.7515
19889TIP3    H281083   0.354   5.502  13.183 -1.5011  0.2657  0.2342
19890TIP3   OH281084   4.026   6.151  13.651  0.2703  0.1163  0.2744
19890TIP3    H181085   3.954   6.213  13.654  0.2797  0.1193  0.4130
19890TIP3    H281086   4.054   6.152  13.559  0.3995  0.4644  0.3164
19891TIP3   OH281087   5.310   2.277   5.581 -0.7256  0.1543 -0.6734
19891TIP3    H181088   5.233   2.228   5.611 -1.0191  1.1210  0.2072
19891TIP3    H281089   5.279   2.324   5.503 -0.5672 -0.6936 -1.2569
19892TIP3   OH281090   6.236   3.542   2.202  0.5894 -0.1270 -0.1122
19892TIP3    H181091   6.303   3.543   2.133  0.0246 -1.1036 -0.7064
19892TIP3    H281092   6.185   3.463   2.184 -1.6133  1.3021 -0.5603
19893TIP3   OH281093   1.232   2.632  15.390  0.5490  0.3124 -1.4304
19893TIP3    H181094   1.221   2.538  15.375  1.6408 -0.3454  1.2813
19893TIP3    H281095   1.183   2.649  15.470  0.7217  1.9719 -1.6599
19894TIP3   OH281096   3.262   2.993   5.937 -0.2512  0.1759 -0.2280
19894TIP3    H181097   3.187   3.012   5.881 -1.4679  0.2124  1.3445
19894TIP3    H281098   3.338   3.015   5.884 -1.3112 -0.4775 -2.1123
19895TIP3   OH281099   3.392   3.151   3.297  0.7420  0.1440 -0.5181
19895TIP3    H181100   3.304   3.190   3.298  0.7268  0.1205 -0.8447
19895TIP3    H281101   3.450   3.223   3.319  0.7160  0.3683 -1.1382
19896TIP3   OH281102   6.230   6.263  13.924 -0.0639  0.7855 -0.5934
19896TIP3    H181103   6.276   6.258  14.007  2.9059 -0.5690 -2.1597
19896TIP3    H281104   6.246   6.352  13.892  0.1497  0.7979 -0.4486
19897TIP3   OH281105   6.351   1.136   2.858  0.0405 -0.1187  0.3092
19897TIP3    H181106   6.372   1.221   2.819  0.4467 -0.0116  0.7540
19897TIP3    H281107   6.265   1.149   2.898  0.0807  0.0703  0.3339
19898TIP3   OH281108   6.057   5.793   6.578  0.1639  0.0977  0.1766
19898TIP3    H181109   6.037   5.807   6.486 -2.0885 -1.0113  0.4231
19898TIP3    H281110   6.149   5.764   6.579  0.5590  1.1649 -1.5764
19899TIP3   OH281111   0.904   4.629  10.571  0.2966  0.2745 -0.3607
19899TIP3    H181112   0.907   4.553  10.513  0.4321  0.3332 -0.4301
19899TIP3    H281113   0.835   4.607  10.635 -0.6707  0.7017 -1.2240
19900TIP3   OH281114   6.017   5.391   2.178  0.4203  0.1068 -0.4854
19900TIP3    H181115   5.929   5.417   2.151  0.9456  2.0585 -0.4507
19900TIP3    H281116   6.064   5.374   2.097  0.7505  1.7119 -0.6626
19901TIP3   OH281117   0.581   6.617  14.532 -0.5871  0.6306  0.1960
19901TIP3    H181118   0.603   6.524  14.538  0.3589  0.8170 -0.2759
19901TIP3    H281119   0.527   6.623  14.454 -1.1605  0.3942  0.5631
19902TIP3   OH281120   4.465   5.954  12.504 -0.0265  0.0886 -0.4853
19902TIP3    H181121   4.469   5.977  12.597 -0.8518 -2.2497  0.2128
19902TIP3    H281122   4.546   5.906  12.487  0.0647  0.4002 -0.9714
19903TIP3   OH281123   3.294   3.804   6.028 -0.4495 -0.1615  0.1088
19903TIP3    H181124   3.326   3.884   6.070  0.2035 -0.2753 -0.1729
19903TIP3    H281125   3.289   3.825   5.935 -2.2307  0.2018  0.2505
19904TIP3   OH281126   0.836   6.321   5.497 -0.0670  0.0076  0.2923
19904TIP3    H181127   0.794   6.393   5.544 -0.7483  0.0860 -0.4332
19904TIP3    H281128   0.925   6.320   5.531  0.2463  1.8147 -0.3834
19905TIP3   OH281129   6.656   0.759   3.296 -0.2680 -0.4187  0.3038
19905TIP3    H181130   6.730   0.713   3.336  0.7284  0.5866 -0.3178
19905TIP3    H281131   6.587   0.693   3.289  0.3359 -1.2061  1.5114
19906TIP3   OH281132   3.495   3.552   2.694  0.3217  0.5945  0.2850
19906TIP3    H181133   3.406   3.518   2.682  0.7368 -0.7067  0.6616
19906TIP3    H281134   3.530   3.503   2.769  0.5726  2.7429  1.6721
19907TIP3   OH281135   2.278   2.184   2.351 -0.2321 -0.1078 -0.1481
19907TIP3    H181136   2.243   2.096   2.356 -0.8054  0.1214 -0.0134
19907TIP3    H281137   2.241   2.221   2.271  1.3748 -0.5585 -1.1362
19908TIP3   OH281138   3.012   2.861   0.159 -0.2856 -0.3323  0.3561
19908TIP3    H181139   2.942   2.889   0.100  0.1917 -0.1709 -0.1419
19908TIP3    H281140   3.075   2.933   0.158 -0.1846 -0.4113  0.9178
19909TIP3   OH281141   2.577   5.334   6.657 -0.8148  0.0956 -0.7936
19909TIP3    H181142   2.566   5.341   6.562 -0.6018 -1.0101 -0.9131
19909TIP3    H281143   2.494   5.367   6.693 -1.8716 -1.6636 -1.4603
19910TIP3   OH281144   0.180   1.939   5.328  0.0015  0.1105 -0.4270
19910TIP3    H181145   0.264   1.940   5.282  1.1818 -0.5606  1.5909
19910TIP3    H281146   0.194   1.882   5.403 -2.1798  0.2523  0.1644
19911TIP3   OH281147   0.166   2.372   3.947  0.4150  0.0077 -1.0034
19911TIP3    H181148   0.182   2.294   4.000  1.5833  1.7919  1.5058
19911TIP3    H281149   0.232   2.367   3.877  1.6223 -0.4596  0.1200
19912TIP3   OH281150   0.989   5.982  16.302 -0.5065  0.0325 -0.0201
19912TIP3    H181151   0.978   6.046  16.372 -0.1806  0.2248 -0.1414
19912TIP3    H281152   0.900   5.963  16.273 -0.6556 -0.1906  0.5699
19913TIP3   OH281153   0.803   3.096  11.241  0.2830  0.3470 -0.1145
19913TIP3    H181154   0.805   3.115  11.334  1.1008  0.5040 -0.1664
19913TIP3    H281155   0.769   3.176  11.200 -2.4132 -0.4985  0.2350
19914TIP3   OH281156   6.620   0.450  10.777  0.7678 -0.1240 -0.0053
19914TIP3    H181157   6.589   0.396  10.704 -0.0559 -1.6435  1.3991
19914TIP3    H281158   6.637   0.387  10.847  0.9557  1.3485  1.3154
19915TIP3   OH281159   3.885   0.246  12.519 -0.1833  0.1272 -0.1783
19915TIP3    H181160   3.949   0.177  12.537  0.6891  1.2828  1.4187
19915TIP3    H281161   3.901   0.271  12.428 -1.0308 -2.2169 -1.0609
19916TIP3   OH281162   1.740   5.708  16.609  0.0716  0.2283 -0.4136
19916TIP3    H181163   1.776   5.622  16.631  1.2405  0.6752 -0.5030
19916TIP3    H281164   1.782   5.768  16.671 -0.3037  0.8085 -0.7142
19917TIP3   OH281165   3.210   5.167  16.941  0.5696 -0.1475  0.2607
19917TIP3    H181166   3.213   5.263  16.934  0.3416 -0.2506 -2.6913
19917TIP3    H281167   3.300   5.139  16.924 -0.0493 -0.4816 -3.3012
19918TIP3   OH281168   3.820   1.155   4.330  0.2552  0.2767  0.2060
19918TIP3    H181169   3.731   1.123   4.342 -0.1260  0.7649 -1.1038
19918TIP3    H281170   3.850   1.177   4.418 -0.1694 -1.7678  0.9011
19919TIP3   OH281171   0.375   6.284  15.444 -0.1594 -0.2923  0.2481
19919TIP3    H181172   0.428   6.258  15.520  1.4525  1.0379 -0.3574
19919TIP3    H281173   0.290   6.241  15.458  1.4529 -3.6475  0.5708
19920TIP3   OH281174   1.759   3.642   3.648  0.3361  0.1640  0.4546
19920TIP3    H181175   1.689   3.614   3.589  0.4069 -2.1184  1.3412
19920TIP3    H281176   1.739   3.734   3.668 -1.7437 -0.0954 -0.2271
19921TIP3   OH281177   6.383   3.527  15.989 -0.1150 -0.5607  0.5933
19921TIP3    H181178   6.338   3.562  15.912 -0.7995 -2.8874 -0.1497
19921TIP3    H281179   6.423   3.604  16.030  1.1226  0.6659 -2.6020
19922TIP3   OH281180   5.238   4.607  17.368 -0.9455 -0.0163 -0.6267
19922TIP3    H181181   5.281   4.661  17.302  0.6716 -1.3697 -0.7678
19922TIP3    H281182   5.179   4.550  17.318 -1.6804  0.7202 -0.6106
19923TIP3   OH281183   4.007   6.690   0.451 -0.3036 -0.8137  0.7821
19923TIP3    H181184   4.009   6.785   0.466  0.0522 -0.7686  0.4726
19923TIP3    H281185   3.930   6.677   0.396 -0.9118 -0.8294  1.6260
19924TIP3   OH281186   6.445   4.192   5.878 -0.3378  0.3513 -0.0857
19924TIP3    H181187   6.414   4.262   5.821  1.1628  2.0226  1.0429
19924TIP3    H281188   6.400   4.206   5.961 -0.6240 -0.5357 -0.0748
19925TIP3   OH281189   0.294   4.856  16.113 -0.4475  0.4115  0.1536
19925TIP3    H181190   0.314   4.836  16.021  2.9516 -0.9453  1.0253
19925TIP3    H281191   0.292   4.951  16.117  0.2925  0.5132 -1.1908
19926TIP3   OH281192   5.700   2.571   3.427  0.2867  1.0252  0.3709
19926TIP3    H181193   5.692   2.661   3.397 -0.5923  1.7641  2.5957
19926TIP3    H281194   5.612   2.548   3.458  0.4808 -0.6370 -0.1886
19927TIP3   OH281195   0.964   0.491  11.716  0.2754 -1.0826 -0.0276
19927TIP3    H181196   0.928   0.414  11.760  0.6691 -0.4483  1.4674
19927TIP3    H281197   1.046   0.460  11.677  0.6486 -1.3356  0.9303
19928TIP3   OH281198   4.349   2.194   1.789  0.3374 -0.3089 -0.1000
19928TIP3    H181199   4.279   2.260   1.791  0.3757 -0.2384 -0.6849
19928TIP3    H281200   4.337   2.150   1.705  1.5631  0.3404 -0.6422
19929TIP3   OH281201   5.879   5.910   4.302 -0.5217  0.2831  0.2380
19929TIP3    H181202   5.882   5.918   4.206 -0.6208 -0.3071  0.1802
19929TIP3    H281203   5.805   5.851   4.318  0.7226 -1.2719  0.5532
19930TIP3   OH281204   1.784   3.301   4.893  0.4598 -0.5029  0.4626
19930TIP3    H181205   1.870   3.323   4.929  0.4078 -2.0493  1.6425
19930TIP3    H281206   1.777   3.352   4.812  1.9371  0.6248  1.0128
19931TIP3   OH281207   3.864   2.126   3.607 -0.5279 -0.8487 -0.2928
19931TIP3    H181208   3.900   2.107   3.694 -0.2497 -0.0402 -0.2215
19931TIP3    H281209   3.850   2.040   3.568 -1.6478 -1.2544  0.9416
19932TIP3   OH281210   0.626   6.475  11.144 -0.0659  0.3820  0.2798
19932TIP3    H181211   0.533   6.489  11.126 -0.4558 -2.4459 -0.4008
19932TIP3    H281212   0.665   6.460  11.058  0.6572 -0.2048  0.6956
19933TIP3   OH281213   6.547   2.981  11.415  0.6381 -0.1411 -0.4467
19933TIP3    H181214   6.624   3.000  11.361  1.4164  0.5521  0.8568
19933TIP3    H281215   6.477   3.035  11.379  1.2607  0.6297 -0.5045
19934TIP3   OH281216   0.974   5.673  13.205 -0.6905  0.6283  0.0339
19934TIP3    H181217   0.930   5.599  13.163  2.5803 -1.4734 -0.0281
19934TIP3    H281218   0.958   5.660  13.299 -0.9627  0.4469 -0.0373
19935TIP3   OH281219   6.689   3.441  13.726  0.5315 -0.5465 -0.4241
19935TIP3    H181220   6.766   3.492  13.750  1.1804 -0.0076 -3.2638
19935TIP3    H281221   6.707   3.411  13.637 -2.4434 -0.5232 -1.1481
19936TIP3   OH281222   2.341   4.449   6.214 -0.4557 -0.0175 -0.0544
19936TIP3    H181223   2.246   4.462   6.216 -0.5991 -1.0194  0.0213
19936TIP3    H281224   2.376   4.519   6.270 -1.0099  1.3525 -1.3461
19937TIP3   OH281225   4.708   6.729   2.101 -0.2600 -0.5242  0.2371
19937TIP3    H181226   4.613   6.738   2.114 -0.4234  0.6464 -1.5008
19937TIP3    H281227   4.741   6.704   2.187 -1.9922  0.3300  1.2097
19938TIP3   OH281228   4.254   4.104   4.319 -0.3389 -1.0735 -0.1818
19938TIP3    H181229   4.329   4.099   4.378  0.6466  1.0803 -1.1260
19938TIP3    H281230   4.233   4.013   4.298  1.5417 -1.7555  0.6879
19939TIP3   OH281231   5.437   1.782  12.454 -0.5602  0.0815  0.4812
19939TIP3    H181232   5.346   1.778  12.483 -0.2783  0.8135  1.4876
19939TIP3    H281233   5.459   1.691  12.433 -1.5173 -0.1001  0.2132
19940TIP3   OH281234   5.954   4.615   1.255  0.7082  0.1856 -0.3339
19940TIP3    H181235   5.939   4.539   1.312 -0.8896 -0.4351 -1.4992
19940TIP3    H281236   5.981   4.685   1.314  1.3827 -1.0506  0.8788
19941TIP3   OH281237   3.414   0.531   2.475 -0.2547  0.1542 -0.3281
19941TIP3    H181238   3.410   0.601   2.540 -0.5476 -0.1859  0.0282
19941TIP3    H281239   3.382   0.454   2.522  0.1308 -0.2327 -0.6948
19942TIP3   OH281240   3.089   1.398   0.399 -0.1960  0.0630 -0.2841
19942TIP3    H181241   3.140   1.447   0.463 -0.7340  0.8527 -0.4427
19942TIP3    H281242   2.998   1.421   0.419 -0.3326  0.9741 -1.8467
19943TIP3   OH281243   6.422   3.933  16.425 -0.5164 -0.4587 -0.1567
19943TIP3    H181244   6.450   4.024  16.436 -2.7770  0.3468 -0.6174
19943TIP3    H281245   6.445   3.891  16.507 -3.1027  1.5946  1.7872
19944TIP3   OH281246   6.732   3.296   4.367  0.2801 -0.0740 -0.0359
19944TIP3    H181247   6.700   3.384   4.387  0.1177 -0.1808  0.1866
19944TIP3    H281248   6.720   3.287   4.273 -1.2536 -0.4534  0.1539
19945TIP3   OH281249   4.397   3.062   6.625 -0.2258 -0.0891 -0.2639
19945TIP3    H181250   4.382   3.011   6.546  1.2757  1.0055 -1.3231
19945TIP3    H281251   4.395   3.153   6.595  0.2858  0.3502  0.9706
19946CLA    CLA81252   1.315   2.442   2.268 -0.1756 -0.4221  0.0802
19947LIG     O181253   3.209   3.148  16.517  0.2211 -0.3815  1.0992
19947LIG     O281254   3.112   3.496  16.589 -0.2769  0.0684  0.5518
19947LIG     O381255   3.021   3.236  16.611 -0.1498 -0.0554  0.3687
19947LIG     O481256   3.295   3.403  16.770 -0.0715  0.2900  0.2248
19947LIG     O581257   2.709   3.513  16.913  0.3222  0.0228  0.3652
19947LIG      N81258   3.274   2.832  16.540 -0.0805  0.3890 -0.0436
19947LIG     C181259   3.233   2.943  16.450 -0.2383 -0.1294 -0.1269
19947LIG     C281260   3.174   2.822  16.651  0.2250  0.0450 -0.0640
19947LIG     C381261   3.146   3.027  16.527 -0.4689  0.3265 -0.0528
19947LIG     C481262   3.143   2.969  16.669  0.1608  0.2335 -0.3517
19947LIG     C581263   3.290   2.703  16.467  0.0625 -0.7058 -0.0611
19947LIG     C681264   3.408   2.860  16.596  0.7995 -0.4596  0.6431
19947LIG     C781265   3.135   3.250  16.564  1.0458 -0.8286  0.0045
19947LIG     C881266   3.201   3.392  16.541  0.2067  0.7256  0.0954
19947LIG     C981267   3.236   3.412  16.382 -0.5951 -0.3297 -0.0710
19947LIG    C1081268   3.314   3.383  16.635 -0.5091 -0.4078  0.2198
19947LIG    C1181269   3.002   3.514  16.503 -0.0479  0.1484  0.1372
19947LIG    C1281270   3.198   3.322  16.286  0.4111 -0.1981  0.3442
19947LIG    C1381271   3.308   3.528  16.341  0.9030  0.1650  0.1007
19947LIG    C1481272   3.441   3.361  16.615 -0.7737 -0.3071 -0.0107
19947LIG    C1581273   2.903   3.590  16.584  1.1628 -0.4928 -0.5529
19947LIG    C1681274   2.859   3.520  16.719 -0.2059  0.9883  0.0391
19947LIG    C1781275   3.512   3.378  16.734  0.9979 -0.3357 -0.3789
19947LIG    C1881276   3.214   3.354  16.151 -0.3846 -0.4409  0.7912
19947LIG    C1981277   3.342   3.550  16.210  0.3464  0.1878 -0.0950
19947LIG    C2081278   3.417   3.401  16.827  0.2016 -0.5834  0.4885
19947LIG    C2181279   3.290   3.468  16.108  0.1457  0.1578 -0.6508
19947LIG    C2281280   2.738   3.585  16.792 -0.7858 -0.6057 -0.1537
19947LIG     H181281   3.198   2.904  16.352 -1.7184  1.8905 -0.4652
19947LIG     H281282   3.321   3.005  16.420 -0.7614  0.3187 -0.7871
19947LIG     H381283   3.206   2.764  16.739 -1.7432 -1.6127 -0.3679
19947LIG     H481284   3.081   2.765  16.627  0.1971 -0.1205  0.4402
19947LIG     H581285   3.046   3.032  16.479  0.4588  2.3461 -1.9511
19947LIG     H681286   3.214   3.017  16.737  0.9848 -1.3558 -0.0452
19947LIG     H781287   3.042   2.992  16.707 -1.5122 -2.4871 -2.7359
19947LIG     H881288   3.358   2.705  16.383  0.4445 -1.3560  0.2210
19947LIG     H981289   3.198   2.665  16.424  0.1628 -2.0359  0.8505
19947LIG    H1081290   3.329   2.626  16.531 -1.1842  0.4222  2.1750
19947LIG    H1181291   3.443   2.784  16.665  0.0591 -1.6301 -0.2299
19947LIG    H1281292   3.404   2.958  16.642  1.6509 -0.2126  0.2021
19947LIG    H1381293   3.478   2.880  16.517 -0.2948 -0.2704 -0.3038
19947LIG    H1481294   2.960   3.423  16.455 -1.8979  1.5861 -1.1355
19947LIG    H1581295   3.042   3.575  16.419  3.3363  2.5065  3.1469
19947LIG    H1681296   3.122   3.247  16.304 -0.8003  1.1272  1.0104
19947LIG    H1781297   3.321   3.618  16.398 -1.7504  1.8517 -1.7616
19947LIG    H1881298   3.494   3.336  16.524 -2.0930 -0.3394 -0.7885
19947LIG    H1981299   2.806   3.594  16.530  1.5343 -0.8049 -1.2558
19947LIG    H2081300   2.939   3.691  16.615 -0.7058 -0.6742  2.6988
19947LIG    H2181301   2.942   3.502  16.790 -1.1827 -2.0364  0.5588
19947LIG    H2281302   2.840   3.416  16.685 -0.4511  0.3834  1.9492
19947LIG    H2381303   3.614   3.362  16.766  0.7996  1.8017  1.4950
19947LIG    H2481304   3.183   3.281  16.077  2.6295  0.0481 -1.1766
19947LIG    H2581305   3.380   3.647  16.183 -1.2488  0.8308 -0.1664
19947LIG    H2681306   3.423   3.413  16.934  0.7887 -0.1531  0.4128
19947LIG    H2781307   3.297   3.496  16.004 -0.4772  2.9437 -0.0155
19947LIG    H2881308   2.752   3.692  16.818 -1.3556 -0.1334 -1.6875
19947LIG    H2981309   2.651   3.576  16.724 -0.5028 -2.0265 -0.3562
19947LIG    H3081310   2.613   3.513  16.916  0.2323 -1.3761 -0.9337
   6.75455   6.75455  17.41074
